 Gaussian 16, Revision A.03,

 -----------------------------------------------------------
 # opt freq B3LYP/6-31G(d) empiricaldispersion=gd3bj scf=xqc
 -----------------------------------------------------------

 ------------------------------
 CID_75853568_JID_8494_neutraal
 ------------------------------
 Symbolic Z-matrix:
 Charge =  0 Multiplicity = 1

 SCF Done:  E(RB3LYP) =  -1434.21511179     A.U. after   15 cycles
 SCF Done:  E(RB3LYP) =  -1434.22077185     A.U. after   12 cycles
 SCF Done:  E(RB3LYP) =  -1434.21972888     A.U. after   13 cycles
 SCF Done:  E(RB3LYP) =  -1434.22222678     A.U. after   12 cycles
 SCF Done:  E(RB3LYP) =  -1434.22304128     A.U. after   12 cycles
 SCF Done:  E(RB3LYP) =  -1434.22341745     A.U. after   12 cycles
 SCF Done:  E(RB3LYP) =  -1434.22352591     A.U. after   11 cycles
 SCF Done:  E(RB3LYP) =  -1434.22355268     A.U. after   10 cycles
 SCF Done:  E(RB3LYP) =  -1434.22355493     A.U. after    9 cycles
 SCF Done:  E(RB3LYP) =  -1434.22355621     A.U. after    8 cycles
 SCF Done:  E(RB3LYP) =  -1434.22355642     A.U. after    7 cycles
 Optimization completed.
    -- Stationary point found.
 Normal termination of Gaussian 16 at Fri Dec 11 20:14:39 2020.

 --------------------------------------------------------------------
 #N Geom=AllCheck Guess=TCheck SCRF=Check GenChk RB3LYP/6-31G(d) Freq
 --------------------------------------------------------------------

 Structure from the checkpoint file:  "JID_8494.chk"
 ------------------------------
 CID_75853568_JID_8494_neutraal
 ------------------------------
 Charge =  0 Multiplicity = 1

 SCF Done:  E(RB3LYP) =  -1434.22355642     A.U. after    1 cycles

  Exact polarizability: 201.093 -13.827 191.315  -6.262  15.795 164.898
 Approx polarizability: 290.467 -31.112 288.812 -22.384  33.484 293.216

                      1                      2                      3
                      A                      A                      A
 Frequencies --     32.9407                49.5508                56.3390
 Red. masses --      4.0335                 5.0712                 5.7568
 Frc consts  --      0.0026                 0.0073                 0.0108
 IR Inten    --      0.0680                 0.1999                 0.0874

                      4                      5                      6
                      A                      A                      A
 Frequencies --     64.5290                84.9850                98.7731
 Red. masses --      4.6541                 4.5305                 3.4245
 Frc consts  --      0.0114                 0.0193                 0.0197
 IR Inten    --      0.0267                 0.1659                 0.0970

                      7                      8                      9
                      A                      A                      A
 Frequencies --    154.7020               168.2478               184.5209
 Red. masses --      3.9606                 3.0362                 2.4045
 Frc consts  --      0.0558                 0.0506                 0.0482
 IR Inten    --      0.3130                 0.3194                 0.3810

                     10                     11                     12
                      A                      A                      A
 Frequencies --    194.3261               235.4617               266.9467
 Red. masses --      2.3789                 2.4456                 2.1572
 Frc consts  --      0.0529                 0.0799                 0.0906
 IR Inten    --      0.6558                 2.2430                 1.0603

                     13                     14                     15
                      A                      A                      A
 Frequencies --    276.4074               298.0593               315.9717
 Red. masses --      3.5156                 3.1181                 2.6897
 Frc consts  --      0.1583                 0.1632                 0.1582
 IR Inten    --      2.8930                 0.2434                 0.9631

                     16                     17                     18
                      A                      A                      A
 Frequencies --    341.1936               355.6425               403.7590
 Red. masses --      3.5644                 3.6619                 2.1082
 Frc consts  --      0.2445                 0.2729                 0.2025
 IR Inten    --      1.4113                 1.3961                 0.7141

                     19                     20                     21
                      A                      A                      A
 Frequencies --    458.1593               465.9233               496.3962
 Red. masses --      2.4347                 3.5479                 4.0937
 Frc consts  --      0.3011                 0.4538                 0.5943
 IR Inten    --      0.8210                 2.7902                 0.3978

                     22                     23                     24
                      A                      A                      A
 Frequencies --    516.2956               559.5351               589.0938
 Red. masses --      5.4336                 3.8016                 3.4811
 Frc consts  --      0.8534                 0.7012                 0.7118
 IR Inten    --      3.7581                 2.3995                 0.8125

                     25                     26                     27
                      A                      A                      A
 Frequencies --    608.3147               613.8513               642.0938
 Red. masses --      3.7052                 3.6105                 8.2864
 Frc consts  --      0.8078                 0.8016                 2.0129
 IR Inten    --      0.6965                 1.5429                 1.2760

                     28                     29                     30
                      A                      A                      A
 Frequencies --    692.4815               702.9427               709.5569
 Red. masses --      2.1443                 2.1016                 1.1980
 Frc consts  --      0.6058                 0.6118                 0.3554
 IR Inten    --     43.8801                10.4785                56.1772

                     31                     32                     33
                      A                      A                      A
 Frequencies --    732.3109               750.2676               760.0861
 Red. masses --      3.3545                 2.4627                 2.5299
 Frc consts  --      1.0599                 0.8168                 0.8612
 IR Inten    --      1.9629                 7.4914                 4.9919

                     34                     35                     36
                      A                      A                      A
 Frequencies --    783.3604               805.0603               825.0874
 Red. masses --      3.6253                 2.5124                 2.0790
 Frc consts  --      1.3107                 0.9594                 0.8339
 IR Inten    --      3.5514                 1.1030                11.5190

                     37                     38                     39
                      A                      A                      A
 Frequencies --    835.9065               851.3037               870.8759
 Red. masses --      1.8156                 2.1905                 4.0562
 Frc consts  --      0.7475                 0.9353                 1.8125
 IR Inten    --     23.3111                 2.4193                 4.4728

                     40                     41                     42
                      A                      A                      A
 Frequencies --    887.3511               889.6373               904.5918
 Red. masses --      1.3400                 1.6043                 1.3248
 Frc consts  --      0.6217                 0.7481                 0.6387
 IR Inten    --      1.2294                 3.7549                 1.0782

                     43                     44                     45
                      A                      A                      A
 Frequencies --    935.8390               950.2645               983.3932
 Red. masses --      2.2896                 2.0298                 1.8400
 Frc consts  --      1.1814                 1.0799                 1.0484
 IR Inten    --      5.6590                 2.8226                 2.4937

                     46                     47                     48
                      A                      A                      A
 Frequencies --   1001.7039              1021.5499              1067.1569
 Red. masses --      2.1556                 2.6219                 1.5986
 Frc consts  --      1.2744                 1.6121                 1.0726
 IR Inten    --      4.6520                20.5530                 4.9541

                     49                     50                     51
                      A                      A                      A
 Frequencies --   1074.5208              1079.4713              1110.8718
 Red. masses --      1.9654                 1.8989                 1.3540
 Frc consts  --      1.3370                 1.3037                 0.9845
 IR Inten    --      3.7997                 2.2192                11.7771

                     52                     53                     54
                      A                      A                      A
 Frequencies --   1115.4072              1118.4516              1135.6768
 Red. masses --      1.2661                 1.7546                 2.0012
 Frc consts  --      0.9281                 1.2932                 1.5207
 IR Inten    --      1.6086                10.6430                 3.7854

                     55                     56                     57
                      A                      A                      A
 Frequencies --   1169.9923              1186.3232              1188.9837
 Red. masses --      2.1562                 4.0182                 2.4305
 Frc consts  --      1.7390                 3.3319                 2.0244
 IR Inten    --     17.7677                12.6192                16.1321

                     58                     59                     60
                      A                      A                      A
 Frequencies --   1215.1128              1236.7504              1245.3063
 Red. masses --      1.8952                 1.6493                 1.4199
 Frc consts  --      1.6487                 1.4863                 1.2974
 IR Inten    --     21.3486                 1.4202                 3.9924

                     61                     62                     63
                      A                      A                      A
 Frequencies --   1253.9822              1285.1145              1298.7231
 Red. masses --      1.3831                 1.2876                 1.4596
 Frc consts  --      1.2814                 1.2529                 1.4505
 IR Inten    --      2.4396                 3.5964                 5.2713

                     64                     65                     66
                      A                      A                      A
 Frequencies --   1326.1143              1334.9286              1340.8227
 Red. masses --      1.3908                 1.2684                 1.6106
 Frc consts  --      1.4411                 1.3317                 1.7060
 IR Inten    --     29.3867                10.6452                37.0333

                     67                     68                     69
                      A                      A                      A
 Frequencies --   1374.6626              1382.4837              1392.6558
 Red. masses --      1.3094                 1.5720                 1.4001
 Frc consts  --      1.4579                 1.7702                 1.5999
 IR Inten    --     15.7165                 5.5775                 4.5940

                     70                     71                     72
                      A                      A                      A
 Frequencies --   1407.9017              1413.8360              1420.9644
 Red. masses --      2.0469                 1.4527                 2.2886
 Frc consts  --      2.3905                 1.7109                 2.7227
 IR Inten    --      7.1794                15.1177                 2.7942

                     73                     74                     75
                      A                      A                      A
 Frequencies --   1428.4988              1435.0635              1448.0858
 Red. masses --      1.3564                 1.5870                 1.2668
 Frc consts  --      1.6308                 1.9256                 1.5652
 IR Inten    --     14.1711                 2.6749                 4.7199

                     76                     77                     78
                      A                      A                      A
 Frequencies --   1503.1119              1504.1667              1507.3150
 Red. masses --      2.2309                 1.8614                 1.0937
 Frc consts  --      2.9696                 2.4813                 1.4641
 IR Inten    --     10.2976                 1.9426                 1.3602

                     79                     80                     81
                      A                      A                      A
 Frequencies --   1515.8737              1518.1745              1526.8227
 Red. masses --      3.0475                 1.1779                 1.0623
 Frc consts  --      4.1259                 1.5996                 1.4591
 IR Inten    --      8.9230                 8.1018                 2.0153

                     82                     83                     84
                      A                      A                      A
 Frequencies --   1531.8068              1536.3480              1546.6325
 Red. masses --      1.0978                 1.0686                 1.0637
 Frc consts  --      1.5177                 1.4860                 1.4992
 IR Inten    --      4.8913                 5.4411                 0.8632

                     85                     86                     87
                      A                      A                      A
 Frequencies --   1603.4928              1628.5213              2953.3803
 Red. masses --      5.4751                 6.9447                 1.0750
 Frc consts  --      8.2942                10.8515                 5.5245
 IR Inten    --      1.6020                 1.7064                32.2632

                     88                     89                     90
                      A                      A                      A
 Frequencies --   2957.3925              3021.4652              3035.9616
 Red. masses --      1.0770                 1.0666                 1.0668
 Frc consts  --      5.5497                 5.7370                 5.7934
 IR Inten    --     78.2681                 7.6001                60.9460

                     91                     92                     93
                      A                      A                      A
 Frequencies --   3039.0102              3041.3462              3047.7963
 Red. masses --      1.0676                 1.0610                 1.0402
 Frc consts  --      5.8093                 5.7823                 5.6931
 IR Inten    --     28.4815                28.3068                22.4565

                     94                     95                     96
                      A                      A                      A
 Frequencies --   3063.5183              3073.4716              3081.1683
 Red. masses --      1.0943                 1.0990                 1.1001
 Frc consts  --      6.0512                 6.1163                 6.1534
 IR Inten    --     27.9331                54.6910                32.0366

                     97                     98                     99
                      A                      A                      A
 Frequencies --   3086.8206              3109.0080              3115.1838
 Red. masses --      1.0910                 1.1015                 1.0933
 Frc consts  --      6.1251                 6.2728                 6.2512
 IR Inten    --     38.6988                42.0401                30.0037

                    100                    101                    102
                      A                      A                      A
 Frequencies --   3129.9986              3209.7125              3224.9822
 Red. masses --      1.0993                 1.0892                 1.0905
 Frc consts  --      6.3455                 6.6114                 6.6824
 IR Inten    --     33.5223                10.1384                 2.0302

                    103                    104                    105
                      A                      A                      A
 Frequencies --   3225.9095              3267.7480              3272.1336
 Red. masses --      1.0941                 1.0971                 1.0970
 Frc consts  --      6.7085                 6.9023                 6.9204
 IR Inten    --     10.5200                 2.3538                 1.0339

 - Thermochemistry -
 -------------------
 Temperature   298.150 Kelvin.  Pressure   1.00000 Atm.
 Atom     1 has atomic number  6 and mass  12.00000

 Molecular mass:   277.09589 amu.
 Principal axes and moments of inertia in atomic units:
                           1         2         3
     Eigenvalues --  4287.576615893.314978000.37500
           X            0.99837   0.05485  -0.01608
           Y           -0.05455   0.99834   0.01856
           Z            0.01707  -0.01765   0.99970
 This molecule is an asymmetric top.
 Rotational symmetry number  1.
 Warning -- assumption of classical behavior for rotation
           may cause significant error
 Rotational temperatures (Kelvin)      0.02020     0.01470     0.01083
 Rotational constants (GHZ):           0.42092     0.30624     0.22558
 Zero-point vibrational energy     818196.2 (Joules/Mol)
                                  195.55359 (Kcal/Mol)
 Warning -- explicit consideration of  26 degrees of freedom as
           vibrations may cause significant error
 Vibrational temperatures:     47.39    71.29    81.06    92.84   122.27
          (Kelvin)            142.11   222.58   242.07   265.48   279.59
                              338.78   384.08   397.69   428.84   454.61
                              490.90   511.69   580.92   659.19   670.36
                              714.20   742.83   805.05   847.57   875.23
                              883.20   923.83   996.33  1011.38  1020.89
                             1053.63  1079.47  1093.59  1127.08  1158.30
                             1187.12  1202.68  1224.84  1253.00  1276.70
                             1279.99  1301.51  1346.46  1367.22  1414.88
                             1441.23  1469.78  1535.40  1546.00  1553.12
                             1598.30  1604.82  1609.20  1633.99  1683.36
                             1706.85  1710.68  1748.28  1779.41  1791.72
                             1804.20  1848.99  1868.57  1907.98  1920.66
                             1929.14  1977.83  1989.09  2003.72  2025.66
                             2034.19  2044.45  2055.29  2064.74  2083.47
                             2162.64  2164.16  2168.69  2181.00  2184.31
                             2196.76  2203.93  2210.46  2225.26  2307.07
                             2343.08  4249.26  4255.03  4347.21  4368.07
                             4372.46  4375.82  4385.10  4407.72  4422.04
                             4433.11  4441.25  4473.17  4482.05  4503.37
                             4618.06  4640.03  4641.36  4701.56  4707.87

 Zero-point correction=                           0.311634 (Hartree/Particle)
 Thermal correction to Energy=                    0.328586
 Thermal correction to Enthalpy=                  0.329530
 Thermal correction to Gibbs Free Energy=         0.266081
 Sum of electronic and zero-point Energies=          -1433.911922
 Sum of electronic and thermal Energies=             -1433.894970
 Sum of electronic and thermal Enthalpies=           -1433.894026
 Sum of electronic and thermal Free Energies=        -1433.957476

                     E (Thermal)             CV                S
                      KCal/Mol        Cal/Mol-Kelvin    Cal/Mol-Kelvin
 Total                  206.191             66.283            133.541
 Electronic               0.000              0.000              0.000
 Translational            0.889              2.981             42.756
 Rotational               0.889              2.981             33.669
 Vibrational            204.413             60.321             57.117
 Vibration     1          0.594              1.983              5.644
 Vibration     2          0.595              1.978              4.835
 Vibration     3          0.596              1.975              4.581
 Vibration     4          0.597              1.971              4.314
 Vibration     5          0.601              1.960              3.772
 Vibration     6          0.604              1.950              3.478
 Vibration     7          0.620              1.897              2.614
 Vibration     8          0.625              1.882              2.455
 Vibration     9          0.631              1.861              2.282
 Vibration    10          0.635              1.848              2.186
 Vibration    11          0.655              1.787              1.837
 Vibration    12          0.672              1.734              1.616
 Vibration    13          0.678              1.717              1.556
 Vibration    14          0.691              1.677              1.428
 Vibration    15          0.703              1.643              1.331
 Vibration    16          0.721              1.593              1.207
 Vibration    17          0.731              1.564              1.141
 Vibration    18          0.769              1.462              0.949
 Vibration    19          0.816              1.343              0.771
 Vibration    20          0.823              1.326              0.749
 Vibration    21          0.852              1.258              0.667
 Vibration    22          0.871              1.214              0.619
 Vibration    23          0.915              1.119              0.525
 Vibration    24          0.946              1.055              0.469
 Vibration    25          0.967              1.014              0.436
 Vibration    26          0.973              1.003              0.426

                           ! Non-Optimized Parameters !
 Normal termination of Gaussian 16 at Fri Dec 11 20:34:30 2020.

 ----------------------------------------------------------------------
 # B3LYP/6-311++G(d,p) empiricaldispersion=gd3bj scf=xqc pop=npa geom=c
 heck
 ----------------------------------------------------------------------

 --------------------------------------
 CID_75853568_JID_8494_Energie_neutraal
 --------------------------------------
 Structure from the checkpoint file:  "JID_8494.chk"
 Charge =  0 Multiplicity = 1

 SCF Done:  E(RB3LYP) =  -1434.44153644     A.U. after   16 cycles
 Normal termination of Gaussian 16 at Fri Dec 11 20:44:31 2020.

 ----------------------------------------------------------------------
 # B3LYP/6-311++G(d,p) empiricaldispersion=gd3bj scf=xqc pop=npa geom=c
 heck
 ----------------------------------------------------------------------

 ------------------------------------
 CID_75853568_JID_8494_Energie_kation
 ------------------------------------
 Structure from the checkpoint file:  "JID_8494.chk"
 Charge =  1 Multiplicity = 2

 SCF Done:  E(UB3LYP) =  -1434.16687612     A.U. after   28 cycles
 Normal termination of Gaussian 16 at Fri Dec 11 21:09:38 2020.
 Gaussian 16:  ES64L-G16RevA.03 25-Dec-2016

 ----------------------------------------------------------------------
 # B3LYP/6-311++G(d,p) empiricaldispersion=gd3bj scf=xqc pop=npa geom=c
 heck
 ----------------------------------------------------------------------

 -----------------------------------
 CID_75853568_JID_8494_Energie_anion
 -----------------------------------
 Structure from the checkpoint file:  "JID_8494.chk"
 Charge = -1 Multiplicity = 2

                         Standard orientation:
 ---------------------------------------------------------------------
 Center     Atomic      Atomic             Coordinates (Angstroms)
 Number     Number       Type             X           Y           Z
 ---------------------------------------------------------------------
      1          6           0       -3.465503   -1.172646    1.685989
      2          6           0       -2.646233   -2.360172    1.172350
      3          6           0       -2.567732   -2.447079   -0.358616
      4          6           0       -1.906030   -1.265260   -1.095272
      5          7           0       -0.481882   -1.014386   -0.855131
      6          6           0        0.361835   -2.192802   -1.013411
      7          6           0        1.812222   -1.786493   -1.291337
      8          6           0        2.219869   -0.809118   -0.235301
      9          6           0        1.333824   -0.074734    0.502573
     10          6           0       -0.167449   -0.160632    0.296603
     11          6           0       -0.735719    1.220329    0.089898
     12          6           0       -1.358793    2.033030    0.999453
     13          6           0       -1.673165    3.326830    0.476102
     14          6           0       -1.281313    3.472368   -0.824985
     15         16           0       -0.524729    2.032984   -1.439303
     16          6           0        1.975298    0.777614    1.459516
     17          6           0        3.335171    0.672596    1.431669
     18         16           0        3.866921   -0.471506    0.230253
     19          1           0       -3.036036   -0.213939    1.378329
     20          1           0       -3.523174   -1.176169    2.780341
     21          1           0       -4.491015   -1.211336    1.298284
     22          1           0       -1.634463   -2.328832    1.595817
     23          1           0       -3.094394   -3.290602    1.545780
     24          1           0       -2.053919   -3.376440   -0.636218
     25          1           0       -3.587834   -2.539151   -0.759385
     26          1           0       -2.021564   -1.443113   -2.173192
     27          1           0       -2.443262   -0.337323   -0.880861
     28          1           0        0.337859   -2.857858   -0.131031
     29          1           0       -0.028283   -2.766737   -1.860688
     30          1           0        2.456258   -2.674125   -1.289679
     31          1           0        1.879815   -1.331699   -2.288308
     32          1           0       -0.607137   -0.537174    1.237317
     33          1           0       -1.582340    1.716592    2.012992
     34          1           0       -2.175287    4.102832    1.043377
     35          1           0       -1.411802    4.331583   -1.468999
     36          1           0        1.436370    1.447753    2.119707
     37          1           0        4.060612    1.199809    2.035752
 ---------------------------------------------------------------------

 SCF Done:  E(UB3LYP) =  -1434.42786738     A.U. after   33 cycles
 SCF Done:  E(UB3LYP) =  -1434.42786738     a.u. after    1 cycles

 The electronic state is 2-A.
 Alpha  occ. eigenvalues --  -88.77892 -88.76979 -14.20886 -10.12363 -10.10337
 Alpha  occ. eigenvalues --  -10.10213 -10.10004 -10.09892 -10.09512 -10.08804
 Alpha  occ. eigenvalues --  -10.08585 -10.08249 -10.08199 -10.07792 -10.07400
 Alpha  occ. eigenvalues --  -10.06414 -10.06079 -10.05523  -7.86519  -7.85577
 Alpha  occ. eigenvalues --   -5.82810  -5.82451  -5.82111  -5.81861  -5.81494
 Alpha  occ. eigenvalues --   -5.81187  -0.84030  -0.78489  -0.77815  -0.69843
 Alpha  occ. eigenvalues --   -0.69180  -0.67115  -0.63432  -0.63254  -0.61515
 Alpha  occ. eigenvalues --   -0.60855  -0.55849  -0.54647  -0.50937  -0.48126
 Alpha  occ. eigenvalues --   -0.46126  -0.45646  -0.44115  -0.41834  -0.41244
 Alpha  occ. eigenvalues --   -0.40627  -0.38556  -0.36299  -0.35840  -0.34865
 Alpha  occ. eigenvalues --   -0.34175  -0.32448  -0.31473  -0.31012  -0.30340
 Alpha  occ. eigenvalues --   -0.29581  -0.29099  -0.28273  -0.27995  -0.27561
 Alpha  occ. eigenvalues --   -0.27243  -0.26166  -0.26023  -0.25313  -0.24318
 Alpha  occ. eigenvalues --   -0.24061  -0.23414  -0.22576  -0.22209  -0.16094
 Alpha  occ. eigenvalues --   -0.15368  -0.13940  -0.13188  -0.11537   0.04437
 Alpha virt. eigenvalues --    0.06293   0.06471   0.06996   0.07059   0.07568
 Alpha virt. eigenvalues --    0.07948   0.08363   0.08781   0.09247   0.10045
 Alpha virt. eigenvalues --    0.10334   0.10609   0.11137   0.11555   0.11846

  Beta  occ. eigenvalues --  -88.77882 -88.76966 -14.20885 -10.12366 -10.10296
  Beta  occ. eigenvalues --  -10.10150 -10.09978 -10.09827 -10.09439 -10.08793
  Beta  occ. eigenvalues --  -10.08581 -10.08246 -10.08186 -10.07795 -10.07375
  Beta  occ. eigenvalues --  -10.06395 -10.06059 -10.05494  -7.86511  -7.85564
  Beta  occ. eigenvalues --   -5.82807  -5.82448  -5.82080  -5.81855  -5.81488
  Beta  occ. eigenvalues --   -5.81145  -0.84005  -0.78431  -0.77736  -0.69799
  Beta  occ. eigenvalues --   -0.69118  -0.67058  -0.63372  -0.63177  -0.61444
  Beta  occ. eigenvalues --   -0.60796  -0.55792  -0.54598  -0.50864  -0.48058
  Beta  occ. eigenvalues --   -0.46050  -0.45591  -0.44006  -0.41770  -0.41193
  Beta  occ. eigenvalues --   -0.40580  -0.38528  -0.36265  -0.35793  -0.34817
  Beta  occ. eigenvalues --   -0.34136  -0.32390  -0.31426  -0.30949  -0.30284
  Beta  occ. eigenvalues --   -0.29533  -0.29040  -0.28200  -0.27938  -0.27522
  Beta  occ. eigenvalues --   -0.27103  -0.26088  -0.25971  -0.25259  -0.24252
  Beta  occ. eigenvalues --   -0.24003  -0.23382  -0.22528  -0.22171  -0.15939
  Beta  occ. eigenvalues --   -0.15172  -0.13639  -0.12901  -0.11502
  Beta virt. eigenvalues --    0.06409   0.06920   0.07025   0.07083   0.07552
  Beta virt. eigenvalues --    0.07983   0.08340   0.08809   0.09146   0.09483
  Beta virt. eigenvalues --    0.10369   0.10602   0.10805   0.11322   0.11742

 Mulliken charges and spin densities:
               1          2
     1  C    0.787662  -1.406246
     2  C   -0.776213   0.684024
     3  C    0.503808  -0.869480
     4  C   -0.086330  -0.162132
     5  N    0.005448   0.140720
     6  C    0.039330   0.037895
     7  C    0.833481  -1.355383
     8  C    0.640676   0.193833
     9  C   -0.306804  -0.161256
    10  C   -0.285347  -0.403930
    11  C   -0.010507   0.115743
    12  C    0.103608   0.141468
    13  C   -0.042545  -0.098901
    14  C   -0.112867  -0.266842
    15  S   -0.165311   0.067417
    16  C    0.034258   0.018660
    17  C   -0.339527   0.107255
    18  S   -0.547705  -0.124155
    19  H    0.163801  -0.061996
    20  H   -0.230621   0.373688
    21  H   -0.181750   0.314694
    22  H   -0.134180   0.265070
    23  H   -0.428678   0.609350
    24  H   -0.198037   0.339976
    25  H   -0.401800   0.573720
    26  H   -0.225679   0.423655
    27  H    0.172649  -0.040281
    28  H    0.088136   0.015146
    29  H   -0.308159   0.490445
    30  H   -0.005596   0.178943
    31  H   -0.013177   0.194649
    32  H    0.360998  -0.178174
    33  H    0.015260   0.150367
    34  H   -0.259326   0.425171
    35  H    0.039532   0.171933
    36  H    0.097243   0.039171
    37  H    0.174269   0.055780
 Sum of Mulliken charges =  -1.00000   1.00000

 Dipole moment (field-independent basis, Debye):
    X=              6.3439    Y=              3.8246    Z=              0.8230  Tot=              7.4532
 Quadrupole moment (field-independent basis, Debye-Ang):
   XX=           -188.4392   YY=           -182.4656   ZZ=           -162.5785
   XY=            -12.0946   XZ=              7.6544   YZ=             -2.4173

 Summary of Natural Population Analysis:

                                       Natural Population
                Natural  -----------------------------------------------
    Atom  No    Charge         Core      Valence    Rydberg      Total
 -----------------------------------------------------------------------
      C    1   -0.28960      0.99966     2.28422    0.00572     3.28960
      C    2   -0.19243      0.99964     2.18486    0.00793     3.19243
      C    3   -0.19798      0.99962     2.18963    0.00873     3.19798
      C    4   -0.08356      0.99960     2.07160    0.01236     3.08356
      N    5   -0.28446      0.99970     2.77051    0.01424     3.78446
      C    6   -0.07757      0.99961     2.06610    0.01186     3.07757
      C    7   -0.20455      0.99957     2.19465    0.01033     3.20455
      C    8   -0.08145      0.99938     2.06930    0.01277     3.08145
      C    9   -0.04154      0.99939     2.03125    0.01090     3.04154
      C   10   -0.01886      0.99947     2.00617    0.01323     3.01886
      C   11   -0.08705      0.99947     2.07251    0.01507     3.08705
      C   12   -0.13228      0.99944     2.12239    0.01044     3.13228
      C   13   -0.13343      0.99953     2.12251    0.01138     3.13343
      C   14   -0.18695      0.99954     2.17651    0.01090     3.18695
      S   15    0.22046      4.99938     2.76005    0.02012     7.77954
      C   16   -0.11763      0.99949     2.10936    0.00878     3.11763
      C   17   -0.18983      0.99954     2.17893    0.01135     3.18983
      S   18    0.19572      4.99942     2.78417    0.02069     7.80428
      H   19    0.09861      0.00000     0.39976    0.00163     0.40139
      H   20    0.09804      0.00000     0.40091    0.00105     0.40196
      H   21    0.09647      0.00000     0.40245    0.00108     0.40353
      H   22    0.09078      0.00000     0.40756    0.00166     0.40922
      H   23    0.09709      0.00000     0.40158    0.00133     0.40291
      H   24    0.09794      0.00000     0.40039    0.00167     0.40206
      H   25    0.09752      0.00000     0.40113    0.00135     0.40248
      H   26    0.09644      0.00000     0.40225    0.00131     0.40356
      H   27    0.10142      0.00000     0.39705    0.00153     0.39858
      H   28    0.08310      0.00000     0.41523    0.00167     0.41690
      H   29    0.10241      0.00000     0.39592    0.00167     0.39759
      H   30    0.10252      0.00000     0.39643    0.00105     0.39748
      H   31    0.10777      0.00000     0.39055    0.00168     0.39223
      H   32    0.09950      0.00000     0.39772    0.00279     0.40050
      H   33    0.10749      0.00000     0.39133    0.00117     0.39251
      H   34    0.10445      0.00000     0.39464    0.00091     0.39555
      H   35    0.10575      0.00000     0.39342    0.00083     0.39425
      H   36    0.10966      0.00000     0.38931    0.00103     0.39034
      H   37    0.10601      0.00000     0.39317    0.00082     0.39399
 =======================================================================
   * Total *   -0.00000     25.99144    47.76554    0.24303    74.00000

 Normal termination of Gaussian 16 at Fri Dec 11 21:40:14 2020.
