 Gaussian 16, Revision A.03,

 -----------------------------------------------------------
 # opt freq B3LYP/6-31G(d) empiricaldispersion=gd3bj scf=xqc
 -----------------------------------------------------------

 -------------------------------
 CID_152821529_JID_6137_neutraal
 -------------------------------
 Symbolic Z-matrix:
 Charge =  0 Multiplicity = 1

 SCF Done:  E(RB3LYP) =  -1161.21679885     A.U. after   14 cycles
 SCF Done:  E(RB3LYP) =  -1161.22533192     A.U. after   13 cycles
 SCF Done:  E(RB3LYP) =  -1161.22633038     A.U. after   13 cycles
 SCF Done:  E(RB3LYP) =  -1161.22634651     A.U. after   12 cycles
 SCF Done:  E(RB3LYP) =  -1161.22672013     A.U. after   12 cycles
 SCF Done:  E(RB3LYP) =  -1161.22671363     A.U. after   12 cycles
 SCF Done:  E(RB3LYP) =  -1161.22682355     A.U. after   11 cycles
 SCF Done:  E(RB3LYP) =  -1161.22683222     A.U. after   10 cycles
 SCF Done:  E(RB3LYP) =  -1161.22683463     A.U. after    8 cycles
 SCF Done:  E(RB3LYP) =  -1161.22683546     A.U. after    8 cycles
 SCF Done:  E(RB3LYP) =  -1161.22683585     A.U. after    7 cycles
 SCF Done:  E(RB3LYP) =  -1161.22683598     A.U. after    7 cycles
 SCF Done:  E(RB3LYP) =  -1161.22683603     A.U. after    7 cycles
 SCF Done:  E(RB3LYP) =  -1161.22683607     A.U. after    7 cycles
 Optimization completed.
    -- Stationary point found.
 Normal termination of Gaussian 16 at Thu Dec 10 21:12:33 2020.

 --------------------------------------------------------------------
 #N Geom=AllCheck Guess=TCheck SCRF=Check GenChk RB3LYP/6-31G(d) Freq
 --------------------------------------------------------------------

 Structure from the checkpoint file:  "JID_6137.chk"
 -------------------------------
 CID_152821529_JID_6137_neutraal
 -------------------------------
 Charge =  0 Multiplicity = 1

 SCF Done:  E(RB3LYP) =  -1161.22683607     A.U. after    1 cycles

  Exact polarizability: 157.583  -3.793 127.037  12.627   0.912 105.034
 Approx polarizability: 199.893 -15.650 203.407  24.842  -6.029 174.064

                      1                      2                      3
                      A                      A                      A
 Frequencies --     22.2880                29.7674                46.2552
 Red. masses --      8.8230                 4.8387                 5.3381
 Frc consts  --      0.0026                 0.0025                 0.0067
 IR Inten    --      1.5091                 0.3617                 2.5500

                      4                      5                      6
                      A                      A                      A
 Frequencies --     55.0457                69.6291               111.1828
 Red. masses --      4.9347                 5.4036                 4.4157
 Frc consts  --      0.0088                 0.0154                 0.0322
 IR Inten    --      2.0773                 0.7215                 0.9443

                      7                      8                      9
                      A                      A                      A
 Frequencies --    116.4815               144.0180               192.7885
 Red. masses --      4.3797                 6.5887                 3.6733
 Frc consts  --      0.0350                 0.0805                 0.0804
 IR Inten    --      5.7929                 6.6095                 0.0474

                     10                     11                     12
                      A                      A                      A
 Frequencies --    207.1755               211.7661               242.0556
 Red. masses --      1.2607                 2.2940                 3.6057
 Frc consts  --      0.0319                 0.0606                 0.1245
 IR Inten    --      0.7289                 0.3431                 3.1398

                     13                     14                     15
                      A                      A                      A
 Frequencies --    281.1412               297.7031               324.8133
 Red. masses --      2.3330                 3.4218                 2.7838
 Frc consts  --      0.1086                 0.1787                 0.1730
 IR Inten    --      3.4845                 0.6451                 1.2665

                     16                     17                     18
                      A                      A                      A
 Frequencies --    339.1694               365.0115               400.4060
 Red. masses --      2.3672                 4.0241                 3.3836
 Frc consts  --      0.1604                 0.3159                 0.3196
 IR Inten    --      5.5448                 7.6135                23.3340

                     19                     20                     21
                      A                      A                      A
 Frequencies --    424.2565               457.0291               489.4938
 Red. masses --      2.8801                 5.2309                 3.1930
 Frc consts  --      0.3054                 0.6437                 0.4508
 IR Inten    --      8.3753                27.2812                 5.8138

                     22                     23                     24
                      A                      A                      A
 Frequencies --    530.5164               545.4268               588.5851
 Red. masses --      3.2538                 1.2544                 4.7848
 Frc consts  --      0.5396                 0.2199                 0.9766
 IR Inten    --     19.6095                60.6037                12.6069

                     25                     26                     27
                      A                      A                      A
 Frequencies --    591.7762               599.9106               642.4833
 Red. masses --      2.4640                 2.8392                 3.7726
 Frc consts  --      0.5084                 0.6020                 0.9175
 IR Inten    --     35.4896                39.8740                18.4733

                     28                     29                     30
                      A                      A                      A
 Frequencies --    683.7421               706.9177               743.3350
 Red. masses --      4.8500                 2.4204                10.0710
 Frc consts  --      1.3359                 0.7127                 3.2786
 IR Inten    --     14.3651                30.9293                15.7477

                     31                     32                     33
                      A                      A                      A
 Frequencies --    760.0933               787.3574               820.2174
 Red. masses --      1.8548                 2.7357                 2.8229
 Frc consts  --      0.6314                 0.9992                 1.1189
 IR Inten    --     24.7903                 8.7736                 6.2257

                     34                     35                     36
                      A                      A                      A
 Frequencies --    882.1178               895.3110               911.0740
 Red. masses --      2.1518                 3.6739                 1.8959
 Frc consts  --      0.9865                 1.7351                 0.9272
 IR Inten    --     17.5071                14.3565                 3.7110

                     37                     38                     39
                      A                      A                      A
 Frequencies --    966.4761               984.0590               997.5517
 Red. masses --      1.7743                 1.3564                 1.5982
 Frc consts  --      0.9765                 0.7739                 0.9370
 IR Inten    --     17.6668                 3.1269                 9.2484

                     40                     41                     42
                      A                      A                      A
 Frequencies --   1009.6655              1024.9498              1043.8547
 Red. masses --      1.7571                 1.9191                 1.8077
 Frc consts  --      1.0554                 1.1878                 1.1605
 IR Inten    --      4.7239                 0.6011                 4.0385

                     43                     44                     45
                      A                      A                      A
 Frequencies --   1084.4614              1108.7134              1130.1359
 Red. masses --      2.2848                 3.0248                 3.6139
 Frc consts  --      1.5832                 2.1907                 2.7195
 IR Inten    --     62.1372                31.9155                85.8949

                     46                     47                     48
                      A                      A                      A
 Frequencies --   1136.4669              1169.8336              1197.5336
 Red. masses --      2.7394                 1.5773                 1.1529
 Frc consts  --      2.0846                 1.2718                 0.9741
 IR Inten    --     81.7235                14.0229                 3.8714

                     49                     50                     51
                      A                      A                      A
 Frequencies --   1207.2635              1218.4514              1262.2316
 Red. masses --      1.1529                 1.5912                 1.7177
 Frc consts  --      0.9901                 1.3918                 1.6124
 IR Inten    --      3.7337                19.9585                48.3485

                     52                     53                     54
                      A                      A                      A
 Frequencies --   1290.5514              1311.6304              1329.5375
 Red. masses --      1.5735                 2.8858                 1.8354
 Frc consts  --      1.5441                 2.9251                 1.9115
 IR Inten    --     12.0148               124.5691                51.4048

                     55                     56                     57
                      A                      A                      A
 Frequencies --   1338.0778              1353.6694              1360.8845
 Red. masses --      3.2400                 1.8528                 1.2869
 Frc consts  --      3.4179                 2.0003                 1.4043
 IR Inten    --     64.9272               106.6017                 3.2998

                     58                     59                     60
                      A                      A                      A
 Frequencies --   1364.3719              1373.7873              1395.5763
 Red. masses --      2.0651                 1.2348                 1.3876
 Frc consts  --      2.2650                 1.3730                 1.5923
 IR Inten    --     50.9891                10.4180                30.3861

                     61                     62                     63
                      A                      A                      A
 Frequencies --   1411.2007              1430.9234              1431.2890
 Red. masses --      1.4707                 1.3879                 1.4112
 Frc consts  --      1.7256                 1.6743                 1.7034
 IR Inten    --      8.3287                 4.2953                 0.4456

                     64                     65                     66
                      A                      A                      A
 Frequencies --   1469.3015              1480.4362              1486.4070
 Red. masses --      2.3961                 1.0759                 1.0587
 Frc consts  --      3.0478                 1.3893                 1.3782
 IR Inten    --    144.2518                 1.9269                 9.6791

                     67                     68                     69
                      A                      A                      A
 Frequencies --   1487.4940              1508.4129              1522.9157
 Red. masses --      1.0613                 1.0786                 1.0883
 Frc consts  --      1.3835                 1.4460                 1.4872
 IR Inten    --      8.6685                 3.5968                 3.8525

                     70                     71                     72
                      A                      A                      A
 Frequencies --   1527.2442              1530.1941              1534.5173
 Red. masses --      1.1733                 1.1026                 1.0926
 Frc consts  --      1.6124                 1.5211                 1.5158
 IR Inten    --     65.2062                29.2456                 2.1325

                     73                     74                     75
                      A                      A                      A
 Frequencies --   1838.4264              1880.8688              3038.1398
 Red. masses --      9.4812                12.3856                 1.0647
 Frc consts  --     18.8802                25.8156                 5.7901
 IR Inten    --    744.5186               192.9276                 7.7736

                     76                     77                     78
                      A                      A                      A
 Frequencies --   3046.2726              3051.6192              3054.1752
 Red. masses --      1.0648                 1.0612                 1.0665
 Frc consts  --      5.8217                 5.8223                 5.8613
 IR Inten    --     34.9747                34.2336                16.3041

                     79                     80                     81
                      A                      A                      A
 Frequencies --   3073.9074              3075.5110              3081.8576
 Red. masses --      1.0818                 1.0781                 1.0620
 Frc consts  --      6.0227                 6.0084                 5.9429
 IR Inten    --     13.5476                29.5273                 9.3905

                     82                     83                     84
                      A                      A                      A
 Frequencies --   3085.0981              3088.1777              3092.3840
 Red. masses --      1.1067                 1.0378                 1.0886
 Frc consts  --      6.2060                 5.8314                 6.1334
 IR Inten    --     11.7009                 5.4455                44.1130

                     85                     86                     87
                      A                      A                      A
 Frequencies --   3119.9024              3135.1683              3137.3649
 Red. masses --      1.1025                 1.1028                 1.0957
 Frc consts  --      6.3226                 6.3864                 6.3545
 IR Inten    --      2.3834                 8.9063                 7.7877

                     88                     89                     90
                      A                      A                      A
 Frequencies --   3183.8953              3200.7136              3651.2374
 Red. masses --      1.1061                 1.1066                 1.0800
 Frc consts  --      6.6064                 6.6792                 8.4833
 IR Inten    --      1.0918                 2.6316                82.6310

 - Thermochemistry -
 -------------------
 Temperature   298.150 Kelvin.  Pressure   1.00000 Atm.
 Atom     1 has atomic number  6 and mass  12.00000

 Molecular mass:   248.08308 amu.
 Principal axes and moments of inertia in atomic units:
                           1         2         3
     Eigenvalues --  1435.902979818.82515**********
           X            0.99999   0.00371   0.00170
           Y           -0.00382   0.99788   0.06497
           Z           -0.00145  -0.06497   0.99789
 This molecule is an asymmetric top.
 Rotational symmetry number  1.
 Warning -- assumption of classical behavior for rotation
           may cause significant error
 Rotational temperatures (Kelvin)      0.06032     0.00882     0.00852
 Rotational constants (GHZ):           1.25687     0.18380     0.17755
 Zero-point vibrational energy     692824.0 (Joules/Mol)
                                  165.58892 (Kcal/Mol)
 Warning -- explicit consideration of  26 degrees of freedom as
           vibrations may cause significant error
 Vibrational temperatures:     32.07    42.83    66.55    79.20   100.18
          (Kelvin)            159.97   167.59   207.21   277.38   298.08
                              304.68   348.26   404.50   428.33   467.33
                              487.99   525.17   576.09   610.41   657.56
                              704.27   763.29   784.75   846.84   851.43
                              863.14   924.39   983.75  1017.10  1069.49
                             1093.60  1132.83  1180.11  1269.17  1288.15
                             1310.83  1390.54  1415.84  1435.25  1452.68
                             1474.67  1501.87  1560.30  1595.19  1626.01
                             1635.12  1683.13  1722.98  1736.98  1753.08
                             1816.07  1856.82  1887.14  1912.91  1925.20
                             1947.63  1958.01  1963.03  1976.57  2007.92
                             2030.40  2058.78  2059.31  2114.00  2130.02
                             2138.61  2140.17  2170.27  2191.14  2197.36
                             2201.61  2207.83  2645.09  2706.15  4371.21
                             4382.91  4390.60  4394.28  4422.67  4424.97
                             4434.11  4438.77  4443.20  4449.25  4488.84
                             4510.81  4513.97  4580.92  4605.11  5253.32

 Zero-point correction=                           0.263883 (Hartree/Particle)
 Thermal correction to Energy=                    0.280546
 Thermal correction to Enthalpy=                  0.281490
 Thermal correction to Gibbs Free Energy=         0.217302
 Sum of electronic and zero-point Energies=          -1160.962953
 Sum of electronic and thermal Energies=             -1160.946290
 Sum of electronic and thermal Enthalpies=           -1160.945346
 Sum of electronic and thermal Free Energies=        -1161.009534

                     E (Thermal)             CV                S
                      KCal/Mol        Cal/Mol-Kelvin    Cal/Mol-Kelvin
 Total                  176.045             61.389            135.094
 Electronic               0.000              0.000              0.000
 Translational            0.889              2.981             42.426
 Rotational               0.889              2.981             33.327
 Vibrational            174.268             55.428             59.341
 Vibration     1          0.593              1.985              6.419
 Vibration     2          0.594              1.984              5.845
 Vibration     3          0.595              1.979              4.971
 Vibration     4          0.596              1.976              4.627
 Vibration     5          0.598              1.969              4.164
 Vibration     6          0.607              1.940              3.248
 Vibration     7          0.608              1.936              3.158
 Vibration     8          0.616              1.909              2.750
 Vibration     9          0.635              1.850              2.201
 Vibration    10          0.641              1.830              2.068
 Vibration    11          0.643              1.823              2.028
 Vibration    12          0.658              1.776              1.788
 Vibration    13          0.681              1.709              1.527
 Vibration    14          0.691              1.678              1.430
 Vibration    15          0.709              1.626              1.286
 Vibration    16          0.719              1.597              1.216
 Vibration    17          0.738              1.544              1.101
 Vibration    18          0.766              1.469              0.961
 Vibration    19          0.786              1.417              0.878
 Vibration    20          0.815              1.345              0.775
 Vibration    21          0.845              1.273              0.685
 Vibration    22          0.885              1.182              0.586
 Vibration    23          0.901              1.150              0.554
 Vibration    24          0.946              1.056              0.470
 Vibration    25          0.949              1.049              0.464
 Vibration    26          0.958              1.032              0.450

                           ! Non-Optimized Parameters !
 Normal termination of Gaussian 16 at Thu Dec 10 21:22:30 2020.

 ----------------------------------------------------------------------
 # B3LYP/6-311++G(d,p) empiricaldispersion=gd3bj scf=xqc pop=npa geom=c
 heck
 ----------------------------------------------------------------------

 ---------------------------------------
 CID_152821529_JID_6137_Energie_neutraal
 ---------------------------------------
 Structure from the checkpoint file:  "JID_6137.chk"
 Charge =  0 Multiplicity = 1

 SCF Done:  E(RB3LYP) =  -1161.48211350     A.U. after   15 cycles
 Normal termination of Gaussian 16 at Thu Dec 10 21:26:43 2020.

 ----------------------------------------------------------------------
 # B3LYP/6-311++G(d,p) empiricaldispersion=gd3bj scf=xqc pop=npa geom=c
 heck
 ----------------------------------------------------------------------

 -------------------------------------
 CID_152821529_JID_6137_Energie_kation
 -------------------------------------
 Structure from the checkpoint file:  "JID_6137.chk"
 Charge =  1 Multiplicity = 2

 SCF Done:  E(UB3LYP) =  -1161.13872749     A.U. after   33 cycles
 SCF Done:  E(UB3LYP) =  -1161.13886098     a.u. after    5 cycles
 Normal termination of Gaussian 16 at Thu Dec 10 22:14:38 2020.
 Gaussian 16:  ES64L-G16RevA.03 25-Dec-2016

 ----------------------------------------------------------------------
 # B3LYP/6-311++G(d,p) empiricaldispersion=gd3bj scf=xqc pop=npa geom=c
 heck
 ----------------------------------------------------------------------

 ------------------------------------
 CID_152821529_JID_6137_Energie_anion
 ------------------------------------
 Structure from the checkpoint file:  "JID_6137.chk"
 Charge = -1 Multiplicity = 2

                         Standard orientation:
 ---------------------------------------------------------------------
 Center     Atomic      Atomic             Coordinates (Angstroms)
 Number     Number       Type             X           Y           Z
 ---------------------------------------------------------------------
      1          6           0       -3.593103   -1.613706   -0.292268
      2         16           0       -3.665886    0.123754    0.209742
      3          8           0       -4.803376    0.720433   -0.508912
      4          8           0       -3.596808    0.165338    1.680134
      5          6           0       -2.150392    0.889720   -0.464565
      6          6           0       -0.932163    0.828419    0.455685
      7          6           0       -0.330157   -0.563416    0.698655
      8          6           0        0.101358   -1.331772   -0.557821
      9          6           0        1.144128   -0.603052   -1.417678
     10          7           0        2.342122   -0.240227   -0.684820
     11          6           0        3.298706   -1.188142   -0.148072
     12          6           0        4.339316   -0.291325    0.533421
     13          8           0        5.342002   -0.637888    1.115659
     14          7           0        3.877726    0.994756    0.340703
     15          6           0        2.672344    1.056642   -0.386942
     16          8           0        2.067939    2.072838   -0.676367
     17          1           0       -4.513780   -2.065895    0.083354
     18          1           0       -2.726156   -2.099832    0.155390
     19          1           0       -3.566078   -1.673627   -1.382003
     20          1           0       -1.986047    0.444967   -1.451564
     21          1           0       -2.463976    1.926169   -0.622839
     22          1           0       -0.171816    1.492884    0.030710
     23          1           0       -1.219468    1.254685    1.421774
     24          1           0        0.542526   -0.437310    1.351496
     25          1           0       -1.038164   -1.173360    1.271556
     26          1           0        0.497041   -2.311272   -0.258049
     27          1           0       -0.760235   -1.546990   -1.202811
     28          1           0        1.425921   -1.232415   -2.272049
     29          1           0        0.741374    0.331076   -1.815893
     30          1           0        2.856664   -1.868309    0.590799
     31          1           0        3.774139   -1.794039   -0.929878
     32          1           0        4.345030    1.825535    0.676358
 ---------------------------------------------------------------------

 SCF Done:  E(UB3LYP) =  -1161.48241037     A.U. after   33 cycles
 SCF Done:  E(UB3LYP) =  -1161.48241037     a.u. after    1 cycles

 The electronic state is 2-A.
 Alpha  occ. eigenvalues --  -88.95579 -19.03113 -19.02504 -19.02351 -19.01834
 Alpha  occ. eigenvalues --  -14.28351 -14.26709 -10.22720 -10.21277 -10.14114
 Alpha  occ. eigenvalues --  -10.12409 -10.12015 -10.11813 -10.09127 -10.08615
 Alpha  occ. eigenvalues --  -10.08387  -8.02078  -5.98334  -5.98236  -5.98178
 Alpha  occ. eigenvalues --   -1.01684  -0.99711  -0.97153  -0.91399  -0.90030
 Alpha  occ. eigenvalues --   -0.83780  -0.73910  -0.70102  -0.67893  -0.65893
 Alpha  occ. eigenvalues --   -0.62782  -0.57831  -0.55052  -0.53317  -0.50395
 Alpha  occ. eigenvalues --   -0.47439  -0.45113  -0.43156  -0.42327  -0.40844
 Alpha  occ. eigenvalues --   -0.39533  -0.38836  -0.38258  -0.37900  -0.37145
 Alpha  occ. eigenvalues --   -0.35936  -0.35188  -0.34668  -0.34355  -0.33867
 Alpha  occ. eigenvalues --   -0.33336  -0.32295  -0.31242  -0.30321  -0.29307
 Alpha  occ. eigenvalues --   -0.26235  -0.25459  -0.24638  -0.24101  -0.23023
 Alpha  occ. eigenvalues --   -0.21855  -0.21612  -0.21481  -0.20109  -0.18868
 Alpha  occ. eigenvalues --   -0.17013   0.03469
 Alpha virt. eigenvalues --    0.05826   0.06214   0.07043   0.07417   0.08326
 Alpha virt. eigenvalues --    0.09057   0.09761   0.10062   0.10437   0.10887
 Alpha virt. eigenvalues --    0.11361   0.12313   0.12371   0.12702   0.13348

  Beta  occ. eigenvalues --  -88.95577 -19.03079 -19.02494 -19.02345 -19.01806
  Beta  occ. eigenvalues --  -14.28350 -14.26716 -10.22693 -10.21224 -10.14074
  Beta  occ. eigenvalues --  -10.12387 -10.11979 -10.11761 -10.09123 -10.08605
  Beta  occ. eigenvalues --  -10.08345  -8.02075  -5.98332  -5.98234  -5.98175
  Beta  occ. eigenvalues --   -1.01662  -0.99656  -0.97089  -0.91376  -0.89999
  Beta  occ. eigenvalues --   -0.83763  -0.73881  -0.70050  -0.67835  -0.65816
  Beta  occ. eigenvalues --   -0.62724  -0.57776  -0.54980  -0.53271  -0.50337
  Beta  occ. eigenvalues --   -0.47374  -0.45067  -0.43066  -0.42285  -0.40809
  Beta  occ. eigenvalues --   -0.39489  -0.38801  -0.38183  -0.37831  -0.37105
  Beta  occ. eigenvalues --   -0.35893  -0.35141  -0.34609  -0.34315  -0.33771
  Beta  occ. eigenvalues --   -0.33296  -0.32183  -0.31199  -0.30225  -0.29272
  Beta  occ. eigenvalues --   -0.26201  -0.25420  -0.24595  -0.24078  -0.23010
  Beta  occ. eigenvalues --   -0.21827  -0.21580  -0.21410  -0.20084  -0.18836
  Beta  occ. eigenvalues --   -0.16968
  Beta virt. eigenvalues --    0.06000   0.06463   0.06680   0.07789   0.08138
  Beta virt. eigenvalues --    0.08494   0.09676   0.10251   0.10297   0.10831
  Beta virt. eigenvalues --    0.10974   0.11664   0.12317   0.12576   0.12942

 Mulliken charges and spin densities:
               1          2
     1  C    0.470938  -1.118646
     2  S    0.123988   0.242106
     3  O   -0.207133   0.019177
     4  O   -0.227301   0.016870
     5  C   -0.451447  -0.238472
     6  C   -0.191673  -0.154866
     7  C    0.096609  -0.173495
     8  C    0.338928  -0.660843
     9  C    0.380963  -0.836218
    10  N   -0.121328   0.092294
    11  C    0.678506  -0.911531
    12  C    0.259738  -0.124977
    13  O   -0.365807   0.026704
    14  N   -0.255843  -0.009368
    15  C    0.161484   0.011795
    16  O   -0.363458   0.009211
    17  H    0.029408   0.193098
    18  H   -0.246459   0.457663
    19  H   -0.264061   0.485596
    20  H    0.077558   0.182941
    21  H    0.183122   0.056192
    22  H    0.145673   0.040325
    23  H    0.195888   0.023770
    24  H    0.011444   0.156481
    25  H    0.231441  -0.036371
    26  H   -0.473935   0.676207
    27  H   -0.262709   0.401644
    28  H   -0.800863   1.027363
    29  H    0.023287   0.184683
    30  H    0.097768   0.112857
    31  H   -0.492834   0.719708
    32  H    0.218110   0.128101
 Sum of Mulliken charges =  -1.00000   1.00000

 Dipole moment (field-independent basis, Debye):
    X=              0.3830    Y=              4.5585    Z=              3.2111  Tot=              5.5891
 Quadrupole moment (field-independent basis, Debye-Ang):
   XX=           -203.0825   YY=           -146.9893   ZZ=           -144.8317
   XY=             13.9968   XZ=              3.1169   YZ=             -8.3465

 Summary of Natural Population Analysis:

                                       Natural Population
                Natural  -----------------------------------------------
    Atom  No    Charge         Core      Valence    Rydberg      Total
 -----------------------------------------------------------------------
      C    1   -0.39150      0.99961     2.38413    0.00777     3.39150
      S    2    1.01449      4.99932     1.89195    0.09424     6.98551
      O    3   -0.47255      0.99991     3.46675    0.00589     4.47255
      O    4   -0.47123      0.99991     3.46569    0.00563     4.47123
      C    5   -0.28825      0.99957     2.27716    0.01151     3.28825
      C    6   -0.21086      0.99960     2.20275    0.00851     3.21086
      C    7   -0.19404      0.99962     2.18572    0.00870     3.19404
      C    8   -0.20133      0.99962     2.19080    0.01091     3.20133
      C    9   -0.08573      0.99960     2.07323    0.01290     3.08573
      N   10   -0.26044      0.99964     2.74876    0.01204     3.76044
      C   11   -0.12204      0.99959     2.11266    0.00979     3.12204
      C   12    0.35235      0.99971     1.62592    0.02202     2.64765
      O   13   -0.29777      0.99987     3.29201    0.00589     4.29777
      N   14   -0.33045      0.99964     2.82328    0.00752     3.83045
      C   15    0.41460      0.99966     1.56294    0.02280     2.58540
      O   16   -0.32322      0.99987     3.31787    0.00548     4.32322
      H   17    0.11841      0.00000     0.38065    0.00094     0.38159
      H   18    0.11606      0.00000     0.38236    0.00157     0.38394
      H   19    0.11826      0.00000     0.38004    0.00170     0.38174
      H   20    0.11498      0.00000     0.38378    0.00124     0.38502
      H   21    0.11929      0.00000     0.37976    0.00095     0.38071
      H   22    0.11760      0.00000     0.38094    0.00146     0.38240
      H   23    0.10921      0.00000     0.38969    0.00110     0.39079
      H   24    0.09908      0.00000     0.39963    0.00129     0.40092
      H   25    0.10119      0.00000     0.39753    0.00128     0.39881
      H   26    0.10342      0.00000     0.39407    0.00252     0.39658
      H   27    0.10285      0.00000     0.39397    0.00318     0.39715
      H   28    0.10616      0.00000     0.38973    0.00411     0.39384
      H   29    0.10841      0.00000     0.39003    0.00156     0.39159
      H   30    0.10997      0.00000     0.38885    0.00117     0.39003
      H   31    0.11688      0.00000     0.38003    0.00309     0.38312
      H   32    0.20622      0.00000     0.29169    0.00209     0.29378
 =======================================================================
   * Total *   -0.00000     19.99475    45.72441    0.28084    66.00000

 Normal termination of Gaussian 16 at Thu Dec 10 22:27:05 2020.
