 Gaussian 16, Revision A.03,

 -----------------------------------------------------------
 # opt freq B3LYP/6-31G(d) empiricaldispersion=gd3bj scf=xqc
 -----------------------------------------------------------

 -------------------------------
 CID_149446248_JID_2956_neutraal
 -------------------------------
 Symbolic Z-matrix:
 Charge =  0 Multiplicity = 1

 SCF Done:  E(RB3LYP) =  -557.174657699     A.U. after   14 cycles
 SCF Done:  E(RB3LYP) =  -557.179249863     A.U. after   12 cycles
 SCF Done:  E(RB3LYP) =  -557.180384008     A.U. after   12 cycles
 SCF Done:  E(RB3LYP) =  -557.181196007     A.U. after   11 cycles
 SCF Done:  E(RB3LYP) =  -557.181364530     A.U. after   10 cycles
 SCF Done:  E(RB3LYP) =  -557.181396026     A.U. after   11 cycles
 SCF Done:  E(RB3LYP) =  -557.181420776     A.U. after   10 cycles
 SCF Done:  E(RB3LYP) =  -557.181424577     A.U. after    8 cycles
 SCF Done:  E(RB3LYP) =  -557.181426080     A.U. after    8 cycles
 SCF Done:  E(RB3LYP) =  -557.181427163     A.U. after    8 cycles
 SCF Done:  E(RB3LYP) =  -557.181428828     A.U. after    9 cycles
 SCF Done:  E(RB3LYP) =  -557.181429790     A.U. after    8 cycles
 SCF Done:  E(RB3LYP) =  -557.181430375     A.U. after    8 cycles
 SCF Done:  E(RB3LYP) =  -557.181430516     A.U. after    7 cycles
 SCF Done:  E(RB3LYP) =  -557.181430555     A.U. after    6 cycles
 Optimization completed.
    -- Stationary point found.
 Normal termination of Gaussian 16 at Wed Dec  9 18:22:00 2020.

 --------------------------------------------------------------------
 #N Geom=AllCheck Guess=TCheck SCRF=Check GenChk RB3LYP/6-31G(d) Freq
 --------------------------------------------------------------------

 Structure from the checkpoint file:  "JID_2956.chk"
 -------------------------------
 CID_149446248_JID_2956_neutraal
 -------------------------------
 Charge =  0 Multiplicity = 1

 SCF Done:  E(RB3LYP) =  -557.181430555     A.U. after    1 cycles

  Exact polarizability: 145.657  -0.610 104.263  -9.018  -4.872  79.940
 Approx polarizability: 186.606  -4.242 165.644 -16.831 -13.571 120.996

                      1                      2                      3
                      A                      A                      A
 Frequencies --     52.9388                61.7019                81.6139
 Red. masses --      3.9077                 3.8001                 1.2204
 Frc consts  --      0.0065                 0.0085                 0.0048
 IR Inten    --      1.9814                 1.1362                 3.4618

                      4                      5                      6
                      A                      A                      A
 Frequencies --    107.2732               139.5214               168.1698
 Red. masses --      2.1424                 2.9675                 2.3256
 Frc consts  --      0.0145                 0.0340                 0.0388
 IR Inten    --      3.6851                 2.5323                 1.8909

                      7                      8                      9
                      A                      A                      A
 Frequencies --    216.4380               237.1583               299.9343
 Red. masses --      2.8480                 3.4023                 1.2916
 Frc consts  --      0.0786                 0.1127                 0.0685
 IR Inten    --      3.1973                 8.2575                50.0500

                     10                     11                     12
                      A                      A                      A
 Frequencies --    310.9783               330.0705               348.0397
 Red. masses --      2.4993                 2.5756                 1.9392
 Frc consts  --      0.1424                 0.1653                 0.1384
 IR Inten    --      2.2650                 8.0655                90.2300

                     13                     14                     15
                      A                      A                      A
 Frequencies --    365.0304               373.5503               414.6098
 Red. masses --      3.1711                 1.5572                 3.7070
 Frc consts  --      0.2490                 0.1280                 0.3755
 IR Inten    --      8.9535                31.2708                17.0628

                     16                     17                     18
                      A                      A                      A
 Frequencies --    465.4715               499.3700               512.3528
 Red. masses --      2.7327                 4.0260                 2.5488
 Frc consts  --      0.3488                 0.5915                 0.3942
 IR Inten    --      1.4198                12.7633                13.9987

                     19                     20                     21
                      A                      A                      A
 Frequencies --    572.0546               639.3814               667.7002
 Red. masses --      2.7980                 3.7130                 5.3584
 Frc consts  --      0.5395                 0.8943                 1.4075
 IR Inten    --      7.3087                 7.3619                 7.8397

                     22                     23                     24
                      A                      A                      A
 Frequencies --    743.4040               790.4745               853.2704
 Red. masses --      4.0169                 2.0472                 1.6073
 Frc consts  --      1.3079                 0.7537                 0.6895
 IR Inten    --     11.0885                 0.1988                13.9061

                     25                     26                     27
                      A                      A                      A
 Frequencies --    864.9886               899.3277               918.2551
 Red. masses --      1.8250                 1.6376                 1.5204
 Frc consts  --      0.8045                 0.7804                 0.7553
 IR Inten    --     23.6410                86.1130                32.5194

                     28                     29                     30
                      A                      A                      A
 Frequencies --    934.8395               963.3369              1009.8804
 Red. masses --      2.1604                 1.9428                 2.1457
 Frc consts  --      1.1124                 1.0623                 1.2893
 IR Inten    --      4.6853                 9.0379                12.8149

                     31                     32                     33
                      A                      A                      A
 Frequencies --   1030.0028              1056.5867              1080.2473
 Red. masses --      1.7979                 1.9234                 1.7774
 Frc consts  --      1.1238                 1.2651                 1.2220
 IR Inten    --     14.4684                22.6620                 6.3420

                     34                     35                     36
                      A                      A                      A
 Frequencies --   1112.0285              1129.1921              1136.9509
 Red. masses --      2.3060                 1.8180                 2.0025
 Frc consts  --      1.6801                 1.3658                 1.5251
 IR Inten    --     12.4620                53.4319                45.6011

                     37                     38                     39
                      A                      A                      A
 Frequencies --   1171.5639              1204.2209              1211.2912
 Red. masses --      3.0946                 1.3606                 1.3005
 Frc consts  --      2.5026                 1.1625                 1.1242
 IR Inten    --    232.2262                32.0925                 8.2305

                     40                     41                     42
                      A                      A                      A
 Frequencies --   1233.1216              1267.0885              1273.4594
 Red. masses --      1.9656                 1.8601                 1.6100
 Frc consts  --      1.7610                 1.7596                 1.5383
 IR Inten    --     33.6887                73.0818                 4.5279

                     43                     44                     45
                      A                      A                      A
 Frequencies --   1305.1746              1325.4852              1374.0766
 Red. masses --      1.3462                 1.4134                 1.1464
 Frc consts  --      1.3511                 1.4631                 1.2753
 IR Inten    --     47.6621                52.7130                13.1381

                     46                     47                     48
                      A                      A                      A
 Frequencies --   1381.2635              1410.5363              1421.9860
 Red. masses --      1.5453                 1.4674                 2.1157
 Frc consts  --      1.7370                 1.7202                 2.5206
 IR Inten    --     17.8768                54.7185                 2.8812

                     49                     50                     51
                      A                      A                      A
 Frequencies --   1427.7876              1449.7539              1461.8685
 Red. masses --      1.6073                 1.4790                 1.4508
 Frc consts  --      1.9305                 1.8315                 1.8268
 IR Inten    --     21.2181                 4.5920                 4.7585

                     52                     53                     54
                      A                      A                      A
 Frequencies --   1499.7268              1505.8499              1516.2786
 Red. masses --      1.0464                 1.0805                 1.0929
 Frc consts  --      1.3867                 1.4436                 1.4805
 IR Inten    --      7.3861                 2.2869                 0.6896

                     55                     56                     57
                      A                      A                      A
 Frequencies --   1521.7862              1525.6031              1530.5449
 Red. masses --      1.0973                 1.1013                 1.0776
 Frc consts  --      1.4973                 1.5102                 1.4873
 IR Inten    --      3.0423                 0.8464                 2.9952

                     58                     59                     60
                      A                      A                      A
 Frequencies --   1698.4990              1703.9132              1748.6889
 Red. masses --      2.9504                 1.3985                 6.8822
 Frc consts  --      5.0149                 2.3923                12.3994
 IR Inten    --     82.2936                67.7842               136.3698

                     61                     62                     63
                      A                      A                      A
 Frequencies --   2976.0886              2979.6050              3011.1799
 Red. masses --      1.0731                 1.0707                 1.0380
 Frc consts  --      5.5999                 5.6008                 5.5453
 IR Inten    --     54.7710                69.2548                73.5490

                     64                     65                     66
                      A                      A                      A
 Frequencies --   3034.5391              3053.5689              3063.0481
 Red. masses --      1.0653                 1.0997                 1.0800
 Frc consts  --      5.7796                 6.0416                 5.9703
 IR Inten    --     16.4775                29.5790                12.6548

                     67                     68                     69
                      A                      A                      A
 Frequencies --   3064.1852              3077.6692              3078.9520
 Red. masses --      1.0874                 1.0711                 1.0980
 Frc consts  --      6.0155                 5.9776                 6.1326
 IR Inten    --     27.1091                58.6483                66.7365

                     70                     71                     72
                      A                      A                      A
 Frequencies --   3090.7048              3127.0612              3222.6226
 Red. masses --      1.0961                 1.1079                 1.0911
 Frc consts  --      6.1692                 6.3832                 6.6766
 IR Inten    --     33.6104                35.5509                 7.5937

                     73                     74                     75
                      A                      A                      A
 Frequencies --   3473.4092              3556.6924              3759.3086
 Red. masses --      1.0502                 1.0927                 1.0647
 Frc consts  --      7.4654                 8.1441                 8.8657
 IR Inten    --      6.5510                 1.7409                16.0756

 - Thermochemistry -
 -------------------
 Temperature   298.150 Kelvin.  Pressure   1.00000 Atm.
 Atom     1 has atomic number  6 and mass  12.00000

 Molecular mass:   169.11028 amu.
 Principal axes and moments of inertia in atomic units:
                           1         2         3
     Eigenvalues --  1054.354463432.720033717.29138
           X            0.99989   0.01456  -0.00100
           Y           -0.01454   0.99981   0.01285
           Z            0.00119  -0.01283   0.99992
 This molecule is an asymmetric top.
 Rotational symmetry number  1.
 Warning -- assumption of classical behavior for rotation
           may cause significant error
 Rotational temperatures (Kelvin)      0.08215     0.02523     0.02330
 Rotational constants (GHZ):           1.71170     0.52575     0.48550
 Zero-point vibrational energy     616820.6 (Joules/Mol)
                                  147.42366 (Kcal/Mol)
 Warning -- explicit consideration of  19 degrees of freedom as
           vibrations may cause significant error
 Vibrational temperatures:     76.17    88.78   117.42   154.34   200.74
          (Kelvin)            241.96   311.41   341.22   431.54   447.43
                              474.90   500.75   525.20   537.46   596.53
                              669.71   718.48   737.16   823.06   919.93
                              960.67  1069.59  1137.32  1227.67  1244.53
                             1293.93  1321.16  1345.03  1386.03  1452.99
                             1481.94  1520.19  1554.23  1599.96  1624.66
                             1635.82  1685.62  1732.61  1742.78  1774.19
                             1823.06  1832.22  1877.86  1907.08  1976.99
                             1987.33  2029.45  2045.92  2054.27  2085.87
                             2103.30  2157.77  2166.58  2181.59  2189.51
                             2195.00  2202.11  2443.76  2451.55  2515.97
                             4281.93  4286.99  4332.42  4366.02  4393.40
                             4407.04  4408.68  4428.08  4429.93  4446.83
                             4499.14  4636.64  4997.46  5117.29  5408.81

 Zero-point correction=                           0.234935 (Hartree/Particle)
 Thermal correction to Energy=                    0.247779
 Thermal correction to Enthalpy=                  0.248724
 Thermal correction to Gibbs Free Energy=         0.195779
 Sum of electronic and zero-point Energies=           -556.946496
 Sum of electronic and thermal Energies=              -556.933651
 Sum of electronic and thermal Enthalpies=            -556.932707
 Sum of electronic and thermal Free Energies=         -556.985651

                     E (Thermal)             CV                S
                      KCal/Mol        Cal/Mol-Kelvin    Cal/Mol-Kelvin
 Total                  155.484             48.107            111.431
 Electronic               0.000              0.000              0.000
 Translational            0.889              2.981             41.284
 Rotational               0.889              2.981             30.976
 Vibrational            153.707             42.145             39.170
 Vibration     1          0.596              1.976              4.704
 Vibration     2          0.597              1.973              4.402
 Vibration     3          0.600              1.962              3.852
 Vibration     4          0.606              1.943              3.318
 Vibration     5          0.615              1.914              2.810
 Vibration     6          0.625              1.882              2.456
 Vibration     7          0.645              1.816              1.989
 Vibration     8          0.656              1.784              1.824
 Vibration     9          0.692              1.674              1.417
 Vibration    10          0.700              1.653              1.357
 Vibration    11          0.713              1.615              1.260
 Vibration    12          0.726              1.579              1.175
 Vibration    13          0.738              1.544              1.101
 Vibration    14          0.745              1.526              1.065
 Vibration    15          0.778              1.439              0.910
 Vibration    16          0.823              1.327              0.750
 Vibration    17          0.855              1.251              0.660
 Vibration    18          0.867              1.223              0.628
 Vibration    19          0.928              1.092              0.500

 Optimization completed.
    -- Stationary point found.
 Normal termination of Gaussian 16 at Wed Dec  9 18:28:52 2020.

 ----------------------------------------------------------------------
 # B3LYP/6-311++G(d,p) empiricaldispersion=gd3bj scf=xqc pop=npa geom=c
 heck
 ----------------------------------------------------------------------

 ---------------------------------------
 CID_149446248_JID_2956_Energie_neutraal
 ---------------------------------------
 Structure from the checkpoint file:  "JID_2956.chk"
 Charge =  0 Multiplicity = 1

 SCF Done:  E(RB3LYP) =  -557.354681609     A.U. after   15 cycles
 Normal termination of Gaussian 16 at Wed Dec  9 18:32:02 2020.

 ----------------------------------------------------------------------
 # B3LYP/6-311++G(d,p) empiricaldispersion=gd3bj scf=xqc pop=npa geom=c
 heck
 ----------------------------------------------------------------------

 -------------------------------------
 CID_149446248_JID_2956_Energie_kation
 -------------------------------------
 Structure from the checkpoint file:  "JID_2956.chk"
 Charge =  1 Multiplicity = 2

 SCF Done:  E(UB3LYP) =  -557.098672346     A.U. after   21 cycles
 Normal termination of Gaussian 16 at Wed Dec  9 18:37:54 2020.
 Gaussian 16:  ES64L-G16RevA.03 25-Dec-2016

 ----------------------------------------------------------------------
 # B3LYP/6-311++G(d,p) empiricaldispersion=gd3bj scf=xqc pop=npa geom=c
 heck
 ----------------------------------------------------------------------

 ------------------------------------
 CID_149446248_JID_2956_Energie_anion
 ------------------------------------
 Structure from the checkpoint file:  "JID_2956.chk"
 Charge = -1 Multiplicity = 2

                         Standard orientation:
 ---------------------------------------------------------------------
 Center     Atomic      Atomic             Coordinates (Angstroms)
 Number     Number       Type             X           Y           Z
 ---------------------------------------------------------------------
      1          6           0       -3.608160   -0.530803    0.694922
      2          6           0       -2.211271   -0.366605    0.167576
      3          6           0       -1.669277    0.793835   -0.259393
      4          6           0       -0.316344    0.871706   -0.805139
      5          6           0        0.535300   -0.161211   -0.678271
      6          6           0        0.122277   -1.403251    0.076214
      7          6           0       -1.394362   -1.629513   -0.020554
      8          8           0        1.776372   -0.079168   -1.250173
      9          6           0        2.903584   -0.549069   -0.499927
     10          6           0        3.355780    0.466459    0.543305
     11          7           0        2.375881    0.579453    1.627937
     12          8           0       -2.285540    2.023249   -0.243267
     13          1           0       -4.179780    0.404832    0.743446
     14          1           0       -3.609074   -0.951672    1.710311
     15          1           0       -4.190593   -1.222748    0.068358
     16          1           0       -0.013269    1.787577   -1.300443
     17          1           0        0.431551   -1.290133    1.124880
     18          1           0        0.649587   -2.278365   -0.318738
     19          1           0       -1.633802   -2.074414   -1.001863
     20          1           0       -1.685731   -2.377944    0.726657
     21          1           0        2.683984   -1.506972   -0.016398
     22          1           0        3.691572   -0.700509   -1.243152
     23          1           0        4.299782    0.105198    0.971401
     24          1           0        3.574018    1.416905    0.026589
     25          1           0        2.760078    1.146112    2.381379
     26          1           0        1.551681    1.073832    1.289612
     27          1           0       -3.192995    1.910195    0.077512
 ---------------------------------------------------------------------

 SCF Done:  E(UB3LYP) =  -557.340954329     A.U. after   32 cycles

 The electronic state is 2-A.
 Alpha  occ. eigenvalues --  -19.04922 -19.04225 -14.19455 -10.13075 -10.12580
 Alpha  occ. eigenvalues --  -10.12010 -10.09697 -10.07623 -10.07488 -10.06687
 Alpha  occ. eigenvalues --  -10.05930 -10.05888  -0.96432  -0.95045  -0.78553
 Alpha  occ. eigenvalues --   -0.73911  -0.67482  -0.64380  -0.63341  -0.57892
 Alpha  occ. eigenvalues --   -0.53581  -0.51620  -0.49160  -0.43934  -0.41112
 Alpha  occ. eigenvalues --   -0.39405  -0.38597  -0.37822  -0.35761  -0.34919
 Alpha  occ. eigenvalues --   -0.33369  -0.32117  -0.31032  -0.30264  -0.29183
 Alpha  occ. eigenvalues --   -0.28698  -0.28303  -0.27871  -0.27058  -0.25523
 Alpha  occ. eigenvalues --   -0.23661  -0.23569  -0.20573  -0.15846  -0.14836
 Alpha  occ. eigenvalues --   -0.08795   0.04331
 Alpha virt. eigenvalues --    0.05691   0.07289   0.07811   0.08291   0.09005
 Alpha virt. eigenvalues --    0.09044   0.09960   0.10681   0.11296   0.11386
 Alpha virt. eigenvalues --    0.12026   0.12600   0.13508   0.14436   0.14563

  Beta  occ. eigenvalues --  -19.04920 -19.04192 -14.19426 -10.13067 -10.12568
  Beta  occ. eigenvalues --  -10.12008 -10.09666 -10.07614 -10.07473 -10.06628
  Beta  occ. eigenvalues --  -10.05927 -10.05882  -0.96425  -0.94979  -0.78502
  Beta  occ. eigenvalues --   -0.73890  -0.67448  -0.64347  -0.63291  -0.57816
  Beta  occ. eigenvalues --   -0.53528  -0.51576  -0.49099  -0.43898  -0.41055
  Beta  occ. eigenvalues --   -0.39379  -0.38560  -0.37774  -0.35727  -0.34881
  Beta  occ. eigenvalues --   -0.33321  -0.32078  -0.30992  -0.30226  -0.29143
  Beta  occ. eigenvalues --   -0.28660  -0.28258  -0.27833  -0.27021  -0.25494
  Beta  occ. eigenvalues --   -0.23626  -0.23540  -0.20552  -0.15822  -0.14801
  Beta  occ. eigenvalues --   -0.08765
  Beta virt. eigenvalues --    0.06614   0.07067   0.07673   0.08268   0.08863
  Beta virt. eigenvalues --    0.09400   0.09564   0.10362   0.10991   0.11584
  Beta virt. eigenvalues --    0.11793   0.12379   0.12806   0.13717   0.14801

 Mulliken charges and spin densities:
               1          2
     1  C    2.927358  -3.434419
     2  C   -2.241030   3.666948
     3  C    0.545958  -1.996073
     4  C    0.925010  -0.447151
     5  C    0.180703  -0.549757
     6  C   -0.318330   0.219749
     7  C   -1.078249   0.137265
     8  O   -0.073282   0.019066
     9  C   -0.562056   0.352666
    10  C    1.402444  -1.745138
    11  N   -0.514457   0.109735
    12  O   -0.275510   0.065741
    13  H   -0.926800   1.039831
    14  H   -0.194811   0.356176
    15  H   -0.136727   0.285054
    16  H    0.077536   0.136755
    17  H    0.139448   0.075056
    18  H   -0.118640   0.246942
    19  H    0.092851   0.057374
    20  H    0.011562   0.150848
    21  H    0.148482  -0.003848
    22  H   -0.390230   0.562623
    23  H   -0.733893   0.895119
    24  H    0.031103   0.109278
    25  H   -0.155967   0.412859
    26  H    0.290671  -0.034843
    27  H   -0.053141   0.312144
 Sum of Mulliken charges =  -1.00000   1.00000

 Dipole moment (field-independent basis, Debye):
    X=              0.7336    Y=             -1.8919    Z=             -2.9164  Tot=              3.5529
 Quadrupole moment (field-independent basis, Debye-Ang):
   XX=           -167.8682   YY=           -103.6850   ZZ=           -108.1163
   XY=              3.4678   XZ=             -1.3510   YZ=             -0.0651

 Summary of Natural Population Analysis:

                                       Natural Population
                Natural  -----------------------------------------------
    Atom  No    Charge         Core      Valence    Rydberg      Total
 -----------------------------------------------------------------------
      C    1   -0.29240      0.99963     2.28588    0.00688     3.29240
      C    2   -0.06723      0.99946     2.05636    0.01141     3.06723
      C    3    0.14841      0.99928     1.83814    0.01417     2.85159
      C    4   -0.16112      0.99943     2.15153    0.01016     3.16112
      C    5    0.18458      0.99938     1.80202    0.01403     2.81542
      C    6   -0.22236      0.99957     2.21606    0.00673     3.22236
      C    7   -0.18768      0.99961     2.17900    0.00907     3.18768
      O    8   -0.28669      0.99985     3.27652    0.01032     4.28669
      C    9   -0.01356      0.99954     2.00065    0.01337     3.01356
      C   10   -0.10134      0.99964     2.09020    0.01150     3.10134
      N   11   -0.42803      0.99977     2.91699    0.01126     3.92803
      O   12   -0.34664      0.99988     3.34028    0.00648     4.34664
      H   13    0.09627      0.00000     0.40111    0.00262     0.40373
      H   14    0.10415      0.00000     0.39417    0.00168     0.39585
      H   15    0.10126      0.00000     0.39738    0.00136     0.39874
      H   16    0.10944      0.00000     0.38911    0.00145     0.39056
      H   17    0.11462      0.00000     0.38326    0.00212     0.38538
      H   18    0.10274      0.00000     0.39593    0.00133     0.39726
      H   19    0.09452      0.00000     0.40417    0.00131     0.40548
      H   20    0.10100      0.00000     0.39782    0.00118     0.39900
      H   21    0.08580      0.00000     0.41248    0.00172     0.41420
      H   22    0.09168      0.00000     0.40689    0.00143     0.40832
      H   23    0.09579      0.00000     0.40109    0.00312     0.40421
      H   24    0.08102      0.00000     0.41719    0.00179     0.41898
      H   25    0.17861      0.00000     0.31914    0.00224     0.32139
      H   26    0.17960      0.00000     0.31814    0.00226     0.32040
      H   27    0.23757      0.00000     0.25819    0.00424     0.26243
 =======================================================================
   * Total *   -0.00000     11.99505    33.84971    0.15523    46.00000

 Normal termination of Gaussian 16 at Wed Dec  9 18:46:39 2020.
