 Gaussian 16, Revision A.03,

 -----------------------------------------------------------
 # opt freq B3LYP/6-31G(d) empiricaldispersion=gd3bj scf=xqc
 -----------------------------------------------------------

 -------------------------------
 CID_106619373_JID_8159_neutraal
 -------------------------------
 Symbolic Z-matrix:
 Charge =  0 Multiplicity = 1

 SCF Done:  E(RB3LYP) =  -796.690231111     A.U. after   15 cycles
 SCF Done:  E(RB3LYP) =  -796.695830117     A.U. after   13 cycles
 SCF Done:  E(RB3LYP) =  -796.689499900     A.U. after   13 cycles
 SCF Done:  E(RB3LYP) =  -796.685704439     A.U. after   13 cycles
 SCF Done:  E(RB3LYP) =  -796.685740002     A.U. after   12 cycles
 SCF Done:  E(RB3LYP) =  -796.695962278     A.U. after    9 cycles
 SCF Done:  E(RB3LYP) =  -796.699191222     A.U. after   12 cycles
 SCF Done:  E(RB3LYP) =  -796.699476350     A.U. after   12 cycles
 SCF Done:  E(RB3LYP) =  -796.700419003     A.U. after   12 cycles
 SCF Done:  E(RB3LYP) =  -796.701017886     A.U. after   12 cycles
 SCF Done:  E(RB3LYP) =  -796.702677034     A.U. after   10 cycles
 SCF Done:  E(RB3LYP) =  -796.702682017     A.U. after    9 cycles
 SCF Done:  E(RB3LYP) =  -796.702683653     A.U. after    8 cycles
 SCF Done:  E(RB3LYP) =  -796.702684216     A.U. after    8 cycles
 SCF Done:  E(RB3LYP) =  -796.702684541     A.U. after    8 cycles
 Optimization completed.
    -- Stationary point found.
 Normal termination of Gaussian 16 at Fri Dec 11 19:20:52 2020.

 --------------------------------------------------------------------
 #N Geom=AllCheck Guess=TCheck SCRF=Check GenChk RB3LYP/6-31G(d) Freq
 --------------------------------------------------------------------

 Structure from the checkpoint file:  "JID_8159.chk"
 -------------------------------
 CID_106619373_JID_8159_neutraal
 -------------------------------
 Charge =  0 Multiplicity = 1

 SCF Done:  E(RB3LYP) =  -796.702684540     A.U. after    1 cycles

  Exact polarizability: 191.102  -2.686 186.795 -12.567  -7.845 102.744
 Approx polarizability: 279.020 -12.218 288.081 -30.969 -19.040 164.922

                      1                      2                      3
                      A                      A                      A
 Frequencies --     32.5214                56.5040                64.7623
 Red. masses --      3.8248                 3.3748                 3.1806
 Frc consts  --      0.0024                 0.0063                 0.0079
 IR Inten    --      0.9442                 0.0448                 0.1076

                      4                      5                      6
                      A                      A                      A
 Frequencies --     70.7132                81.9128                93.9252
 Red. masses --      2.1559                 3.0651                 2.8599
 Frc consts  --      0.0064                 0.0121                 0.0149
 IR Inten    --      0.3164                 1.0328                 1.7041

                      7                      8                      9
                      A                      A                      A
 Frequencies --    147.4845               185.5458               201.0464
 Red. masses --      5.3262                 3.6823                 3.3346
 Frc consts  --      0.0683                 0.0747                 0.0794
 IR Inten    --      0.6318                 4.6827                 1.2599

                     10                     11                     12
                      A                      A                      A
 Frequencies --    229.4525               234.6757               258.3715
 Red. masses --      6.6043                 1.2754                 4.4732
 Frc consts  --      0.2049                 0.0414                 0.1759
 IR Inten    --      0.4942                 0.0852                 0.3652

                     13                     14                     15
                      A                      A                      A
 Frequencies --    295.9824               308.5015               351.5787
 Red. masses --      4.1646                 3.0321                 3.0537
 Frc consts  --      0.2150                 0.1700                 0.2224
 IR Inten    --      2.8675                 1.0847                 3.4766

                     16                     17                     18
                      A                      A                      A
 Frequencies --    393.2700               423.1422               479.3095
 Red. masses --      2.4379                 2.1841                 3.9758
 Frc consts  --      0.2221                 0.2304                 0.5382
 IR Inten    --      2.3554                 3.6231                 2.1058

                     19                     20                     21
                      A                      A                      A
 Frequencies --    543.9109               558.3491               576.8406
 Red. masses --      3.6469                 7.7143                 4.2678
 Frc consts  --      0.6357                 1.4170                 0.8367
 IR Inten    --      2.0625                 1.6395                 4.7845

                     22                     23                     24
                      A                      A                      A
 Frequencies --    612.9870               619.7986               663.6503
 Red. masses --      4.0989                 2.7655                 4.8520
 Frc consts  --      0.9074                 0.6259                 1.2591
 IR Inten    --     23.9632                 6.6236                11.5546

                     25                     26                     27
                      A                      A                      A
 Frequencies --    676.0118               694.8345               710.8023
 Red. masses --      2.7446                 8.6602                 5.2788
 Frc consts  --      0.7390                 2.4634                 1.5714
 IR Inten    --      0.6832                 1.0439                 0.1306

                     28                     29                     30
                      A                      A                      A
 Frequencies --    795.2330               799.5461               804.8839
 Red. masses --      1.2790                 1.4090                 4.2657
 Frc consts  --      0.4765                 0.5307                 1.6282
 IR Inten    --      6.4195                 3.6526                 6.5161

                     31                     32                     33
                      A                      A                      A
 Frequencies --    837.2995               854.3486               871.9002
 Red. masses --      1.3904                 3.0731                 1.4468
 Frc consts  --      0.5743                 1.3216                 0.6480
 IR Inten    --     13.6652                 6.5603                 8.3158

                     34                     35                     36
                      A                      A                      A
 Frequencies --    879.0127               883.1192               911.1404
 Red. masses --      2.2454                 3.0590                 2.7981
 Frc consts  --      1.0222                 1.4056                 1.3686
 IR Inten    --      2.6763                 5.9510                 4.0411

                     37                     38                     39
                      A                      A                      A
 Frequencies --    920.1148               935.8188               957.8404
 Red. masses --      2.5788                 1.9557                 4.2381
 Frc consts  --      1.2863                 1.0091                 2.2909
 IR Inten    --     14.9503                77.7338                 9.9840

                     40                     41                     42
                      A                      A                      A
 Frequencies --    969.2914              1004.9341              1012.0301
 Red. masses --      1.4256                 3.1495                 1.9787
 Frc consts  --      0.7892                 1.8740                 1.1940
 IR Inten    --      3.9147                 1.8179                41.1687

                     43                     44                     45
                      A                      A                      A
 Frequencies --   1020.4956              1034.4207              1078.4442
 Red. masses --      1.9731                 1.6134                 2.3688
 Frc consts  --      1.2107                 1.0172                 1.6232
 IR Inten    --     11.0187                 8.6938                15.6228

                     46                     47                     48
                      A                      A                      A
 Frequencies --   1108.8056              1113.2008              1120.0022
 Red. masses --      2.7831                 2.5075                 2.2350
 Frc consts  --      2.0160                 1.8308                 1.6518
 IR Inten    --     41.6829                60.6758                32.1806

                     49                     50                     51
                      A                      A                      A
 Frequencies --   1131.2124              1169.6015              1199.2743
 Red. masses --      2.1874                 2.6187                 2.4472
 Frc consts  --      1.6492                 2.1106                 2.0737
 IR Inten    --     10.3457                 2.0668                12.1048

                     52                     53                     54
                      A                      A                      A
 Frequencies --   1204.4386              1225.8535              1239.6840
 Red. masses --      2.6431                 1.2916                 1.7064
 Frc consts  --      2.2591                 1.1436                 1.5451
 IR Inten    --     10.8998                10.6579                17.4457

                     55                     56                     57
                      A                      A                      A
 Frequencies --   1253.8504              1284.4776              1300.5152
 Red. masses --      1.9555                 1.1666                 2.0751
 Frc consts  --      1.8113                 1.1340                 2.0678
 IR Inten    --     34.2341                 1.3015                11.0135

                     58                     59                     60
                      A                      A                      A
 Frequencies --   1305.7550              1328.1730              1332.6980
 Red. masses --      1.4193                 2.3409                 1.4627
 Frc consts  --      1.4258                 2.4330                 1.5306
 IR Inten    --      9.5735                14.8121                 0.2076

                     61                     62                     63
                      A                      A                      A
 Frequencies --   1342.6702              1352.7172              1359.3249
 Red. masses --      2.1246                 1.8877                 1.3677
 Frc consts  --      2.2567                 2.0351                 1.4890
 IR Inten    --     50.4848                30.6834                 5.7545

                     64                     65                     66
                      A                      A                      A
 Frequencies --   1378.4908              1382.6583              1395.0133
 Red. masses --      2.1367                 1.6359                 2.1354
 Frc consts  --      2.3923                 1.8426                 2.4484
 IR Inten    --     23.8461                 4.5083                16.5671

                     67                     68                     69
                      A                      A                      A
 Frequencies --   1402.8221              1408.2179              1431.8100
 Red. masses --      1.4436                 1.3403                 1.3650
 Frc consts  --      1.6738                 1.5660                 1.6488
 IR Inten    --      7.3060                13.4801                70.8982

                     70                     71                     72
                      A                      A                      A
 Frequencies --   1435.4312              1444.8708              1481.9053
 Red. masses --      1.3263                 2.0053                 1.1712
 Frc consts  --      1.6101                 2.4666                 1.5154
 IR Inten    --     47.6673                 7.7625                30.6902

                     73                     74                     75
                      A                      A                      A
 Frequencies --   1491.4933              1510.2442              1518.4461
 Red. masses --      1.5015                 1.6739                 1.0865
 Frc consts  --      1.9680                 2.2494                 1.4760
 IR Inten    --    126.1209               111.6992                 0.8141

                     76                     77                     78
                      A                      A                      A
 Frequencies --   1519.0956              1520.1789              1528.7532
 Red. masses --      1.3506                 1.1076                 1.0859
 Frc consts  --      1.8363                 1.5081                 1.4953
 IR Inten    --      2.3658                 1.1667                 4.1241

                     79                     80                     81
                      A                      A                      A
 Frequencies --   1535.6667              1544.7671              1548.8117
 Red. masses --      1.0611                 1.1002                 1.8244
 Frc consts  --      1.4743                 1.5468                 2.5784
 IR Inten    --      4.7281                 0.3332                 4.2622

                     82                     83                     84
                      A                      A                      A
 Frequencies --   1560.9092              1598.0149              1653.3910
 Red. masses --      2.2626                 6.8824                 4.4955
 Frc consts  --      3.2479                10.3550                 7.2407
 IR Inten    --    148.9576               240.4987               261.5346

                     85                     86                     87
                      A                      A                      A
 Frequencies --   3044.6832              3045.1651              3049.8759
 Red. masses --      1.0639                 1.0722                 1.0396
 Frc consts  --      5.8107                 5.8579                 5.6977
 IR Inten    --     18.4522                15.2795                27.4977

                     88                     89                     90
                      A                      A                      A
 Frequencies --   3057.7718              3059.1254              3071.2269
 Red. masses --      1.0714                 1.0792                 1.0645
 Frc consts  --      5.9023                 5.9506                 5.9159
 IR Inten    --     26.9402                29.9148                24.6132

                     91                     92                     93
                      A                      A                      A
 Frequencies --   3081.4565              3101.3317              3106.9102
 Red. masses --      1.0629                 1.0987                 1.1001
 Frc consts  --      5.9462                 6.2261                 6.2566
 IR Inten    --     52.9927                26.2109                 6.6143

                     94                     95                     96
                      A                      A                      A
 Frequencies --   3109.4050              3120.2085              3134.7325
 Red. masses --      1.1010                 1.1017                 1.1060
 Frc consts  --      6.2720                 6.3192                 6.4035
 IR Inten    --     31.3462                14.2082                45.9299

                     97                     98                     99
                      A                      A                      A
 Frequencies --   3145.8507              3155.0983              3178.9436
 Red. masses --      1.0958                 1.0999                 1.0900
 Frc consts  --      6.3896                 6.4511                 6.4900
 IR Inten    --     15.9019                13.8764                50.4204

                    100                    101                    102
                      A                      A                      A
 Frequencies --   3244.7275              3253.5113              3444.4894
 Red. masses --      1.0933                 1.0965                 1.0741
 Frc consts  --      6.7818                 6.8386                 7.5084
 IR Inten    --   1028.9003                 4.5214                 0.2118

 - Thermochemistry -
 -------------------
 Temperature   298.150 Kelvin.  Pressure   1.00000 Atm.
 Atom     1 has atomic number  6 and mass  12.00000

 Molecular mass:   246.15929 amu.
 Principal axes and moments of inertia in atomic units:
                           1         2         3
     Eigenvalues --  3085.300555319.950397856.72863
           X            0.99940   0.03418   0.00486
           Y           -0.03422   0.99939   0.00759
           Z           -0.00460  -0.00775   0.99996
 This molecule is an asymmetric top.
 Rotational symmetry number  1.
 Warning -- assumption of classical behavior for rotation
           may cause significant error
 Rotational temperatures (Kelvin)      0.02807     0.01628     0.01102
 Rotational constants (GHZ):           0.58495     0.33924     0.22971
 Zero-point vibrational energy     814678.0 (Joules/Mol)
                                  194.71270 (Kcal/Mol)
 Warning -- explicit consideration of  23 degrees of freedom as
           vibrations may cause significant error
 Vibrational temperatures:     46.79    81.30    93.18   101.74   117.85
          (Kelvin)            135.14   212.20   266.96   289.26   330.13
                              337.65   371.74   425.85   443.86   505.84
                              565.83   608.81   689.62   782.57   803.34
                              829.94   881.95   891.75   954.84   972.63
                              999.71  1022.69  1144.16  1150.37  1158.05
                             1204.69  1229.22  1254.47  1264.70  1270.61
                             1310.93  1323.84  1346.43  1378.12  1394.59
                             1445.88  1456.09  1468.27  1488.30  1551.64
                             1595.32  1601.65  1611.43  1627.56  1682.80
                             1725.49  1732.92  1763.73  1783.63  1804.01
                             1848.08  1871.15  1878.69  1910.94  1917.46
                             1931.80  1946.26  1955.77  1983.34  1989.34
                             2007.11  2018.35  2026.11  2060.06  2065.27
                             2078.85  2132.13  2145.93  2172.90  2184.71
                             2185.64  2187.20  2199.53  2209.48  2222.58
                             2228.39  2245.80  2299.19  2378.86  4380.62
                             4381.31  4388.09  4399.45  4401.40  4418.81
                             4433.53  4462.12  4470.15  4473.74  4489.28
                             4510.18  4526.18  4539.48  4573.79  4668.44
                             4681.08  4955.85

 Zero-point correction=                           0.310294 (Hartree/Particle)
 Thermal correction to Energy=                    0.325912
 Thermal correction to Enthalpy=                  0.326856
 Thermal correction to Gibbs Free Energy=         0.266101
 Sum of electronic and zero-point Energies=           -796.392390
 Sum of electronic and thermal Energies=              -796.376773
 Sum of electronic and thermal Enthalpies=            -796.375829
 Sum of electronic and thermal Free Energies=         -796.436584

                     E (Thermal)             CV                S
                      KCal/Mol        Cal/Mol-Kelvin    Cal/Mol-Kelvin
 Total                  204.513             60.281            127.869
 Electronic               0.000              0.000              0.000
 Translational            0.889              2.981             42.403
 Rotational               0.889              2.981             33.222
 Vibrational            202.735             54.319             52.244
 Vibration     1          0.594              1.983              5.669
 Vibration     2          0.596              1.975              4.576
 Vibration     3          0.597              1.971              4.307
 Vibration     4          0.598              1.968              4.133
 Vibration     5          0.600              1.962              3.845
 Vibration     6          0.603              1.954              3.577
 Vibration     7          0.617              1.905              2.704
 Vibration     8          0.632              1.860              2.272
 Vibration     9          0.638              1.838              2.123
 Vibration    10          0.652              1.796              1.883
 Vibration    11          0.654              1.788              1.843
 Vibration    12          0.667              1.749              1.673
 Vibration    13          0.690              1.681              1.440
 Vibration    14          0.698              1.658              1.370
 Vibration    15          0.728              1.572              1.159
 Vibration    16          0.760              1.485              0.988
 Vibration    17          0.785              1.420              0.881
 Vibration    18          0.836              1.296              0.712
 Vibration    19          0.899              1.153              0.557
 Vibration    20          0.914              1.121              0.527
 Vibration    21          0.933              1.081              0.491
 Vibration    22          0.972              1.004              0.428
 Vibration    23          0.980              0.990              0.417

                           ! Non-Optimized Parameters !
 Normal termination of Gaussian 16 at Fri Dec 11 19:36:37 2020.

 ----------------------------------------------------------------------
 # B3LYP/6-311++G(d,p) empiricaldispersion=gd3bj scf=xqc pop=npa geom=c
 heck
 ----------------------------------------------------------------------

 ---------------------------------------
 CID_106619373_JID_8159_Energie_neutraal
 ---------------------------------------
 Structure from the checkpoint file:  "JID_8159.chk"
 Charge =  0 Multiplicity = 1

 SCF Done:  E(RB3LYP) =  -796.914978209     A.U. after   15 cycles
 Normal termination of Gaussian 16 at Fri Dec 11 19:42:36 2020.

 ----------------------------------------------------------------------
 # B3LYP/6-311++G(d,p) empiricaldispersion=gd3bj scf=xqc pop=npa geom=c
 heck
 ----------------------------------------------------------------------

 -------------------------------------
 CID_106619373_JID_8159_Energie_kation
 -------------------------------------
 Structure from the checkpoint file:  "JID_8159.chk"
 Charge =  1 Multiplicity = 2

 SCF Done:  E(UB3LYP) =  -796.639490740     A.U. after   23 cycles
 Normal termination of Gaussian 16 at Fri Dec 11 19:54:55 2020.
 Gaussian 16:  ES64L-G16RevA.03 25-Dec-2016

 ----------------------------------------------------------------------
 # B3LYP/6-311++G(d,p) empiricaldispersion=gd3bj scf=xqc pop=npa geom=c
 heck
 ----------------------------------------------------------------------

 ------------------------------------
 CID_106619373_JID_8159_Energie_anion
 ------------------------------------
 Structure from the checkpoint file:  "JID_8159.chk"
 Charge = -1 Multiplicity = 2

                         Standard orientation:
 ---------------------------------------------------------------------
 Center     Atomic      Atomic             Coordinates (Angstroms)
 Number     Number       Type             X           Y           Z
 ---------------------------------------------------------------------
      1          6           0        0.748981    3.697548    0.881585
      2          6           0        0.201805    2.856381   -0.272624
      3          7           0        0.124153    1.428479    0.039443
      4          6           0       -1.031291    0.944548    0.769178
      5          6           0       -2.012256    0.122581   -0.092117
      6          6           0       -3.324273    0.806509   -0.518627
      7          6           0       -4.288617   -0.375366   -0.793497
      8          6           0       -3.564519   -1.616970   -0.189528
      9          7           0       -2.430919   -1.111430    0.611568
     10          6           0        1.236647    0.632684   -0.120312
     11          7           0        2.364407    1.228294   -0.539039
     12          6           0        3.474910    0.486034   -0.705889
     13          7           0        3.641477   -0.813055   -0.501446
     14          6           0        2.514245   -1.429797   -0.097070
     15          6           0        1.280270   -0.763277    0.105803
     16          7           0        0.391620   -1.767770    0.478130
     17          6           0        1.115150   -2.927400    0.476447
     18          7           0        2.380930   -2.781074    0.151126
     19          1           0        0.136774    3.585369    1.784550
     20          1           0        0.760124    4.759570    0.610764
     21          1           0        1.771178    3.386047    1.111556
     22          1           0       -0.808557    3.182584   -0.546708
     23          1           0        0.842029    2.969028   -1.148390
     24          1           0       -0.697245    0.332744    1.616455
     25          1           0       -1.544421    1.809969    1.199927
     26          1           0       -1.474584   -0.205251   -0.990469
     27          1           0       -3.696542    1.425632    0.307661
     28          1           0       -3.192027    1.462882   -1.384000
     29          1           0       -5.262869   -0.209199   -0.324225
     30          1           0       -4.466779   -0.513578   -1.863957
     31          1           0       -4.211264   -2.245507    0.427835
     32          1           0       -3.156263   -2.245899   -0.987814
     33          1           0       -2.778276   -0.843875    1.534998
     34          1           0        4.347670    1.039464   -1.047633
     35          1           0       -0.626191   -1.703254    0.631265
     36          1           0        0.649266   -3.871681    0.729626
 ---------------------------------------------------------------------

 SCF Done:  E(UB3LYP) =  -796.913369688     A.U. after   33 cycles
 SCF Done:  E(UB3LYP) =  -796.913369688     a.u. after    1 cycles

 The electronic state is 2-A.
 Alpha  occ. eigenvalues --  -14.27147 -14.25288 -14.22009 -14.20938 -14.20793
 Alpha  occ. eigenvalues --  -14.20541 -10.16934 -10.14894 -10.13640 -10.13389
 Alpha  occ. eigenvalues --  -10.12377 -10.12147 -10.11812 -10.11419 -10.10170
 Alpha  occ. eigenvalues --  -10.07753 -10.07529 -10.07419  -0.93514  -0.89448
 Alpha  occ. eigenvalues --   -0.86074  -0.83810  -0.79746  -0.76617  -0.69158
 Alpha  occ. eigenvalues --   -0.68094  -0.66980  -0.64765  -0.59835  -0.57115
 Alpha  occ. eigenvalues --   -0.55361  -0.53620  -0.51666  -0.50589  -0.48818
 Alpha  occ. eigenvalues --   -0.47428  -0.43602  -0.41765  -0.40719  -0.40285
 Alpha  occ. eigenvalues --   -0.39107  -0.37104  -0.36990  -0.35928  -0.35244
 Alpha  occ. eigenvalues --   -0.34602  -0.34108  -0.32949  -0.31953  -0.31663
 Alpha  occ. eigenvalues --   -0.30032  -0.29527  -0.27889  -0.26994  -0.26492
 Alpha  occ. eigenvalues --   -0.26050  -0.25460  -0.24269  -0.23380  -0.21579
 Alpha  occ. eigenvalues --   -0.19066  -0.18886  -0.17020  -0.16711  -0.16121
 Alpha  occ. eigenvalues --   -0.12397   0.03673
 Alpha virt. eigenvalues --    0.05835   0.06405   0.06904   0.07379   0.08295
 Alpha virt. eigenvalues --    0.08548   0.08708   0.08853   0.09466   0.09946
 Alpha virt. eigenvalues --    0.10647   0.11038   0.11374   0.11882   0.12284

  Beta  occ. eigenvalues --  -14.27136 -14.25284 -14.21963 -14.20932 -14.20797
  Beta  occ. eigenvalues --  -14.20519 -10.16904 -10.14871 -10.13641 -10.13380
  Beta  occ. eigenvalues --  -10.12383 -10.12119 -10.11803 -10.11417 -10.10140
  Beta  occ. eigenvalues --  -10.07743 -10.07491 -10.07392  -0.93493  -0.89420
  Beta  occ. eigenvalues --   -0.86045  -0.83746  -0.79725  -0.76591  -0.69134
  Beta  occ. eigenvalues --   -0.68053  -0.66904  -0.64735  -0.59771  -0.57077
  Beta  occ. eigenvalues --   -0.55342  -0.53588  -0.51566  -0.50551  -0.48747
  Beta  occ. eigenvalues --   -0.47394  -0.43574  -0.41745  -0.40624  -0.40256
  Beta  occ. eigenvalues --   -0.39073  -0.37078  -0.36929  -0.35900  -0.35213
  Beta  occ. eigenvalues --   -0.34551  -0.34047  -0.32902  -0.31926  -0.31629
  Beta  occ. eigenvalues --   -0.29990  -0.29480  -0.27847  -0.26943  -0.26461
  Beta  occ. eigenvalues --   -0.25988  -0.25395  -0.24201  -0.23322  -0.21560
  Beta  occ. eigenvalues --   -0.19057  -0.18849  -0.16958  -0.16660  -0.16097
  Beta  occ. eigenvalues --   -0.12341
  Beta virt. eigenvalues --    0.06043   0.06263   0.06834   0.07607   0.07931
  Beta virt. eigenvalues --    0.08508   0.08640   0.08866   0.09209   0.09868
  Beta virt. eigenvalues --    0.10315   0.11054   0.11432   0.11598   0.11962

 Mulliken charges and spin densities:
               1          2
     1  C    0.030905  -0.484791
     2  C   -0.151497  -0.038340
     3  N    0.438849  -0.027187
     4  C   -0.040868  -0.785412
     5  C   -0.671779   0.755826
     6  C    0.699585  -1.275268
     7  C    0.437622  -0.825937
     8  C    0.529188  -0.844877
     9  N   -0.125993   0.094971
    10  C   -0.428277   0.098860
    11  N   -0.188871   0.007504
    12  C    0.052537   0.023082
    13  N   -0.135991   0.010973
    14  C   -0.631495  -0.168501
    15  C    0.517783  -0.132461
    16  N   -0.396224   0.044463
    17  C    0.225589  -0.032870
    18  N   -0.156719  -0.000159
    19  H   -0.012915   0.148529
    20  H    0.056067   0.072690
    21  H    0.146040   0.022643
    22  H   -0.171091   0.324425
    23  H    0.152255   0.027616
    24  H   -0.116390   0.349069
    25  H   -0.302207   0.498921
    26  H    0.093652   0.167649
    27  H   -0.623863   0.801210
    28  H    0.103251   0.046196
    29  H   -0.150195   0.316429
    30  H   -0.179141   0.306320
    31  H   -0.800986   0.987503
    32  H    0.279472  -0.133081
    33  H   -0.184284   0.434134
    34  H    0.192529   0.004882
    35  H    0.531458   0.002373
    36  H   -0.017994   0.202618
 Sum of Mulliken charges =  -1.00000   1.00000

 Dipole moment (field-independent basis, Debye):
    X=              4.6620    Y=              2.0340    Z=             -3.4669  Tot=              6.1555
 Quadrupole moment (field-independent basis, Debye-Ang):
   XX=           -210.3731   YY=           -152.5369   ZZ=           -139.8984
   XY=             11.9111   XZ=             17.0970   YZ=              0.3423

 Summary of Natural Population Analysis:

                                       Natural Population
                Natural  -----------------------------------------------
    Atom  No    Charge         Core      Valence    Rydberg      Total
 -----------------------------------------------------------------------
      C    1   -0.29390      0.99966     2.28937    0.00487     3.29390
      C    2   -0.08432      0.99962     2.07372    0.01097     3.08432
      N    3   -0.24084      0.99964     2.73014    0.01105     3.74084
      C    4   -0.08983      0.99958     2.07738    0.01288     3.08983
      C    5   -0.01999      0.99959     2.00820    0.01219     3.01999
      C    6   -0.19550      0.99962     2.18748    0.00840     3.19550
      C    7   -0.20056      0.99964     2.19322    0.00770     3.20056
      C    8   -0.08664      0.99964     2.07610    0.01090     3.08664
      N    9   -0.35474      0.99975     2.84029    0.01469     3.85474
      C   10    0.21843      0.99948     1.76813    0.01395     2.78157
      N   11   -0.28495      0.99968     2.77740    0.00786     3.78495
      C   12    0.13738      0.99968     1.84459    0.01835     2.86262
      N   13   -0.25372      0.99968     2.74419    0.00986     3.75372
      C   14    0.17037      0.99949     1.81004    0.02010     2.82963
      C   15    0.00480      0.99941     1.98628    0.00950     2.99520
      N   16   -0.28487      0.99966     2.77753    0.00768     3.78487
      C   17    0.12995      0.99967     1.85230    0.01807     2.87005
      N   18   -0.25898      0.99970     2.74897    0.01031     3.75898
      H   19    0.09807      0.00000     0.40097    0.00095     0.40193
      H   20    0.09692      0.00000     0.40232    0.00076     0.40308
      H   21    0.10566      0.00000     0.39336    0.00098     0.39434
      H   22    0.09465      0.00000     0.40422    0.00113     0.40535
      H   23    0.10797      0.00000     0.39063    0.00140     0.39203
      H   24    0.10220      0.00000     0.39605    0.00174     0.39780
      H   25    0.10846      0.00000     0.38988    0.00165     0.39154
      H   26    0.09258      0.00000     0.40532    0.00210     0.40742
      H   27    0.10339      0.00000     0.39284    0.00377     0.39661
      H   28    0.10165      0.00000     0.39730    0.00105     0.39835
      H   29    0.10517      0.00000     0.39278    0.00204     0.39483
      H   30    0.09632      0.00000     0.40265    0.00104     0.40368
      H   31    0.10295      0.00000     0.39479    0.00226     0.39705
      H   32    0.08760      0.00000     0.41103    0.00137     0.41240
      H   33    0.18566      0.00000     0.30270    0.01163     0.31434
      H   34    0.07885      0.00000     0.42005    0.00110     0.42115
      H   35    0.22688      0.00000     0.27023    0.00289     0.27312
      H   36    0.09292      0.00000     0.40576    0.00133     0.40708
 =======================================================================
   * Total *   -0.00000     17.99320    47.75826    0.24854    66.00000

 Normal termination of Gaussian 16 at Fri Dec 11 20:12:40 2020.
