 Gaussian 16, Revision A.03,

 -----------------------------------------------------------
 # opt freq B3LYP/6-31G(d) empiricaldispersion=gd3bj scf=xqc
 -----------------------------------------------------------

 --------------------------------
 CID_115319576_JID_10431_neutraal
 --------------------------------
 Symbolic Z-matrix:
 Charge =  0 Multiplicity = 1

 SCF Done:  E(RB3LYP) =  -876.679862556     A.U. after   15 cycles
 SCF Done:  E(RB3LYP) =  -876.687464150     A.U. after   12 cycles
 SCF Done:  E(RB3LYP) =  -876.688652068     A.U. after   14 cycles
 SCF Done:  E(RB3LYP) =  -876.689338249     A.U. after   12 cycles
 SCF Done:  E(RB3LYP) =  -876.690314895     A.U. after   12 cycles
 SCF Done:  E(RB3LYP) =  -876.692179633     A.U. after   12 cycles
 SCF Done:  E(RB3LYP) =  -876.693095266     A.U. after   12 cycles
 SCF Done:  E(RB3LYP) =  -876.693694126     A.U. after   12 cycles
 SCF Done:  E(RB3LYP) =  -876.693759797     A.U. after   12 cycles
 SCF Done:  E(RB3LYP) =  -876.693831890     A.U. after   11 cycles
 SCF Done:  E(RB3LYP) =  -876.694025869     A.U. after    8 cycles
 SCF Done:  E(RB3LYP) =  -876.694026004     A.U. after    8 cycles
 SCF Done:  E(RB3LYP) =  -876.694026061     A.U. after    7 cycles
 SCF Done:  E(RB3LYP) =  -876.694026076     A.U. after    7 cycles
 Optimization completed.
    -- Stationary point found.
 Normal termination of Gaussian 16 at Mon Dec 14 17:51:51 2020.

 --------------------------------------------------------------------
 #N Geom=AllCheck Guess=TCheck SCRF=Check GenChk RB3LYP/6-31G(d) Freq
 --------------------------------------------------------------------

 Structure from the checkpoint file:  "JID_10431.chk"
 --------------------------------
 CID_115319576_JID_10431_neutraal
 --------------------------------
 Charge =  0 Multiplicity = 1

 SCF Done:  E(RB3LYP) =  -876.694026076     A.U. after    1 cycles

  Exact polarizability: 172.620 -12.188 194.144 -30.304  -8.648 152.708
 Approx polarizability: 222.965 -17.631 312.961 -58.866 -26.387 265.614

                      1                      2                      3
                      A                      A                      A
 Frequencies --     14.0463                17.6843                32.4168
 Red. masses --      4.8916                 4.8064                 6.1567
 Frc consts  --      0.0006                 0.0009                 0.0038
 IR Inten    --      1.6910                 1.4451                 1.1336

                      4                      5                      6
                      A                      A                      A
 Frequencies --     43.6200                70.7377                73.9788
 Red. masses --      3.7071                 5.4517                 4.6867
 Frc consts  --      0.0042                 0.0161                 0.0151
 IR Inten    --      0.3826                 0.8288                 2.8702

                      7                      8                      9
                      A                      A                      A
 Frequencies --     90.1657               137.1387               149.7097
 Red. masses --      5.1833                 3.8178                 4.4260
 Frc consts  --      0.0248                 0.0423                 0.0584
 IR Inten    --      0.3272                 2.4634                 1.7831

                     10                     11                     12
                      A                      A                      A
 Frequencies --    154.3456               181.2654               231.7163
 Red. masses --      1.0570                 4.2719                 3.8604
 Frc consts  --      0.0148                 0.0827                 0.1221
 IR Inten    --     30.8052                 0.2583                 2.6802

                     13                     14                     15
                      A                      A                      A
 Frequencies --    247.9526               280.1944               299.0433
 Red. masses --      3.0749                 2.7691                 3.5644
 Frc consts  --      0.1114                 0.1281                 0.1878
 IR Inten    --      0.6853                 6.8160                 5.6214

                     16                     17                     18
                      A                      A                      A
 Frequencies --    310.5313               349.5022               376.0460
 Red. masses --      3.2265                 3.2803                 6.4901
 Frc consts  --      0.1833                 0.2361                 0.5407
 IR Inten    --      0.6796                 3.2773                 7.8611

                     19                     20                     21
                      A                      A                      A
 Frequencies --    415.7388               427.0277               432.0039
 Red. masses --      3.0462                 3.7705                 2.9854
 Frc consts  --      0.3102                 0.4051                 0.3283
 IR Inten    --      0.5808                 3.9394                 0.6367

                     22                     23                     24
                      A                      A                      A
 Frequencies --    467.9134               534.0660               583.7157
 Red. masses --      3.2868                 3.3986                 4.1192
 Frc consts  --      0.4240                 0.5711                 0.8269
 IR Inten    --      3.0610                 2.1958                28.0291

                     25                     26                     27
                      A                      A                      A
 Frequencies --    613.3276               619.0408               636.6012
 Red. masses --      3.8806                 4.2937                 3.5855
 Frc consts  --      0.8601                 0.9694                 0.8561
 IR Inten    --     46.4014                 8.1342                 6.8503

                     28                     29                     30
                      A                      A                      A
 Frequencies --    638.2361               663.1208               682.3781
 Red. masses --      3.2602                 4.7157                 1.3750
 Frc consts  --      0.7825                 1.2218                 0.3772
 IR Inten    --      6.3049                33.7347                46.3233

                     31                     32                     33
                      A                      A                      A
 Frequencies --    691.5103               715.5378               722.0470
 Red. masses --      4.0867                 1.7765                 1.3611
 Frc consts  --      1.1514                 0.5359                 0.4181
 IR Inten    --     12.7851                30.9420                26.3054

                     34                     35                     36
                      A                      A                      A
 Frequencies --    742.9766               755.5945               777.3826
 Red. masses --      3.0159                 3.5313                 1.9589
 Frc consts  --      0.9809                 1.1878                 0.6975
 IR Inten    --     47.0995                42.8645                66.6251

                     37                     38                     39
                      A                      A                      A
 Frequencies --    780.7951               793.7366               829.3281
 Red. masses --      1.7233                 1.1985                 1.4103
 Frc consts  --      0.6190                 0.4449                 0.5715
 IR Inten    --    144.1203                 1.0146                45.2520

                     40                     41                     42
                      A                      A                      A
 Frequencies --    845.1733               859.9955               915.0583
 Red. masses --      1.7352                 1.2521                 1.9680
 Frc consts  --      0.7303                 0.5456                 0.9709
 IR Inten    --      5.4750                 0.0529                 8.6756

                     43                     44                     45
                      A                      A                      A
 Frequencies --    920.4145               940.0036               965.9110
 Red. masses --      1.8365                 3.5720                 2.1467
 Frc consts  --      0.9167                 1.8596                 1.1800
 IR Inten    --     13.4211                 0.7898                 1.3437

                     46                     47                     48
                      A                      A                      A
 Frequencies --    967.1448               980.0660               981.6388
 Red. masses --      1.4077                 1.5255                 2.6862
 Frc consts  --      0.7758                 0.8633                 1.5251
 IR Inten    --      0.1886                 4.7285                50.1360

                     49                     50                     51
                      A                      A                      A
 Frequencies --    993.1601              1017.2313              1022.4138
 Red. masses --      1.2618                 2.8812                 6.0623
 Frc consts  --      0.7333                 1.7565                 3.7337
 IR Inten    --      2.1843                23.2951                 0.3879

                     52                     53                     54
                      A                      A                      A
 Frequencies --   1049.2581              1059.3083              1069.9111
 Red. masses --      4.0760                 2.2172                 1.3654
 Frc consts  --      2.6439                 1.4659                 0.9209
 IR Inten    --      7.0088                 7.3054                 2.5442

                     55                     56                     57
                      A                      A                      A
 Frequencies --   1089.1667              1091.3448              1116.3585
 Red. masses --      1.8497                 1.4275                 1.4403
 Frc consts  --      1.2929                 1.0017                 1.0576
 IR Inten    --      2.8029                 2.6810                 0.8258

                     58                     59                     60
                      A                      A                      A
 Frequencies --   1117.0605              1133.7855              1152.1678
 Red. masses --      1.5278                 1.9981                 2.7213
 Frc consts  --      1.1232                 1.5133                 2.1284
 IR Inten    --      4.6043                 9.8556                12.6799

                     61                     62                     63
                      A                      A                      A
 Frequencies --   1193.8884              1209.8523              1210.5830
 Red. masses --      1.0946                 1.2801                 2.0391
 Frc consts  --      0.9193                 1.1040                 1.7607
 IR Inten    --      0.0529                 0.0743                 5.0421

                     64                     65                     66
                      A                      A                      A
 Frequencies --   1218.3846              1221.8135              1257.6290
 Red. masses --      1.6153                 1.1980                 2.2386
 Frc consts  --      1.4128                 1.0537                 2.0861
 IR Inten    --     20.2505                 1.5436                13.6565

                     67                     68                     69
                      A                      A                      A
 Frequencies --   1269.7515              1287.5952              1339.6947
 Red. masses --      1.5843                 1.3778                 3.5064
 Frc consts  --      1.5050                 1.3458                 3.7078
 IR Inten    --      0.3448                37.4488                 6.3388

                     70                     71                     72
                      A                      A                      A
 Frequencies --   1356.3836              1372.2948              1378.7401
 Red. masses --      2.7513                 1.8227                 1.7265
 Frc consts  --      2.9823                 2.0224                 1.9336
 IR Inten    --     19.5465                 2.3010                73.0821

                     73                     74                     75
                      A                      A                      A
 Frequencies --   1396.0306              1409.3581              1417.2538
 Red. masses --      2.3651                 1.4809                 2.9034
 Frc consts  --      2.7158                 1.7331                 3.4360
 IR Inten    --     23.3479                13.3449               201.9228

                     76                     77                     78
                      A                      A                      A
 Frequencies --   1424.5002              1455.7648              1484.9636
 Red. masses --      2.9932                 3.8840                 1.0972
 Frc consts  --      3.5786                 4.8497                 1.4255
 IR Inten    --     43.0871                54.6947                 5.3786

                     79                     80                     81
                      A                      A                      A
 Frequencies --   1495.4302              1498.7192              1505.3584
 Red. masses --      2.1491                 1.3663                 2.1996
 Frc consts  --      2.8317                 1.8082                 2.9368
 IR Inten    --      6.1014                 2.8349                17.1457

                     82                     83                     84
                      A                      A                      A
 Frequencies --   1520.8717              1525.0894              1533.9915
 Red. masses --      1.4069                 1.5043                 1.1319
 Frc consts  --      1.9173                 2.0615                 1.5693
 IR Inten    --     10.3672                74.7520                41.7104

                     85                     86                     87
                      A                      A                      A
 Frequencies --   1550.9155              1641.6398              1648.1913
 Red. masses --      2.2615                 5.4656                 4.1975
 Frc consts  --      3.2050                 8.6785                 6.7182
 IR Inten    --     16.5477                 2.8080                33.0449

                     88                     89                     90
                      A                      A                      A
 Frequencies --   1667.0317              1697.0448              1769.9661
 Red. masses --      5.5373                 1.1974                 8.1330
 Frc consts  --      9.0663                 2.0317                15.0118
 IR Inten    --     14.6600                54.4644               381.5523

                     91                     92                     93
                      A                      A                      A
 Frequencies --   3040.9362              3087.7654              3112.1572
 Red. masses --      1.0681                 1.0605                 1.0943
 Frc consts  --      5.8193                 5.9572                 6.2447
 IR Inten    --     26.4484                17.8944                23.2995

                     94                     95                     96
                      A                      A                      A
 Frequencies --   3142.4468              3153.3505              3164.3761
 Red. masses --      1.1078                 1.0538                 1.0545
 Frc consts  --      6.4455                 6.1739                 6.2211
 IR Inten    --     10.3100                10.1736                12.0639

                     97                     98                     99
                      A                      A                      A
 Frequencies --   3180.4520              3187.0337              3196.8965
 Red. masses --      1.0846                 1.0874                 1.0910
 Frc consts  --      6.4638                 6.5073                 6.5696
 IR Inten    --      3.0451                 2.3018                18.5257

                    100                    101                    102
                      A                      A                      A
 Frequencies --   3203.1882              3211.3953              3233.0359
 Red. masses --      1.0937                 1.0980                 1.1181
 Frc consts  --      6.6115                 6.6717                 6.8856
 IR Inten    --     34.5446                14.8020                 7.2331

                    103                    104                    105
                      A                      A                      A
 Frequencies --   3255.3641              3258.7304              3274.3069
 Red. masses --      1.0959                 1.1176                 1.0971
 Frc consts  --      6.8427                 6.9928                 6.9301
 IR Inten    --      6.5481                 2.0925                 1.4435

                    106                    107                    108
                      A                      A                      A
 Frequencies --   3515.1380              3524.0600              3615.9909
 Red. masses --      1.0772                 1.0489                 1.0958
 Frc consts  --      7.8421                 7.6745                 8.4421
 IR Inten    --    202.2391                 3.6704                 5.5679

 - Thermochemistry -
 -------------------
 Temperature   298.150 Kelvin.  Pressure   1.00000 Atm.
 Atom     1 has atomic number  6 and mass  12.00000

 Molecular mass:   270.14806 amu.
 Principal axes and moments of inertia in atomic units:
                           1         2         3
     Eigenvalues --  3436.257518902.30600**********
           X            0.99994  -0.00849  -0.00750
           Y            0.00858   0.99989   0.01187
           Z            0.00739  -0.01194   0.99990
 This molecule is an asymmetric top.
 Rotational symmetry number  1.
 Warning -- assumption of classical behavior for rotation
           may cause significant error
 Rotational temperatures (Kelvin)      0.02521     0.00973     0.00813
 Rotational constants (GHZ):           0.52521     0.20273     0.16934
 Zero-point vibrational energy     832505.8 (Joules/Mol)
                                  198.97366 (Kcal/Mol)
 Warning -- explicit consideration of  26 degrees of freedom as
           vibrations may cause significant error
 Vibrational temperatures:     20.21    25.44    46.64    62.76   101.78
          (Kelvin)            106.44   129.73   197.31   215.40   222.07
                              260.80   333.39   356.75   403.14   430.26
                              446.79   502.86   541.05   598.16   614.40
                              621.56   673.22   768.40   839.84   882.44
                              890.66   915.93   918.28   954.08   981.79
                              994.93  1029.50  1038.86  1068.98  1087.13
                             1118.48  1123.39  1142.01  1193.22  1216.02
                             1237.34  1316.56  1324.27  1352.46  1389.73
                             1391.51  1410.10  1412.36  1428.94  1463.57
                             1471.03  1509.65  1524.11  1539.36  1567.07
                             1570.20  1606.19  1607.20  1631.26  1657.71
                             1717.74  1740.71  1741.76  1752.98  1757.92
                             1809.45  1826.89  1852.56  1927.52  1951.53
                             1974.43  1983.70  2008.58  2027.75  2039.11
                             2049.54  2094.52  2136.53  2151.59  2156.32
                             2165.87  2188.20  2194.26  2207.07  2231.42
                             2361.95  2371.38  2398.49  2441.67  2546.59
                             4375.23  4442.61  4477.70  4521.28  4536.97
                             4552.83  4575.96  4585.43  4599.62  4608.67
                             4620.48  4651.62  4683.74  4688.59  4711.00
                             5057.50  5070.34  5202.60

 Zero-point correction=                           0.317085 (Hartree/Particle)
 Thermal correction to Energy=                    0.335447
 Thermal correction to Enthalpy=                  0.336391
 Thermal correction to Gibbs Free Energy=         0.267139
 Sum of electronic and zero-point Energies=           -876.376941
 Sum of electronic and thermal Energies=              -876.358579
 Sum of electronic and thermal Enthalpies=            -876.357635
 Sum of electronic and thermal Free Energies=         -876.426887

                     E (Thermal)             CV                S
                      KCal/Mol        Cal/Mol-Kelvin    Cal/Mol-Kelvin
 Total                  210.496             70.121            145.754
 Electronic               0.000              0.000              0.000
 Translational            0.889              2.981             42.680
 Rotational               0.889              2.981             34.144
 Vibrational            208.719             64.160             68.930
 Vibration     1          0.593              1.986              7.336
 Vibration     2          0.593              1.986              6.879
 Vibration     3          0.594              1.983              5.676
 Vibration     4          0.595              1.980              5.088
 Vibration     5          0.598              1.968              4.133
 Vibration     6          0.599              1.966              4.045
 Vibration     7          0.602              1.956              3.656
 Vibration     8          0.614              1.916              2.843
 Vibration     9          0.618              1.903              2.676
 Vibration    10          0.620              1.898              2.618
 Vibration    11          0.630              1.865              2.315
 Vibration    12          0.653              1.792              1.866
 Vibration    13          0.662              1.766              1.745
 Vibration    14          0.680              1.710              1.532
 Vibration    15          0.692              1.675              1.422
 Vibration    16          0.699              1.654              1.359
 Vibration    17          0.727              1.576              1.168
 Vibration    18          0.747              1.521              1.055
 Vibration    19          0.779              1.436              0.907
 Vibration    20          0.789              1.411              0.868
 Vibration    21          0.793              1.401              0.852
 Vibration    22          0.825              1.321              0.743
 Vibration    23          0.889              1.175              0.578
 Vibration    24          0.941              1.067              0.479
 Vibration    25          0.973              1.004              0.427
 Vibration    26          0.979              0.992              0.418

                           ! Non-Optimized Parameters !
 Normal termination of Gaussian 16 at Mon Dec 14 18:10:04 2020.

 ----------------------------------------------------------------------
 # B3LYP/6-311++G(d,p) empiricaldispersion=gd3bj scf=xqc pop=npa geom=c
 heck
 ----------------------------------------------------------------------

 ----------------------------------------
 CID_115319576_JID_10431_Energie_neutraal
 ----------------------------------------
 Structure from the checkpoint file:  "JID_10431.chk"
 Charge =  0 Multiplicity = 1

 SCF Done:  E(RB3LYP) =  -876.939351202     A.U. after   16 cycles
 Normal termination of Gaussian 16 at Mon Dec 14 18:17:29 2020.

 ----------------------------------------------------------------------
 # B3LYP/6-311++G(d,p) empiricaldispersion=gd3bj scf=xqc pop=npa geom=c
 heck
 ----------------------------------------------------------------------

 --------------------------------------
 CID_115319576_JID_10431_Energie_kation
 --------------------------------------
 Structure from the checkpoint file:  "JID_10431.chk"
 Charge =  1 Multiplicity = 2

 SCF Done:  E(UB3LYP) =  -876.658773573     A.U. after   33 cycles
 SCF Done:  E(UB3LYP) =  -876.658773572     a.u. after    1 cycles
 Normal termination of Gaussian 16 at Mon Dec 14 18:38:45 2020.
 Gaussian 16:  ES64L-G16RevA.03 25-Dec-2016

 ----------------------------------------------------------------------
 # B3LYP/6-311++G(d,p) empiricaldispersion=gd3bj scf=xqc pop=npa geom=c
 heck
 ----------------------------------------------------------------------

 -------------------------------------
 CID_115319576_JID_10431_Energie_anion
 -------------------------------------
 Structure from the checkpoint file:  "JID_10431.chk"
 Charge = -1 Multiplicity = 2

                         Standard orientation:
 ---------------------------------------------------------------------
 Center     Atomic      Atomic             Coordinates (Angstroms)
 Number     Number       Type             X           Y           Z
 ---------------------------------------------------------------------
      1          6           0        3.124622   -1.911866   -0.903606
      2          6           0        3.585196   -1.862283    0.521161
      3          6           0        2.351817   -1.082450    0.113112
      4          6           0        2.427019    0.415549    0.135498
      5          6           0        1.965504    1.090658    1.275998
      6          6           0        2.008779    2.480563    1.351183
      7          6           0        2.524774    3.226017    0.288352
      8          6           0        2.991965    2.565877   -0.847259
      9          6           0        2.938426    1.172974   -0.923457
     10          6           0        1.042324   -1.716428    0.566069
     11          8           0        1.015727   -2.666845    1.342233
     12          7           0       -0.110135   -1.194901    0.053228
     13          6           0       -0.263075   -0.218008   -1.009683
     14          6           0       -1.573015   -0.461129   -1.766376
     15          7           0       -2.742787   -0.295474   -0.923711
     16          6           0       -3.487229    0.837290   -0.738770
     17          6           0       -4.372953    0.567938    0.293961
     18          6           0       -4.066036   -0.759249    0.680071
     19          7           0       -3.075003   -1.271315   -0.055395
     20          7           0       -5.409137    1.380109    0.785168
     21          1           0        2.645968   -2.822408   -1.251953
     22          1           0        3.709567   -1.395874   -1.658690
     23          1           0        3.405808   -2.723875    1.154709
     24          1           0        4.471155   -1.277129    0.746260
     25          1           0        1.566434    0.513580    2.105747
     26          1           0        1.643349    2.982896    2.242706
     27          1           0        2.561854    4.310119    0.346439
     28          1           0        3.393372    3.134214   -1.682001
     29          1           0        3.285600    0.676099   -1.824198
     30          1           0       -0.966044   -1.623585    0.399042
     31          1           0       -0.254807    0.809139   -0.621280
     32          1           0        0.565492   -0.304138   -1.718393
     33          1           0       -1.655475    0.245982   -2.596568
     34          1           0       -1.597000   -1.477822   -2.167681
     35          1           0       -3.350856    1.713676   -1.355446
     36          1           0       -4.535464   -1.359347    1.448619
     37          1           0       -5.643575    1.161319    1.747531
     38          1           0       -5.200469    2.370260    0.714716
 ---------------------------------------------------------------------

 SCF Done:  E(UB3LYP) =  -876.933563157     A.U. after   33 cycles
 SCF Done:  E(UB3LYP) =  -876.933563157     a.u. after    1 cycles

 The electronic state is 2-A.
 Alpha  occ. eigenvalues --  -18.99673 -14.30007 -14.24208 -14.24105 -14.22401
 Alpha  occ. eigenvalues --  -10.18506 -10.13470 -10.12422 -10.11577 -10.11445
 Alpha  occ. eigenvalues --  -10.10791 -10.10311 -10.10277 -10.09797 -10.09347
 Alpha  occ. eigenvalues --  -10.09204 -10.09144 -10.08978 -10.08962 -10.08885
 Alpha  occ. eigenvalues --   -0.96497  -0.94839  -0.83594  -0.81730  -0.79924
 Alpha  occ. eigenvalues --   -0.76576  -0.75597  -0.68788  -0.67080  -0.66395
 Alpha  occ. eigenvalues --   -0.64803  -0.58076  -0.56595  -0.53491  -0.52482
 Alpha  occ. eigenvalues --   -0.51367  -0.50996  -0.49114  -0.47096  -0.45093
 Alpha  occ. eigenvalues --   -0.44198  -0.41919  -0.41216  -0.40239  -0.39143
 Alpha  occ. eigenvalues --   -0.38304  -0.37253  -0.36880  -0.36796  -0.35942
 Alpha  occ. eigenvalues --   -0.34867  -0.33955  -0.32774  -0.31944  -0.31155
 Alpha  occ. eigenvalues --   -0.30866  -0.30176  -0.29614  -0.29102  -0.28141
 Alpha  occ. eigenvalues --   -0.26800  -0.26467  -0.24036  -0.23400  -0.22334
 Alpha  occ. eigenvalues --   -0.21228  -0.17361  -0.17232  -0.16712  -0.16470
 Alpha  occ. eigenvalues --   -0.15653  -0.11649   0.03517
 Alpha virt. eigenvalues --    0.05211   0.06210   0.06427   0.06637   0.06859
 Alpha virt. eigenvalues --    0.07573   0.07782   0.08457   0.08753   0.08934
 Alpha virt. eigenvalues --    0.09405   0.09792   0.10136   0.10416   0.11226

  Beta  occ. eigenvalues --  -18.99673 -14.30007 -14.24204 -14.24104 -14.22345
  Beta  occ. eigenvalues --  -10.18505 -10.13449 -10.12410 -10.11578 -10.11444
  Beta  occ. eigenvalues --  -10.10766 -10.10302 -10.10251 -10.09789 -10.09341
  Beta  occ. eigenvalues --  -10.09194 -10.09136 -10.08978 -10.08942 -10.08850
  Beta  occ. eigenvalues --   -0.96491  -0.94838  -0.83584  -0.81655  -0.79905
  Beta  occ. eigenvalues --   -0.76544  -0.75578  -0.68757  -0.67025  -0.66358
  Beta  occ. eigenvalues --   -0.64772  -0.58052  -0.56557  -0.53465  -0.52445
  Beta  occ. eigenvalues --   -0.51328  -0.50955  -0.49072  -0.47071  -0.45061
  Beta  occ. eigenvalues --   -0.44155  -0.41892  -0.41198  -0.40173  -0.39108
  Beta  occ. eigenvalues --   -0.38257  -0.37221  -0.36852  -0.36765  -0.35919
  Beta  occ. eigenvalues --   -0.34852  -0.33930  -0.32748  -0.31920  -0.31123
  Beta  occ. eigenvalues --   -0.30839  -0.30149  -0.29591  -0.29071  -0.28100
  Beta  occ. eigenvalues --   -0.26774  -0.26437  -0.23999  -0.23361  -0.22315
  Beta  occ. eigenvalues --   -0.21217  -0.17311  -0.17222  -0.16678  -0.16458
  Beta  occ. eigenvalues --   -0.15562  -0.11615
  Beta virt. eigenvalues --    0.05809   0.06348   0.06448   0.06660   0.06860
  Beta virt. eigenvalues --    0.07345   0.07868   0.08342   0.08585   0.08900
  Beta virt. eigenvalues --    0.09077   0.09628   0.10080   0.10282   0.10749

 Mulliken charges and spin densities:
               1          2
     1  C    0.096231  -0.173086
     2  C   -0.520121   0.052962
     3  C    0.697580  -0.847007
     4  C    0.528350   0.230627
     5  C   -0.881011   0.907332
     6  C   -0.426218   0.050811
     7  C    0.693193  -0.947947
     8  C    0.515230  -0.923638
     9  C   -0.730474   0.552137
    10  C   -0.139888  -0.197120
    11  O   -0.287399   0.001412
    12  N   -0.163806   0.033118
    13  C   -0.725148   0.577596
    14  C    0.692335  -1.529139
    15  N    0.320063   0.021084
    16  C   -0.089767  -0.254262
    17  C    0.373975  -0.329588
    18  C    0.455400  -0.592324
    19  N   -0.345592   0.133633
    20  N   -0.331563  -0.029057
    21  H    0.147963   0.036149
    22  H    0.048089   0.105027
    23  H    0.191847   0.010322
    24  H    0.161572  -0.011055
    25  H    0.172403   0.046525
    26  H   -0.111923   0.282259
    27  H   -0.142890   0.306077
    28  H   -0.509363   0.699331
    29  H   -0.264914   0.410265
    30  H    0.414593  -0.044556
    31  H    0.415067  -0.219827
    32  H   -0.090088   0.276031
    33  H   -0.331466   0.559890
    34  H    0.100405   0.098148
    35  H   -0.628449   0.779101
    36  H    0.061118   0.075854
    37  H   -0.137340   0.378400
    38  H   -0.227995   0.474515
 Sum of Mulliken charges =  -1.00000   1.00000

 Dipole moment (field-independent basis, Debye):
    X=              4.8676    Y=             -4.1660    Z=              1.0920  Tot=              6.4993
 Quadrupole moment (field-independent basis, Debye-Ang):
   XX=           -205.7323   YY=           -177.4583   ZZ=           -157.5740
   XY=              7.5811   XZ=              4.9494   YZ=             10.1469

 Summary of Natural Population Analysis:

                                       Natural Population
                Natural  -----------------------------------------------
    Atom  No    Charge         Core      Valence    Rydberg      Total
 -----------------------------------------------------------------------
      C    1   -0.18632      0.99961     2.17897    0.00774     3.18632
      C    2   -0.18166      0.99960     2.17369    0.00838     3.18166
      C    3   -0.09036      0.99948     2.07761    0.01327     3.09036
      C    4   -0.01573      0.99948     2.00399    0.01226     3.01573
      C    5   -0.09795      0.99951     2.09000    0.00845     3.09795
      C    6   -0.09709      0.99956     2.08766    0.00987     3.09709
      C    7   -0.10012      0.99956     2.09053    0.01003     3.10012
      C    8   -0.09651      0.99956     2.08655    0.01040     3.09651
      C    9   -0.10055      0.99950     2.09109    0.00996     3.10055
      C   10    0.35022      0.99960     1.62701    0.02316     2.64978
      O   11   -0.32750      0.99988     3.32239    0.00523     4.32750
      N   12   -0.32289      0.99965     2.81430    0.00893     3.82289
      C   13   -0.09398      0.99961     2.08445    0.00993     3.09398
      C   14   -0.08308      0.99960     2.07162    0.01186     3.08308
      N   15   -0.10690      0.99967     2.59380    0.01344     3.60690
      C   16   -0.03176      0.99950     2.02056    0.01169     3.03176
      C   17    0.03174      0.99949     1.95718    0.01160     2.96826
      C   18   -0.03009      0.99958     2.01576    0.01475     3.03009
      N   19   -0.16415      0.99973     2.65353    0.01089     3.66415
      N   20   -0.40149      0.99973     2.89128    0.01049     3.90149
      H   21    0.10672      0.00000     0.39237    0.00091     0.39328
      H   22    0.10425      0.00000     0.39477    0.00099     0.39575
      H   23    0.11630      0.00000     0.38267    0.00103     0.38370
      H   24    0.10292      0.00000     0.39626    0.00082     0.39708
      H   25    0.10421      0.00000     0.39447    0.00131     0.39579
      H   26    0.10173      0.00000     0.39750    0.00077     0.39827
      H   27    0.10152      0.00000     0.39758    0.00091     0.39848
      H   28    0.10294      0.00000     0.39579    0.00127     0.39706
      H   29    0.10121      0.00000     0.39678    0.00201     0.39879
      H   30    0.20903      0.00000     0.28797    0.00299     0.29097
      H   31    0.09997      0.00000     0.39754    0.00249     0.40003
      H   32    0.10491      0.00000     0.39311    0.00197     0.39509
      H   33    0.10869      0.00000     0.38990    0.00140     0.39131
      H   34    0.10461      0.00000     0.39397    0.00143     0.39539
      H   35    0.10829      0.00000     0.39006    0.00166     0.39171
      H   36    0.09731      0.00000     0.40186    0.00083     0.40269
      H   37    0.18400      0.00000     0.31361    0.00239     0.31600
      H   38    0.18756      0.00000     0.30807    0.00437     0.31244
 =======================================================================
   * Total *    0.00000     19.99189    51.75625    0.25186    72.00000

 Normal termination of Gaussian 16 at Mon Dec 14 19:00:32 2020.
