 Gaussian 16, Revision A.03,

 -----------------------------------------------------------
 # opt freq B3LYP/6-31G(d) empiricaldispersion=gd3bj scf=xqc
 -----------------------------------------------------------

 ------------------------------
 CID_22012594_JID_6937_neutraal
 ------------------------------
 Symbolic Z-matrix:
 Charge =  0 Multiplicity = 1

 SCF Done:  E(RB3LYP) =  -654.082813713     A.U. after   15 cycles
 SCF Done:  E(RB3LYP) =  -654.085464637     A.U. after   15 cycles
 SCF Done:  E(RB3LYP) =  -654.085604576     A.U. after   13 cycles
 SCF Done:  E(RB3LYP) =  -654.086148782     A.U. after   12 cycles
 SCF Done:  E(RB3LYP) =  -654.086401284     A.U. after   12 cycles
 SCF Done:  E(RB3LYP) =  -654.086480508     A.U. after   11 cycles
 SCF Done:  E(RB3LYP) =  -654.086500360     A.U. after   11 cycles
 SCF Done:  E(RB3LYP) =  -654.086508806     A.U. after   10 cycles
 SCF Done:  E(RB3LYP) =  -654.086509907     A.U. after    9 cycles
 SCF Done:  E(RB3LYP) =  -654.086510175     A.U. after    8 cycles
 Optimization completed.
    -- Stationary point found.
 Normal termination of Gaussian 16 at Fri Dec 11 01:11:59 2020.

 --------------------------------------------------------------------
 #N Geom=AllCheck Guess=TCheck SCRF=Check GenChk RB3LYP/6-31G(d) Freq
 --------------------------------------------------------------------

 Structure from the checkpoint file:  "JID_6937.chk"
 ------------------------------
 CID_22012594_JID_6937_neutraal
 ------------------------------
 Charge =  0 Multiplicity = 1

 SCF Done:  E(RB3LYP) =  -654.086510175     A.U. after    1 cycles

  Exact polarizability: 202.706 -10.576 144.275  -8.871 -23.288 105.000
 Approx polarizability: 307.190  -6.718 246.821 -21.186 -68.511 190.443

                      1                      2                      3
                      A                      A                      A
 Frequencies --     53.2789                61.4916                73.6718
 Red. masses --      5.2569                 4.3906                 4.7188
 Frc consts  --      0.0088                 0.0098                 0.0151
 IR Inten    --      3.0321                 0.2017                 1.2042

                      4                      5                      6
                      A                      A                      A
 Frequencies --    100.8926               116.7023               137.4510
 Red. masses --      4.0611                 4.8240                 2.3312
 Frc consts  --      0.0244                 0.0387                 0.0259
 IR Inten    --      1.0458                 1.4357                 1.3162

                      7                      8                      9
                      A                      A                      A
 Frequencies --    181.1295               228.9879               294.4690
 Red. masses --      4.2495                 4.3654                 4.0739
 Frc consts  --      0.0821                 0.1349                 0.2081
 IR Inten    --      0.5805                 0.3574                 0.5114

                     10                     11                     12
                      A                      A                      A
 Frequencies --    296.2104               342.9126               397.2362
 Red. masses --      5.7725                 5.7837                 3.6409
 Frc consts  --      0.2984                 0.4007                 0.3385
 IR Inten    --      0.5986                 3.9652                 1.2457

                     13                     14                     15
                      A                      A                      A
 Frequencies --    419.6234               437.6322               486.7854
 Red. masses --      3.0645                 3.4433                 2.0934
 Frc consts  --      0.3179                 0.3885                 0.2923
 IR Inten    --      0.1738                 3.6537                 4.1308

                     16                     17                     18
                      A                      A                      A
 Frequencies --    539.3749               560.2885               582.0765
 Red. masses --      3.2550                 3.1225                 4.9089
 Frc consts  --      0.5579                 0.5775                 0.9799
 IR Inten    --      3.3611                 0.9621                12.8785

                     19                     20                     21
                      A                      A                      A
 Frequencies --    610.2534               632.5096               637.2471
 Red. masses --      3.7270                 6.7427                 6.3903
 Frc consts  --      0.8178                 1.5893                 1.5289
 IR Inten    --      0.3742                 3.3466                 0.9252

                     22                     23                     24
                      A                      A                      A
 Frequencies --    713.7222               717.5391               750.0009
 Red. masses --      4.9267                 1.9889                 2.8892
 Frc consts  --      1.4786                 0.6033                 0.9575
 IR Inten    --      4.4800                23.7391                 6.1669

                     25                     26                     27
                      A                      A                      A
 Frequencies --    765.4897               791.4843               792.5210
 Red. masses --      1.6834                 1.9677                 3.4246
 Frc consts  --      0.5812                 0.7263                 1.2673
 IR Inten    --     57.9763                 9.2262                 8.4026

                     28                     29                     30
                      A                      A                      A
 Frequencies --    829.4591               864.3161               894.5364
 Red. masses --      3.5253                 1.2525                 1.3901
 Frc consts  --      1.4290                 0.5513                 0.6554
 IR Inten    --     11.1668                 0.4208                 0.1362

                     31                     32                     33
                      A                      A                      A
 Frequencies --    933.4225               958.9519               972.3389
 Red. masses --      1.4046                 1.3770                 1.3406
 Frc consts  --      0.7211                 0.7461                 0.7468
 IR Inten    --      4.1955                 2.8425                 1.0134

                     34                     35                     36
                      A                      A                      A
 Frequencies --    981.9938               984.5000               991.7060
 Red. masses --      1.7894                 1.4405                 1.2736
 Frc consts  --      1.0166                 0.8226                 0.7380
 IR Inten    --     50.0517                17.1680                 1.9213

                     37                     38                     39
                      A                      A                      A
 Frequencies --    997.9845              1021.3382              1031.0214
 Red. masses --      1.2483                 6.2079                 4.7040
 Frc consts  --      0.7325                 3.8153                 2.9462
 IR Inten    --      0.5678                 1.3739                 0.7183

                     40                     41                     42
                      A                      A                      A
 Frequencies --   1035.4033              1067.9043              1078.0453
 Red. masses --      1.1925                 2.0935                 2.3228
 Frc consts  --      0.7532                 1.4066                 1.5905
 IR Inten    --     17.2551                 0.3454                 0.5306

                     43                     44                     45
                      A                      A                      A
 Frequencies --   1113.5038              1125.6804              1155.4590
 Red. masses --      1.6537                 2.0455                 1.6680
 Frc consts  --      1.2081                 1.5271                 1.3120
 IR Inten    --      3.0853                 2.6054                 5.6958

                     46                     47                     48
                      A                      A                      A
 Frequencies --   1194.7209              1198.3253              1218.8590
 Red. masses --      1.0965                 1.0950                 1.1372
 Frc consts  --      0.9221                 0.9264                 0.9954
 IR Inten    --      0.0646                 0.3388                 0.2955

                     49                     50                     51
                      A                      A                      A
 Frequencies --   1278.0150              1311.8529              1317.0496
 Red. masses --      1.8321                 2.5559                 1.5208
 Frc consts  --      1.7631                 2.5916                 1.5543
 IR Inten    --     19.2865                39.0259                 0.6624

                     52                     53                     54
                      A                      A                      A
 Frequencies --   1323.1596              1342.2111              1350.1739
 Red. masses --      3.0203                 2.7038                 6.2823
 Frc consts  --      3.1155                 2.8699                 6.7476
 IR Inten    --     60.0461                 1.8602                 2.5045

                     55                     56                     57
                      A                      A                      A
 Frequencies --   1371.3410              1460.8467              1481.8414
 Red. masses --      1.7330                 1.2409                 2.1463
 Frc consts  --      1.9202                 1.5602                 2.7768
 IR Inten    --      0.7892                17.6416                 8.3594

                     58                     59                     60
                      A                      A                      A
 Frequencies --   1500.3001              1524.5800              1553.0062
 Red. masses --      2.3440                 2.4042                 2.4843
 Frc consts  --      3.1086                 3.2924                 3.5302
 IR Inten    --     10.4249                15.0275                 2.5649

                     61                     62                     63
                      A                      A                      A
 Frequencies --   1621.3549              1641.1438              1657.7097
 Red. masses --      5.5368                 5.6688                 5.7123
 Frc consts  --      8.5757                 8.9958                 9.2487
 IR Inten    --      2.4716                 2.8069                13.9883

                     64                     65                     66
                      A                      A                      A
 Frequencies --   1665.5788              1701.6763              1747.1331
 Red. masses --      5.5559                 4.3274                11.1093
 Frc consts  --      9.0810                 7.3829                19.9797
 IR Inten    --      4.5260                 6.2611               171.7556

                     67                     68                     69
                      A                      A                      A
 Frequencies --   3174.6741              3182.3730              3187.5504
 Red. masses --      1.0584                 1.0851                 1.0857
 Frc consts  --      6.2848                 6.4750                 6.4992
 IR Inten    --      4.5897                 4.1628                 1.7623

                     70                     71                     72
                      A                      A                      A
 Frequencies --   3190.1926              3194.2954              3198.1209
 Red. masses --      1.0874                 1.0934                 1.0904
 Frc consts  --      6.5201                 6.5731                 6.5708
 IR Inten    --      2.1540                 5.3729                20.1251

                     73                     74                     75
                      A                      A                      A
 Frequencies --   3199.7398              3206.9986              3208.3574
 Red. masses --      1.0904                 1.0940                 1.0933
 Frc consts  --      6.5773                 6.6290                 6.6309
 IR Inten    --      6.3306                24.1931                22.6710

                     76                     77                     78
                      A                      A                      A
 Frequencies --   3214.6888              3217.4872              3259.2536
 Red. masses --      1.0975                 1.0966                 1.1162
 Frc consts  --      6.6827                 6.6884                 6.9862
 IR Inten    --     16.3795                17.9348                 9.5867

 - Thermochemistry -
 -------------------
 Temperature   298.150 Kelvin.  Pressure   1.00000 Atm.
 Atom     1 has atomic number  6 and mass  12.00000

 Molecular mass:   208.08882 amu.
 Principal axes and moments of inertia in atomic units:
                           1         2         3
     Eigenvalues --  2188.803163889.593034997.70460
           X            0.99982  -0.01893   0.00000
           Y            0.01893   0.99981   0.00374
           Z           -0.00007  -0.00374   0.99999
 This molecule is an asymmetric top.
 Rotational symmetry number  1.
 Warning -- assumption of classical behavior for rotation
           may cause significant error
 Rotational temperatures (Kelvin)      0.03957     0.02227     0.01733
 Rotational constants (GHZ):           0.82453     0.46399     0.36111
 Zero-point vibrational energy     590076.9 (Joules/Mol)
                                  141.03177 (Kcal/Mol)
 Warning -- explicit consideration of  19 degrees of freedom as
           vibrations may cause significant error
 Vibrational temperatures:     76.66    88.47   106.00   145.16   167.91
          (Kelvin)            197.76   260.61   329.46   423.68   426.18
                              493.37   571.53   603.74   629.66   700.38
                              776.04   806.13   837.48   878.02   910.04
                              916.86  1026.89  1032.38  1079.08  1101.37
                             1138.77  1140.26  1193.41  1243.56  1287.04
                             1342.99  1379.72  1398.98  1412.87  1416.48
                             1426.84  1435.88  1469.48  1483.41  1489.71
                             1536.48  1551.07  1602.08  1619.60  1662.45
                             1718.94  1724.12  1753.67  1838.78  1887.46
                             1894.94  1903.73  1931.14  1942.60  1973.05
                             2101.83  2132.04  2158.60  2193.53  2234.43
                             2332.77  2361.24  2385.07  2396.40  2448.33
                             2513.73  4567.65  4578.72  4586.17  4589.98
                             4595.88  4601.38  4603.71  4614.16  4616.11
                             4625.22  4629.25  4689.34

 Zero-point correction=                           0.224748 (Hartree/Particle)
 Thermal correction to Energy=                    0.237945
 Thermal correction to Enthalpy=                  0.238889
 Thermal correction to Gibbs Free Energy=         0.184379
 Sum of electronic and zero-point Energies=           -653.861762
 Sum of electronic and thermal Energies=              -653.848565
 Sum of electronic and thermal Enthalpies=            -653.847621
 Sum of electronic and thermal Free Energies=         -653.902131

                     E (Thermal)             CV                S
                      KCal/Mol        Cal/Mol-Kelvin    Cal/Mol-Kelvin
 Total                  149.313             51.608            114.727
 Electronic               0.000              0.000              0.000
 Translational            0.889              2.981             41.902
 Rotational               0.889              2.981             32.120
 Vibrational            147.535             45.646             40.705
 Vibration     1          0.596              1.976              4.692
 Vibration     2          0.597              1.973              4.409
 Vibration     3          0.599              1.966              4.053
 Vibration     4          0.604              1.948              3.437
 Vibration     5          0.608              1.936              3.154
 Vibration     6          0.614              1.916              2.839
 Vibration     7          0.630              1.865              2.317
 Vibration     8          0.652              1.797              1.887
 Vibration     9          0.689              1.684              1.448
 Vibration    10          0.690              1.681              1.438
 Vibration    11          0.722              1.590              1.199
 Vibration    12          0.764              1.476              0.973
 Vibration    13          0.782              1.428              0.893
 Vibration    14          0.798              1.388              0.834
 Vibration    15          0.843              1.279              0.692
 Vibration    16          0.894              1.163              0.567
 Vibration    17          0.916              1.117              0.523
 Vibration    18          0.939              1.070              0.482
 Vibration    19          0.969              1.010              0.432

 Optimization completed.
    -- Stationary point found.
 Normal termination of Gaussian 16 at Fri Dec 11 01:21:48 2020.

 ----------------------------------------------------------------------
 # B3LYP/6-311++G(d,p) empiricaldispersion=gd3bj scf=xqc pop=npa geom=c
 heck
 ----------------------------------------------------------------------

 --------------------------------------
 CID_22012594_JID_6937_Energie_neutraal
 --------------------------------------
 Structure from the checkpoint file:  "JID_6937.chk"
 Charge =  0 Multiplicity = 1

 SCF Done:  E(RB3LYP) =  -654.257784292     A.U. after   16 cycles
 Normal termination of Gaussian 16 at Fri Dec 11 01:26:12 2020.

 ----------------------------------------------------------------------
 # B3LYP/6-311++G(d,p) empiricaldispersion=gd3bj scf=xqc pop=npa geom=c
 heck
 ----------------------------------------------------------------------

 ------------------------------------
 CID_22012594_JID_6937_Energie_kation
 ------------------------------------
 Structure from the checkpoint file:  "JID_6937.chk"
 Charge =  1 Multiplicity = 2

 SCF Done:  E(UB3LYP) =  -653.954921826     A.U. after   27 cycles
 Normal termination of Gaussian 16 at Fri Dec 11 01:36:22 2020.
 Gaussian 16:  ES64L-G16RevA.03 25-Dec-2016

 ----------------------------------------------------------------------
 # B3LYP/6-311++G(d,p) empiricaldispersion=gd3bj scf=xqc pop=npa geom=c
 heck
 ----------------------------------------------------------------------

 -----------------------------------
 CID_22012594_JID_6937_Energie_anion
 -----------------------------------
 Structure from the checkpoint file:  "JID_6937.chk"
 Charge = -1 Multiplicity = 2

                         Standard orientation:
 ---------------------------------------------------------------------
 Center     Atomic      Atomic             Coordinates (Angstroms)
 Number     Number       Type             X           Y           Z
 ---------------------------------------------------------------------
      1          6           0       -0.132277    1.635696    2.078583
      2          6           0        0.070612    2.266058    0.918061
      3          6           0        0.950878    1.769580   -0.170232
      4          8           0        1.353568    2.544990   -1.029182
      5          6           0        1.427035    0.341342   -0.152076
      6          6           0        2.813174    0.145443   -0.183344
      7          6           0        3.355523   -1.133845   -0.105056
      8          6           0        2.504892   -2.237201   -0.017654
      9          6           0        1.124644   -2.053858   -0.027951
     10          6           0        0.560412   -0.771152   -0.101023
     11          6           0       -0.913569   -0.625149   -0.182925
     12          6           0       -1.750036   -1.328453    0.695197
     13          6           0       -3.134736   -1.186630    0.625912
     14          6           0       -3.706261   -0.343707   -0.328673
     15          6           0       -2.883208    0.351878   -1.215573
     16          6           0       -1.498756    0.210712   -1.145627
     17          1           0        0.299291    0.660504    2.281747
     18          1           0       -0.737657    2.077593    2.864544
     19          1           0       -0.345471    3.252801    0.729542
     20          1           0        3.457645    1.016120   -0.253266
     21          1           0        4.432908   -1.270071   -0.115307
     22          1           0        2.915327   -3.241505    0.037276
     23          1           0        0.462966   -2.914989   -0.013956
     24          1           0       -1.306841   -1.968177    1.453373
     25          1           0       -3.767627   -1.729713    1.322313
     26          1           0       -4.785375   -0.231713   -0.382169
     27          1           0       -3.319377    1.002215   -1.968505
     28          1           0       -0.864299    0.742733   -1.847848
 ---------------------------------------------------------------------

 SCF Done:  E(UB3LYP) =  -654.274488650     A.U. after   28 cycles

 The electronic state is 2-A.
 Alpha  occ. eigenvalues --  -18.91810 -10.06420 -10.05977 -10.05872 -10.05679
 Alpha  occ. eigenvalues --  -10.05266 -10.05079 -10.05044 -10.05022 -10.04930
 Alpha  occ. eigenvalues --  -10.04758 -10.04624 -10.04162 -10.03736 -10.01436
 Alpha  occ. eigenvalues --  -10.00942  -0.85941  -0.74548  -0.72343  -0.65601
 Alpha  occ. eigenvalues --   -0.63365  -0.62645  -0.61241  -0.59800  -0.50795
 Alpha  occ. eigenvalues --   -0.49930  -0.48079  -0.45878  -0.45473  -0.41435
 Alpha  occ. eigenvalues --   -0.39000  -0.36309  -0.34368  -0.34072  -0.32456
 Alpha  occ. eigenvalues --   -0.31462  -0.30655  -0.30162  -0.29814  -0.29623
 Alpha  occ. eigenvalues --   -0.26117  -0.25107  -0.24676  -0.24158  -0.23449
 Alpha  occ. eigenvalues --   -0.22424  -0.22304  -0.21340  -0.20179  -0.15550
 Alpha  occ. eigenvalues --   -0.13837  -0.12765  -0.12526  -0.10801  -0.08148
 Alpha  occ. eigenvalues --    0.04078
 Alpha virt. eigenvalues --    0.07860   0.08486   0.08709   0.09521   0.10193
 Alpha virt. eigenvalues --    0.10434   0.10621   0.11218   0.11387   0.12302
 Alpha virt. eigenvalues --    0.12548   0.12906   0.13504   0.13745   0.14690

  Beta  occ. eigenvalues --  -18.91225 -10.06108 -10.05982 -10.05862 -10.05644
  Beta  occ. eigenvalues --  -10.05184 -10.05039 -10.04993 -10.04960 -10.04941
  Beta  occ. eigenvalues --  -10.04739 -10.04506 -10.04131 -10.03679 -10.01467
  Beta  occ. eigenvalues --  -10.00610  -0.84895  -0.74412  -0.72199  -0.65419
  Beta  occ. eigenvalues --   -0.63032  -0.62432  -0.60970  -0.59649  -0.50464
  Beta  occ. eigenvalues --   -0.49707  -0.47770  -0.45700  -0.44942  -0.41316
  Beta  occ. eigenvalues --   -0.38847  -0.36108  -0.34234  -0.33952  -0.32319
  Beta  occ. eigenvalues --   -0.31335  -0.30545  -0.29949  -0.29583  -0.29482
  Beta  occ. eigenvalues --   -0.25840  -0.24895  -0.24384  -0.23678  -0.22937
  Beta  occ. eigenvalues --   -0.22154  -0.21656  -0.21105  -0.18960  -0.15061
  Beta  occ. eigenvalues --   -0.13417  -0.12334  -0.10859  -0.10230  -0.07527
  Beta virt. eigenvalues --    0.07802   0.08428   0.08810   0.09469   0.09663
  Beta virt. eigenvalues --    0.10258   0.10583   0.11032   0.11232   0.12231
  Beta virt. eigenvalues --    0.12456   0.12670   0.13399   0.13477   0.13748

 Mulliken charges and spin densities:
               1          2
     1  C   -0.831249   0.335673
     2  C    0.396030  -0.082723
     3  C   -0.758411   0.236191
     4  O   -0.336520   0.203562
     5  C    0.839795   0.010830
     6  C   -0.116035   0.010915
     7  C   -0.425081   0.016229
     8  C   -0.289191   0.096309
     9  C   -0.240144  -0.087561
    10  C    0.187944   0.096268
    11  C    1.079370   0.033821
    12  C   -0.339045   0.005789
    13  C   -0.475734   0.038922
    14  C   -0.232557  -0.012499
    15  C   -0.371799   0.063503
    16  C   -0.684770   0.036031
    17  H    0.105077  -0.019634
    18  H    0.092925  -0.010389
    19  H    0.141260   0.007859
    20  H    0.176222   0.001897
    21  H    0.120225   0.001021
    22  H    0.122127  -0.007709
    23  H    0.127371  -0.000256
    24  H    0.147766   0.000894
    25  H    0.109007   0.020665
    26  H    0.110580  -0.002138
    27  H    0.139991  -0.003738
    28  H    0.204847   0.010268
 Sum of Mulliken charges =  -1.00000   1.00000

 Dipole moment (field-independent basis, Debye):
    X=             -2.4340    Y=             -4.7033    Z=              0.8926  Tot=              5.3704
 Quadrupole moment (field-independent basis, Debye-Ang):
   XX=           -115.6270   YY=           -120.4371   ZZ=           -109.6375
   XY=             -7.2819   XZ=              2.5097   YZ=              0.1939

 Summary of Natural Population Analysis:

                                       Natural Population
                Natural  -----------------------------------------------
    Atom  No    Charge         Core      Valence    Rydberg      Total
 -----------------------------------------------------------------------
      C    1   -0.10720      0.99959     2.10090    0.00671     3.10720
      C    2   -0.14398      0.99954     2.13387    0.01057     3.14398
      C    3    0.28052      0.99959     1.69784    0.02206     2.71948
      O    4   -0.24281      0.99988     3.23657    0.00635     4.24281
      C    5   -0.02724      0.99945     2.01458    0.01321     3.02724
      C    6   -0.08089      0.99953     2.07297    0.00840     3.08089
      C    7   -0.10980      0.99957     2.10123    0.00899     3.10980
      C    8   -0.08895      0.99957     2.08029    0.00909     3.08895
      C    9   -0.10834      0.99953     2.10102    0.00779     3.10834
      C   10   -0.00492      0.99945     1.99395    0.01152     3.00492
      C   11   -0.01527      0.99949     2.00425    0.01152     3.01527
      C   12   -0.08317      0.99952     2.07553    0.00812     3.08317
      C   13   -0.10408      0.99957     2.09563    0.00888     3.10408
      C   14   -0.10616      0.99957     2.09745    0.00914     3.10616
      C   15   -0.08902      0.99957     2.08050    0.00895     3.08902
      C   16   -0.09207      0.99952     2.08416    0.00838     3.09207
      H   17    0.08621      0.00000     0.41276    0.00103     0.41379
      H   18    0.07971      0.00000     0.41894    0.00135     0.42029
      H   19    0.09172      0.00000     0.40655    0.00174     0.40828
      H   20    0.10276      0.00000     0.39586    0.00138     0.39724
      H   21    0.09182      0.00000     0.40719    0.00099     0.40818
      H   22    0.09045      0.00000     0.40856    0.00099     0.40955
      H   23    0.09563      0.00000     0.40302    0.00135     0.40437
      H   24    0.09710      0.00000     0.40158    0.00131     0.40290
      H   25    0.09211      0.00000     0.40646    0.00142     0.40789
      H   26    0.09189      0.00000     0.40710    0.00101     0.40811
      H   27    0.09385      0.00000     0.40520    0.00095     0.40615
      H   28    0.11011      0.00000     0.38863    0.00126     0.38989
 =======================================================================
   * Total *    0.00000     15.99295    38.83259    0.17446    55.00000

 Normal termination of Gaussian 16 at Fri Dec 11 01:47:07 2020.
