 Gaussian 16, Revision A.03,

 -----------------------------------------------------------
 # opt freq B3LYP/6-31G(d) empiricaldispersion=gd3bj scf=xqc
 -----------------------------------------------------------

 -------------------------------
 CID_152848540_JID_4627_neutraal
 -------------------------------
 Symbolic Z-matrix:
 Charge =  0 Multiplicity = 1

 SCF Done:  E(RB3LYP) =  -599.929442425     A.U. after   15 cycles
 SCF Done:  E(RB3LYP) =  -599.925680201     A.U. after   13 cycles
 SCF Done:  E(RB3LYP) =  -599.931698629     A.U. after   13 cycles
 SCF Done:  E(RB3LYP) =  -599.932883834     A.U. after   12 cycles
 SCF Done:  E(RB3LYP) =  -599.933593326     A.U. after   12 cycles
 SCF Done:  E(RB3LYP) =  -599.934300882     A.U. after   11 cycles
 SCF Done:  E(RB3LYP) =  -599.934422846     A.U. after   11 cycles
 SCF Done:  E(RB3LYP) =  -599.934493788     A.U. after   11 cycles
 SCF Done:  E(RB3LYP) =  -599.934545151     A.U. after   11 cycles
 SCF Done:  E(RB3LYP) =  -599.934580207     A.U. after   10 cycles
 SCF Done:  E(RB3LYP) =  -599.934615334     A.U. after    7 cycles
 SCF Done:  E(RB3LYP) =  -599.934615593     A.U. after    7 cycles
 SCF Done:  E(RB3LYP) =  -599.934615745     A.U. after    7 cycles
 SCF Done:  E(RB3LYP) =  -599.934615892     A.U. after    7 cycles
 SCF Done:  E(RB3LYP) =  -599.934615938     A.U. after    7 cycles
 Optimization completed.
    -- Stationary point found.
 Normal termination of Gaussian 16 at Thu Dec 10 10:21:37 2020.

 --------------------------------------------------------------------
 #N Geom=AllCheck Guess=TCheck SCRF=Check GenChk RB3LYP/6-31G(d) Freq
 --------------------------------------------------------------------

 Structure from the checkpoint file:  "JID_4627.chk"
 -------------------------------
 CID_152848540_JID_4627_neutraal
 -------------------------------
 Charge =  0 Multiplicity = 1

 SCF Done:  E(RB3LYP) =  -599.934615938     A.U. after    1 cycles

  Exact polarizability: 138.161 -12.522 142.761   1.560 -11.995 124.796
 Approx polarizability: 185.947 -22.066 223.490  13.824 -24.061 195.577

                      1                      2                      3
                      A                      A                      A
 Frequencies --     37.7318                52.6761                65.9665
 Red. masses --      3.4457                 4.5133                 3.0113
 Frc consts  --      0.0029                 0.0074                 0.0077
 IR Inten    --      0.3797                 1.8701                 0.3690

                      4                      5                      6
                      A                      A                      A
 Frequencies --     95.2692               112.2564               125.4237
 Red. masses --      2.6250                 1.4663                 2.6070
 Frc consts  --      0.0140                 0.0109                 0.0242
 IR Inten    --      0.1589                 1.7256                 0.3595

                      7                      8                      9
                      A                      A                      A
 Frequencies --    151.3806               161.6895               184.2341
 Red. masses --      2.4325                 2.9844                 2.8292
 Frc consts  --      0.0328                 0.0460                 0.0566
 IR Inten    --      0.9340                 0.0411                 0.8462

                     10                     11                     12
                      A                      A                      A
 Frequencies --    215.3558               237.3759               253.2163
 Red. masses --      1.8695                 1.6889                 1.4757
 Frc consts  --      0.0511                 0.0561                 0.0557
 IR Inten    --      0.0540                 0.4692                 0.6965

                     13                     14                     15
                      A                      A                      A
 Frequencies --    268.7855               282.3104               295.8892
 Red. masses --      1.6490                 1.4148                 2.6201
 Frc consts  --      0.0702                 0.0664                 0.1352
 IR Inten    --      0.5053                 0.1351                 1.7452

                     16                     17                     18
                      A                      A                      A
 Frequencies --    320.0667               332.2707               343.2905
 Red. masses --      2.6333                 1.6183                 2.8783
 Frc consts  --      0.1589                 0.1053                 0.1998
 IR Inten    --      1.5931                 0.5629                 1.6137

                     19                     20                     21
                      A                      A                      A
 Frequencies --    350.8559               388.3737               414.1809
 Red. masses --      2.4269                 2.5817                 2.6730
 Frc consts  --      0.1760                 0.2294                 0.2702
 IR Inten    --      3.4814                 0.3311                 1.8521

                     22                     23                     24
                      A                      A                      A
 Frequencies --    489.9702               535.4506               552.9461
 Red. masses --      2.9223                 2.8655                 2.9157
 Frc consts  --      0.4133                 0.4840                 0.5252
 IR Inten    --      7.7223                 4.5308                 7.0534

                     25                     26                     27
                      A                      A                      A
 Frequencies --    599.6030               635.1128               665.4670
 Red. masses --      2.8247                 1.6465                 3.8015
 Frc consts  --      0.5983                 0.3913                 0.9919
 IR Inten    --      3.1509                13.7513                 1.2813

                     28                     29                     30
                      A                      A                      A
 Frequencies --    721.4755               759.3772               771.9946
 Red. masses --      1.5590                 1.8259                 1.5317
 Frc consts  --      0.4781                 0.6203                 0.5378
 IR Inten    --     36.0099                 6.0216                20.0587

                     31                     32                     33
                      A                      A                      A
 Frequencies --    790.0388               805.7400               826.5877
 Red. masses --      1.2431                 1.7053                 3.2424
 Frc consts  --      0.4572                 0.6523                 1.3053
 IR Inten    --      1.0122                11.8226                20.6959

                     34                     35                     36
                      A                      A                      A
 Frequencies --    832.3636               898.4386               913.8722
 Red. masses --      1.5701                 2.0322                 1.7220
 Frc consts  --      0.6409                 0.9665                 0.8473
 IR Inten    --     14.1771                 2.4528                25.4843

                     37                     38                     39
                      A                      A                      A
 Frequencies --    924.1670               987.5291               993.9774
 Red. masses --      1.7384                 1.7146                 1.4987
 Frc consts  --      0.8748                 0.9852                 0.8724
 IR Inten    --     22.4531                 4.1396                 9.3279

                     40                     41                     42
                      A                      A                      A
 Frequencies --   1002.8806              1016.3314              1030.9770
 Red. masses --      1.3942                 1.9361                 1.5294
 Frc consts  --      0.8262                 1.1783                 0.9578
 IR Inten    --      1.8100                 3.9354                 5.2321

                     43                     44                     45
                      A                      A                      A
 Frequencies --   1033.5261              1066.3965              1076.5560
 Red. masses --      1.8613                 1.7035                 1.4981
 Frc consts  --      1.1714                 1.1414                 1.0230
 IR Inten    --      3.9149                 2.4535                 3.9443

                     46                     47                     48
                      A                      A                      A
 Frequencies --   1107.7090              1110.4422              1111.9709
 Red. masses --      1.8549                 1.7535                 1.6127
 Frc consts  --      1.3410                 1.2739                 1.1749
 IR Inten    --      2.2259                 3.4320                 1.2439

                     49                     50                     51
                      A                      A                      A
 Frequencies --   1196.7393              1216.7606              1246.7639
 Red. masses --      2.4131                 2.3179                 2.6185
 Frc consts  --      2.0363                 2.0218                 2.3981
 IR Inten    --     10.4668                 2.1668                82.4680

                     52                     53                     54
                      A                      A                      A
 Frequencies --   1259.0293              1315.6542              1328.5696
 Red. masses --      2.1967                 1.3727                 1.2429
 Frc consts  --      2.0516                 1.3999                 1.2926
 IR Inten    --      3.2276                61.9057                 8.8476

                     55                     56                     57
                      A                      A                      A
 Frequencies --   1358.3101              1391.7269              1397.2122
 Red. masses --      1.2852                 1.4355                 2.2085
 Frc consts  --      1.3971                 1.6382                 2.5402
 IR Inten    --     23.9689                 0.8761                83.9035

                     58                     59                     60
                      A                      A                      A
 Frequencies --   1398.9435              1427.3761              1438.5401
 Red. masses --      1.4401                 1.5146                 1.2708
 Frc consts  --      1.6605                 1.8181                 1.5494
 IR Inten    --      9.6478                31.3459                13.9704

                     61                     62                     63
                      A                      A                      A
 Frequencies --   1442.9414              1445.8697              1449.8080
 Red. masses --      1.2328                 1.2514                 1.3997
 Frc consts  --      1.5123                 1.5414                 1.7334
 IR Inten    --      6.5783                 2.5727                26.5233

                     64                     65                     66
                      A                      A                      A
 Frequencies --   1483.1817              1491.7532              1509.6454
 Red. masses --      1.3010                 1.3523                 1.0691
 Frc consts  --      1.6863                 1.7730                 1.4355
 IR Inten    --     28.9797                19.0544                 7.6290

                     67                     68                     69
                      A                      A                      A
 Frequencies --   1510.9630              1519.6805              1526.1291
 Red. masses --      1.0688                 1.0497                 1.0986
 Frc consts  --      1.4376                 1.4283                 1.5075
 IR Inten    --      1.8681                 4.8981                11.8022

                     70                     71                     72
                      A                      A                      A
 Frequencies --   1531.3638              1532.8627              1537.0742
 Red. masses --      1.0608                 1.0507                 1.0648
 Frc consts  --      1.4656                 1.4546                 1.4822
 IR Inten    --      3.2909                 6.4700                22.8248

                     73                     74                     75
                      A                      A                      A
 Frequencies --   1538.4682              1543.2770              1547.2800
 Red. masses --      1.0589                 1.0519                 1.0715
 Frc consts  --      1.4766                 1.4761                 1.5115
 IR Inten    --      1.1453                10.1999                 2.4711

                     76                     77                     78
                      A                      A                      A
 Frequencies --   1675.9682              1719.3052              1741.3817
 Red. masses --      4.3963                 6.3181                 6.7337
 Frc consts  --      7.2757                11.0038                12.0308
 IR Inten    --      5.1518                23.9815               266.0122

                     79                     80                     81
                      A                      A                      A
 Frequencies --   3030.1411              3035.2477              3049.8726
 Red. masses --      1.0601                 1.0491                 1.0660
 Frc consts  --      5.7347                 5.6943                 5.8424
 IR Inten    --     22.5948                22.8123                19.2033

                     82                     83                     84
                      A                      A                      A
 Frequencies --   3053.8635              3061.5361              3064.9654
 Red. masses --      1.0479                 1.0372                 1.0402
 Frc consts  --      5.7582                 5.7277                 5.7574
 IR Inten    --     30.9158                18.1135                25.0506

                     85                     86                     87
                      A                      A                      A
 Frequencies --   3066.9455              3095.4623              3114.8007
 Red. masses --      1.0989                 1.0913                 1.1006
 Frc consts  --      6.0902                 6.1608                 6.2915
 IR Inten    --     30.9076                31.8255                32.1357

                     88                     89                     90
                      A                      A                      A
 Frequencies --   3118.2513              3122.8369              3138.6139
 Red. masses --      1.0993                 1.1009                 1.0860
 Frc consts  --      6.2978                 6.3253                 6.3030
 IR Inten    --     18.9258                39.8397                 6.7631

                     91                     92                     93
                      A                      A                      A
 Frequencies --   3138.8886              3147.4115              3150.1405
 Red. masses --      1.0998                 1.0905                 1.1007
 Frc consts  --      6.3841                 6.3647                 6.4356
 IR Inten    --     22.4352                21.1352                21.3808

                     94                     95                     96
                      A                      A                      A
 Frequencies --   3159.4492              3163.6830              3171.6847
 Red. masses --      1.0934                 1.0983                 1.0893
 Frc consts  --      6.4305                 6.4770                 6.4562
 IR Inten    --     20.2000                20.4427                 9.3931

                     97                     98                     99
                      A                      A                      A
 Frequencies --   3172.7995              3265.5774              3525.0714
 Red. masses --      1.0681                 1.1133                 1.0737
 Frc consts  --      6.3350                 6.9950                 7.8606
 IR Inten    --     15.6148                 6.9208                 8.1654

 - Thermochemistry -
 -------------------
 Temperature   298.150 Kelvin.  Pressure   1.00000 Atm.
 Atom     1 has atomic number  6 and mass  12.00000

 Molecular mass:   195.16231 amu.
 Principal axes and moments of inertia in atomic units:
                           1         2         3
     Eigenvalues --  2153.076783111.855913670.60879
           X            0.99925  -0.03863  -0.00063
           Y            0.03853   0.99758  -0.05788
           Z            0.00287   0.05781   0.99832
 This molecule is an asymmetric top.
 Rotational symmetry number  1.
 Warning -- assumption of classical behavior for rotation
           may cause significant error
 Rotational temperatures (Kelvin)      0.04023     0.02783     0.02360
 Rotational constants (GHZ):           0.83821     0.57996     0.49167
 Zero-point vibrational energy     822548.2 (Joules/Mol)
                                  196.59374 (Kcal/Mol)
 Warning -- explicit consideration of  25 degrees of freedom as
           vibrations may cause significant error
 Vibrational temperatures:     54.29    75.79    94.91   137.07   161.51
          (Kelvin)            180.46   217.80   232.64   265.07   309.85
                              341.53   364.32   386.72   406.18   425.72
                              460.50   478.06   493.92   504.80   558.78
                              595.91   704.96   770.39   795.57   862.70
                              913.79   957.46  1038.04  1092.57  1110.73
                             1136.69  1159.28  1189.28  1197.59  1292.65
                             1314.86  1329.67  1420.83  1430.11  1442.92
                             1462.27  1483.35  1487.01  1534.31  1548.92
                             1593.75  1597.68  1599.88  1721.84  1750.65
                             1793.82  1811.46  1892.93  1911.52  1954.31
                             2002.38  2010.28  2012.77  2053.68  2069.74
                             2076.07  2080.28  2085.95  2133.97  2146.30
                             2172.04  2173.94  2186.48  2195.76  2203.29
                             2205.45  2211.51  2213.51  2220.43  2226.19
                             2411.34  2473.70  2505.46  4359.70  4367.04
                             4388.09  4393.83  4404.87  4409.80  4412.65
                             4453.68  4481.50  4486.47  4493.07  4515.77
                             4516.16  4528.42  4532.35  4545.74  4551.83
                             4563.35  4564.95  4698.44  5071.79

 Zero-point correction=                           0.313292 (Hartree/Particle)
 Thermal correction to Energy=                    0.329910
 Thermal correction to Enthalpy=                  0.330855
 Thermal correction to Gibbs Free Energy=         0.269980
 Sum of electronic and zero-point Energies=           -599.621324
 Sum of electronic and thermal Energies=              -599.604705
 Sum of electronic and thermal Enthalpies=            -599.603761
 Sum of electronic and thermal Free Energies=         -599.664635

                     E (Thermal)             CV                S
                      KCal/Mol        Cal/Mol-Kelvin    Cal/Mol-Kelvin
 Total                  207.022             62.306            128.120
 Electronic               0.000              0.000              0.000
 Translational            0.889              2.981             41.711
 Rotational               0.889              2.981             31.576
 Vibrational            205.244             56.345             54.834
 Vibration     1          0.594              1.982              5.375
 Vibration     2          0.596              1.977              4.714
 Vibration     3          0.597              1.971              4.270
 Vibration     4          0.603              1.953              3.549
 Vibration     5          0.607              1.939              3.230
 Vibration     6          0.610              1.928              3.015
 Vibration     7          0.619              1.901              2.655
 Vibration     8          0.622              1.889              2.530
 Vibration     9          0.631              1.861              2.285
 Vibration    10          0.645              1.818              1.998
 Vibration    11          0.656              1.783              1.822
 Vibration    12          0.664              1.757              1.708
 Vibration    13          0.673              1.731              1.604
 Vibration    14          0.681              1.706              1.520
 Vibration    15          0.690              1.681              1.440
 Vibration    16          0.706              1.635              1.310
 Vibration    17          0.714              1.611              1.249
 Vibration    18          0.722              1.589              1.197
 Vibration    19          0.728              1.573              1.162
 Vibration    20          0.757              1.495              1.006
 Vibration    21          0.778              1.439              0.912
 Vibration    22          0.846              1.272              0.684
 Vibration    23          0.890              1.172              0.575
 Vibration    24          0.908              1.133              0.538
 Vibration    25          0.958              1.033              0.450

 Optimization completed.
    -- Stationary point found.
 Normal termination of Gaussian 16 at Thu Dec 10 10:33:39 2020.

 ----------------------------------------------------------------------
 # B3LYP/6-311++G(d,p) empiricaldispersion=gd3bj scf=xqc pop=npa geom=c
 heck
 ----------------------------------------------------------------------

 ---------------------------------------
 CID_152848540_JID_4627_Energie_neutraal
 ---------------------------------------
 Structure from the checkpoint file:  "JID_4627.chk"
 Charge =  0 Multiplicity = 1

 SCF Done:  E(RB3LYP) =  -600.108062149     A.U. after   16 cycles
 Normal termination of Gaussian 16 at Thu Dec 10 10:39:11 2020.

 ----------------------------------------------------------------------
 # B3LYP/6-311++G(d,p) empiricaldispersion=gd3bj scf=xqc pop=npa geom=c
 heck
 ----------------------------------------------------------------------

 -------------------------------------
 CID_152848540_JID_4627_Energie_kation
 -------------------------------------
 Structure from the checkpoint file:  "JID_4627.chk"
 Charge =  1 Multiplicity = 2

 SCF Done:  E(UB3LYP) =  -599.806917623     A.U. after   27 cycles
 Normal termination of Gaussian 16 at Thu Dec 10 10:51:16 2020.
 Gaussian 16:  ES64L-G16RevA.03 25-Dec-2016

 ----------------------------------------------------------------------
 # B3LYP/6-311++G(d,p) empiricaldispersion=gd3bj scf=xqc pop=npa geom=c
 heck
 ----------------------------------------------------------------------

 ------------------------------------
 CID_152848540_JID_4627_Energie_anion
 ------------------------------------
 Structure from the checkpoint file:  "JID_4627.chk"
 Charge = -1 Multiplicity = 2

                         Standard orientation:
 ---------------------------------------------------------------------
 Center     Atomic      Atomic             Coordinates (Angstroms)
 Number     Number       Type             X           Y           Z
 ---------------------------------------------------------------------
      1          6           0        0.210430    2.214071    1.362151
      2          6           0        1.093213    0.970291    1.219352
      3          6           0        1.507822    0.603027   -0.220990
      4          6           0        1.953180    1.864036   -0.981738
      5          6           0        2.707342   -0.382204   -0.211032
      6          6           0        2.463217   -1.750499    0.423019
      7          7           0        0.396629    0.032827   -1.029204
      8          6           0       -0.527822   -0.965834   -0.813313
      9          8           0       -0.915730   -1.650079   -1.758307
     10          6           0       -1.172292   -1.141297    0.542437
     11          6           0       -0.889475   -2.238995    1.263107
     12          6           0       -2.180865   -0.184318    1.013142
     13          6           0       -2.858462    0.753257    0.327808
     14          6           0       -2.777487    1.102440   -1.131235
     15          1           0        0.767511    3.131844    1.147895
     16          1           0       -0.170661    2.290387    2.385963
     17          1           0       -0.652227    2.170029    0.694826
     18          1           0        2.022839    1.129097    1.780981
     19          1           0        0.603208    0.113913    1.684679
     20          1           0        2.757834    2.372476   -0.440509
     21          1           0        2.335107    1.601164   -1.975724
     22          1           0        1.123413    2.562886   -1.110307
     23          1           0        3.031696   -0.528157   -1.250429
     24          1           0        3.540181    0.118109    0.300750
     25          1           0        1.723790   -2.322054   -0.145577
     26          1           0        3.390917   -2.332916    0.430310
     27          1           0        2.110880   -1.670884    1.455918
     28          1           0        0.636318    0.011241   -2.017533
     29          1           0       -1.382167   -2.425303    2.213940
     30          1           0       -0.180382   -2.984158    0.922654
     31          1           0       -2.425616   -0.299060    2.068691
     32          1           0       -3.567503    1.343808    0.907160
     33          1           0       -2.466858    0.257112   -1.746542
     34          1           0       -3.754992    1.444655   -1.488258
     35          1           0       -2.066663    1.922807   -1.304272
 ---------------------------------------------------------------------

 SCF Done:  E(UB3LYP) =  -600.098449959     A.U. after   33 cycles
 SCF Done:  E(UB3LYP) =  -600.098449959     a.u. after    1 cycles

 The electronic state is 2-A.
 Alpha  occ. eigenvalues --  -18.96809 -14.21311 -10.15288 -10.11340 -10.06211
 Alpha  occ. eigenvalues --  -10.05521 -10.05502 -10.05145 -10.05120 -10.04548
 Alpha  occ. eigenvalues --  -10.04500 -10.04404 -10.04097 -10.02849  -0.91889
 Alpha  occ. eigenvalues --   -0.80560  -0.69650  -0.68874  -0.64749  -0.63970
 Alpha  occ. eigenvalues --   -0.61428  -0.56314  -0.54443  -0.51486  -0.50746
 Alpha  occ. eigenvalues --   -0.46840  -0.44944  -0.39801  -0.37116  -0.36095
 Alpha  occ. eigenvalues --   -0.35612  -0.34129  -0.33310  -0.32350  -0.31951
 Alpha  occ. eigenvalues --   -0.31271  -0.29500  -0.29247  -0.28380  -0.27935
 Alpha  occ. eigenvalues --   -0.27347  -0.26736  -0.25607  -0.25291  -0.24769
 Alpha  occ. eigenvalues --   -0.24282  -0.23096  -0.22495  -0.21650  -0.21227
 Alpha  occ. eigenvalues --   -0.18774  -0.14456  -0.13053  -0.10649   0.04973
 Alpha virt. eigenvalues --    0.06682   0.08022   0.08365   0.08560   0.09761
 Alpha virt. eigenvalues --    0.10058   0.10455   0.10603   0.11656   0.11836
 Alpha virt. eigenvalues --    0.12440   0.12835   0.12972   0.13317   0.13949

  Beta  occ. eigenvalues --  -18.96754 -14.21306 -10.15276 -10.11340 -10.06190
  Beta  occ. eigenvalues --  -10.05517 -10.05493 -10.05073 -10.05051 -10.04537
  Beta  occ. eigenvalues --  -10.04514 -10.04376 -10.03892 -10.02578  -0.91800
  Beta  occ. eigenvalues --   -0.80529  -0.69562  -0.68600  -0.64718  -0.63647
  Beta  occ. eigenvalues --   -0.61372  -0.56167  -0.54392  -0.51264  -0.50644
  Beta  occ. eigenvalues --   -0.46621  -0.44676  -0.39687  -0.37050  -0.35998
  Beta  occ. eigenvalues --   -0.35484  -0.34069  -0.33228  -0.32282  -0.31910
  Beta  occ. eigenvalues --   -0.31134  -0.29318  -0.29132  -0.28307  -0.27836
  Beta  occ. eigenvalues --   -0.27290  -0.26705  -0.25546  -0.25175  -0.24712
  Beta  occ. eigenvalues --   -0.24221  -0.23043  -0.22425  -0.21511  -0.21148
  Beta  occ. eigenvalues --   -0.18063  -0.14376  -0.12862  -0.09335
  Beta virt. eigenvalues --    0.07346   0.08093   0.08435   0.08977   0.09391
  Beta virt. eigenvalues --    0.09956   0.10281   0.10565   0.10955   0.11842
  Beta virt. eigenvalues --    0.12108   0.12588   0.12965   0.13076   0.13471

 Mulliken charges and spin densities:
               1          2
     1  C   -0.303691  -0.355110
     2  C    0.278913  -0.512936
     3  C   -1.433192   1.765289
     4  C    1.680753  -2.149318
     5  C    0.530002  -0.858331
     6  C   -0.864130   0.246865
     7  N    0.001011   0.007671
     8  C   -1.196186  -0.055530
     9  O   -0.205696   0.018416
    10  C    0.794625   0.112913
    11  C   -0.570181   0.326579
    12  C    0.351363  -0.120713
    13  C   -0.409188   0.251206
    14  C   -0.373722  -0.226480
    15  H   -0.097908   0.240293
    16  H    0.107419   0.020843
    17  H    0.234580  -0.037428
    18  H   -0.136904   0.319991
    19  H    0.243359  -0.070139
    20  H   -0.468196   0.637982
    21  H   -0.436820   0.572311
    22  H   -0.024388   0.186447
    23  H    0.035563   0.081942
    24  H   -0.148989   0.299699
    25  H    0.206857   0.006041
    26  H    0.016525   0.122842
    27  H    0.172635  -0.011660
    28  H    0.265155   0.027104
    29  H    0.098565  -0.010736
    30  H    0.085716   0.001480
    31  H    0.150541  -0.002555
    32  H    0.119190  -0.010570
    33  H    0.189485   0.007005
    34  H    0.118801   0.014784
    35  H   -0.011869   0.153805
 Sum of Mulliken charges =  -1.00000   1.00000

 Dipole moment (field-independent basis, Debye):
    X=             -1.7624    Y=             -1.0550    Z=              2.5266  Tot=              3.2562
 Quadrupole moment (field-independent basis, Debye-Ang):
   XX=           -137.4990   YY=           -129.9498   ZZ=           -115.6549
   XY=            -18.4606   XZ=             -0.8672   YZ=             -1.1327

 Summary of Natural Population Analysis:

                                       Natural Population
                Natural  -----------------------------------------------
    Atom  No    Charge         Core      Valence    Rydberg      Total
 -----------------------------------------------------------------------
      C    1   -0.28828      0.99966     2.28277    0.00586     3.28828
      C    2   -0.20116      0.99958     2.19184    0.00974     3.20116
      C    3    0.06511      0.99954     1.92007    0.01529     2.93489
      C    4   -0.28740      0.99962     2.28009    0.00769     3.28740
      C    5   -0.19002      0.99958     2.18082    0.00962     3.19002
      C    6   -0.28851      0.99966     2.28341    0.00545     3.28851
      N    7   -0.33111      0.99964     2.81874    0.01272     3.83111
      C    8    0.34572      0.99960     1.62939    0.02528     2.65428
      O    9   -0.32022      0.99988     3.31502    0.00532     4.32022
      C   10   -0.06643      0.99943     2.05384    0.01316     3.06643
      C   11   -0.12086      0.99954     2.11529    0.00603     3.12086
      C   12   -0.10957      0.99949     2.09998    0.01010     3.10957
      C   13   -0.05059      0.99955     2.04210    0.00894     3.05059
      C   14   -0.31250      0.99965     2.30753    0.00533     3.31250
      H   15    0.09456      0.00000     0.40461    0.00084     0.40544
      H   16    0.09623      0.00000     0.40308    0.00069     0.40377
      H   17    0.10717      0.00000     0.39165    0.00118     0.39283
      H   18    0.09780      0.00000     0.40124    0.00095     0.40220
      H   19    0.11261      0.00000     0.38610    0.00129     0.38739
      H   20    0.10534      0.00000     0.39222    0.00244     0.39466
      H   21    0.09885      0.00000     0.39959    0.00156     0.40115
      H   22    0.10579      0.00000     0.39289    0.00132     0.39421
      H   23    0.09487      0.00000     0.40401    0.00113     0.40513
      H   24    0.09871      0.00000     0.40011    0.00117     0.40129
      H   25    0.10122      0.00000     0.39786    0.00092     0.39878
      H   26    0.09559      0.00000     0.40374    0.00066     0.40441
      H   27    0.10070      0.00000     0.39846    0.00084     0.39930
      H   28    0.18766      0.00000     0.30987    0.00248     0.31234
      H   29    0.08362      0.00000     0.41529    0.00109     0.41638
      H   30    0.08862      0.00000     0.41041    0.00097     0.41138
      H   31    0.09125      0.00000     0.40743    0.00133     0.40875
      H   32    0.08317      0.00000     0.41585    0.00099     0.41683
      H   33    0.11270      0.00000     0.38617    0.00113     0.38730
      H   34    0.09525      0.00000     0.40381    0.00094     0.40475
      H   35    0.10414      0.00000     0.39436    0.00150     0.39586
 =======================================================================
   * Total *   -0.00000     13.99441    39.83964    0.16595    54.00000

 Normal termination of Gaussian 16 at Thu Dec 10 11:08:31 2020.
