 Gaussian 16, Revision A.03,

 -----------------------------------------------------------
 # opt freq B3LYP/6-31G(d) empiricaldispersion=gd3bj scf=xqc
 -----------------------------------------------------------

 ------------------------------
 CID_91099431_JID_8286_neutraal
 ------------------------------
 Symbolic Z-matrix:
 Charge =  0 Multiplicity = 1

 SCF Done:  E(RB3LYP) =  -804.301193125     A.U. after   15 cycles
 SCF Done:  E(RB3LYP) =  -804.310063329     A.U. after   12 cycles
 SCF Done:  E(RB3LYP) =  -804.313653369     A.U. after   13 cycles
 SCF Done:  E(RB3LYP) =  -804.317066718     A.U. after   14 cycles
 SCF Done:  E(RB3LYP) =  -804.318740961     A.U. after   13 cycles
 SCF Done:  E(RB3LYP) =  -804.319568337     A.U. after   12 cycles
 SCF Done:  E(RB3LYP) =  -804.319862769     A.U. after   12 cycles
 SCF Done:  E(RB3LYP) =  -804.320849386     A.U. after   14 cycles
 SCF Done:  E(RB3LYP) =  -804.299447792     A.U. after   13 cycles
 SCF Done:  E(RB3LYP) =  -804.322683810     A.U. after   13 cycles
 SCF Done:  E(RB3LYP) =  -804.324764201     A.U. after   11 cycles
 SCF Done:  E(RB3LYP) =  -804.324783858     A.U. after   10 cycles
 SCF Done:  E(RB3LYP) =  -804.324786788     A.U. after    8 cycles
 SCF Done:  E(RB3LYP) =  -804.324787621     A.U. after    8 cycles
 SCF Done:  E(RB3LYP) =  -804.324787792     A.U. after    7 cycles
 SCF Done:  E(RB3LYP) =  -804.324787825     A.U. after    7 cycles
 Optimization completed.
    -- Stationary point found.
 Normal termination of Gaussian 16 at Fri Dec 11 20:17:46 2020.

 --------------------------------------------------------------------
 #N Geom=AllCheck Guess=TCheck SCRF=Check GenChk RB3LYP/6-31G(d) Freq
 --------------------------------------------------------------------

 Structure from the checkpoint file:  "JID_8286.chk"
 ------------------------------
 CID_91099431_JID_8286_neutraal
 ------------------------------
 Charge =  0 Multiplicity = 1

 SCF Done:  E(RB3LYP) =  -804.324787825     A.U. after    1 cycles

  Exact polarizability: 246.133  -9.724 195.271  -4.501  -4.922 100.374
 Approx polarizability: 356.341 -15.502 301.460  -7.808  -9.082 155.135

                      1                      2                      3
                      A                      A                      A
 Frequencies --     31.2134                60.5590                69.6767
 Red. masses --      3.7462                 2.2715                 1.3116
 Frc consts  --      0.0022                 0.0049                 0.0038
 IR Inten    --      0.2253                 0.7083                 0.1481

                      4                      5                      6
                      A                      A                      A
 Frequencies --     83.2147                90.3887               102.9312
 Red. masses --      3.9606                 3.2420                 4.5015
 Frc consts  --      0.0162                 0.0156                 0.0281
 IR Inten    --      0.1284                 2.5816                 3.7211

                      7                      8                      9
                      A                      A                      A
 Frequencies --    119.2288               139.4014               168.2725
 Red. masses --      1.3312                 1.0465                 2.0431
 Frc consts  --      0.0111                 0.0120                 0.0341
 IR Inten    --      3.5104                 0.4404                 2.8156

                     10                     11                     12
                      A                      A                      A
 Frequencies --    189.8240               198.1327               210.0649
 Red. masses --      3.4445                 2.4256                 3.0623
 Frc consts  --      0.0731                 0.0561                 0.0796
 IR Inten    --      0.7934                 0.7716                 0.2121

                     13                     14                     15
                      A                      A                      A
 Frequencies --    234.6463               244.7870               273.3226
 Red. masses --      3.2949                 4.1172                 3.9074
 Frc consts  --      0.1069                 0.1454                 0.1720
 IR Inten    --      0.0905                 2.6877                 1.8764

                     16                     17                     18
                      A                      A                      A
 Frequencies --    278.6202               284.8379               292.3327
 Red. masses --      2.8294                 1.5468                 2.9029
 Frc consts  --      0.1294                 0.0739                 0.1462
 IR Inten    --      5.3241                 0.7221                 0.7745

                     19                     20                     21
                      A                      A                      A
 Frequencies --    332.4513               381.6195               392.8371
 Red. masses --      3.9259                 2.1754                 1.4795
 Frc consts  --      0.2556                 0.1867                 0.1345
 IR Inten    --      1.3798                27.2120                41.5457

                     22                     23                     24
                      A                      A                      A
 Frequencies --    434.3176               469.0690               518.4847
 Red. masses --      3.8002                 4.8487                 4.4744
 Frc consts  --      0.4224                 0.6286                 0.7087
 IR Inten    --      5.8236                 8.2536                 1.0879

                     25                     26                     27
                      A                      A                      A
 Frequencies --    543.9313               553.9691               562.6403
 Red. masses --      5.4124                 3.9546                 4.5696
 Frc consts  --      0.9435                 0.7150                 0.8523
 IR Inten    --      3.0949                 3.2088                 1.4585

                     28                     29                     30
                      A                      A                      A
 Frequencies --    583.4458               594.3055               613.2491
 Red. masses --      4.8369                 3.5495                 4.1110
 Frc consts  --      0.9701                 0.7386                 0.9109
 IR Inten    --      7.5499                 5.7595                 5.8249

                     31                     32                     33
                      A                      A                      A
 Frequencies --    655.8339               698.1426               743.6603
 Red. masses --      4.8724                 5.0854                 6.8292
 Frc consts  --      1.2348                 1.4604                 2.2252
 IR Inten    --     11.4181                 2.6986                25.4700

                     34                     35                     36
                      A                      A                      A
 Frequencies --    752.1325               848.9788               869.0852
 Red. masses --      2.8096                 1.6559                 1.4068
 Frc consts  --      0.9365                 0.7032                 0.6261
 IR Inten    --      0.4620                18.4249                 2.2001

                     37                     38                     39
                      A                      A                      A
 Frequencies --    890.6620               916.6439               939.3737
 Red. masses --      1.5161                 2.6360                 1.4991
 Frc consts  --      0.7086                 1.3049                 0.7794
 IR Inten    --     20.4328               106.5721                13.5297

                     40                     41                     42
                      A                      A                      A
 Frequencies --    951.1780               975.0056               978.9689
 Red. masses --      3.4776                 3.7430                 5.0276
 Frc consts  --      1.8538                 2.0964                 2.8389
 IR Inten    --      6.5288                19.5807                76.8099

                     43                     44                     45
                      A                      A                      A
 Frequencies --    998.9969              1006.7204              1039.8793
 Red. masses --      4.4712                 5.8284                 1.8555
 Frc consts  --      2.6290                 3.4803                 1.1822
 IR Inten    --     22.9389                 5.5479                 4.5149

                     46                     47                     48
                      A                      A                      A
 Frequencies --   1049.4300              1073.7154              1081.4762
 Red. masses --      1.5548                 1.5689                 1.4263
 Frc consts  --      1.0089                 1.0657                 0.9829
 IR Inten    --      2.9825                 5.2518                 3.6453

                     49                     50                     51
                      A                      A                      A
 Frequencies --   1091.9260              1121.1728              1147.6481
 Red. masses --      2.0019                 2.0346                 3.9760
 Frc consts  --      1.4063                 1.5069                 3.0854
 IR Inten    --     44.6679                14.5156                79.1611

                     52                     53                     54
                      A                      A                      A
 Frequencies --   1154.6531              1186.9910              1195.0683
 Red. masses --      1.3313                 1.2738                 1.8750
 Frc consts  --      1.0458                 1.0574                 1.5777
 IR Inten    --     17.1419                 0.6769                20.6154

                     55                     56                     57
                      A                      A                      A
 Frequencies --   1214.9809              1228.9563              1262.9702
 Red. masses --      1.3777                 1.7999                 1.3274
 Frc consts  --      1.1982                 1.6017                 1.2475
 IR Inten    --     33.5256               102.8199                38.6112

                     58                     59                     60
                      A                      A                      A
 Frequencies --   1272.2939              1293.6665              1318.1886
 Red. masses --      1.5665                 2.6754                 4.2959
 Frc consts  --      1.4940                 2.6381                 4.3980
 IR Inten    --     94.6357                27.2021                10.9705

                     61                     62                     63
                      A                      A                      A
 Frequencies --   1334.2345              1369.6542              1391.5263
 Red. masses --      2.0777                 1.6357                 4.3762
 Frc consts  --      2.1792                 1.8079                 4.9926
 IR Inten    --     20.2905                16.9202               122.3203

                     64                     65                     66
                      A                      A                      A
 Frequencies --   1427.9306              1438.3885              1442.7474
 Red. masses --      2.6750                 1.3528                 1.2662
 Frc consts  --      3.2136                 1.6490                 1.5528
 IR Inten    --    103.8847                14.8991                81.7182

                     67                     68                     69
                      A                      A                      A
 Frequencies --   1451.0433              1464.2307              1468.9685
 Red. masses --      1.2708                 2.0860                 1.8356
 Frc consts  --      1.5764                 2.6350                 2.3337
 IR Inten    --      6.2990                96.0563                10.6805

                     70                     71                     72
                      A                      A                      A
 Frequencies --   1486.4392              1492.0745              1506.8307
 Red. masses --      1.3941                 2.5614                 1.0457
 Frc consts  --      1.8149                 3.3597                 1.3989
 IR Inten    --     11.7013                11.8365                 5.1574

                     73                     74                     75
                      A                      A                      A
 Frequencies --   1508.6838              1510.5405              1512.7829
 Red. masses --      1.0499                 1.0441                 1.4295
 Frc consts  --      1.4080                 1.4037                 1.9275
 IR Inten    --      9.4988                 6.4110                 7.1775

                     76                     77                     78
                      A                      A                      A
 Frequencies --   1522.4141              1528.0972              1534.9102
 Red. masses --      1.0492                 1.2073                 1.0791
 Frc consts  --      1.4328                 1.6610                 1.4979
 IR Inten    --      6.6057                63.0595                 7.4978

                     79                     80                     81
                      A                      A                      A
 Frequencies --   1537.9378              1552.0037              1600.5168
 Red. masses --      1.1360                 1.1330                 4.8338
 Frc consts  --      1.5831                 1.6079                 7.2955
 IR Inten    --      9.3885                23.1591               357.0981

                     82                     83                     84
                      A                      A                      A
 Frequencies --   1617.6820              1650.6314              1717.4143
 Red. masses --      7.1044                 5.2180                 5.5540
 Frc consts  --     10.9538                 8.3763                 9.6517
 IR Inten    --    182.9807               251.5349                67.9739

                     85                     86                     87
                      A                      A                      A
 Frequencies --   3023.3558              3028.6713              3046.6298
 Red. masses --      1.0352                 1.0379                 1.0345
 Frc consts  --      5.5751                 5.6094                 5.6573
 IR Inten    --     40.2975                73.4896                71.7420

                     88                     89                     90
                      A                      A                      A
 Frequencies --   3056.1290              3073.1741              3081.0067
 Red. masses --      1.0359                 1.1013                 1.1064
 Frc consts  --      5.7007                 6.1284                 6.1879
 IR Inten    --     23.6882                28.6751                43.6618

                     91                     92                     93
                      A                      A                      A
 Frequencies --   3086.3792              3105.8670              3113.4001
 Red. masses --      1.0862                 1.1037                 1.0993
 Frc consts  --      6.0962                 6.2731                 6.2781
 IR Inten    --     30.5160                22.3248                19.4948

                     94                     95                     96
                      A                      A                      A
 Frequencies --   3115.0946              3139.0889              3143.4039
 Red. masses --      1.1007                 1.1031                 1.1031
 Frc consts  --      6.2930                 6.4044                 6.4221
 IR Inten    --     14.2144                17.6945                14.4919

                     97                     98                     99
                      A                      A                      A
 Frequencies --   3158.3641              3175.1355              3198.4632
 Red. masses --      1.0993                 1.0892                 1.0914
 Frc consts  --      6.4606                 6.4697                 6.5782
 IR Inten    --     32.7567                15.1143                11.9149

                    100                    101                    102
                      A                      A                      A
 Frequencies --   3230.2626              3241.7357              3718.3906
 Red. masses --      1.0912                 1.0893                 1.0659
 Frc consts  --      6.7083                 6.7445                 8.6832
 IR Inten    --      1.5304                 6.9999                12.1076

 - Thermochemistry -
 -------------------
 Temperature   298.150 Kelvin.  Pressure   1.00000 Atm.
 Atom     1 has atomic number  6 and mass  12.00000

 Molecular mass:   246.13683 amu.
 Principal axes and moments of inertia in atomic units:
                           1         2         3
     Eigenvalues --  2835.767337078.989039298.04707
           X            0.99997  -0.00705  -0.00227
           Y            0.00703   0.99994  -0.00814
           Z            0.00233   0.00812   0.99996
 This molecule is an asymmetric top.
 Rotational symmetry number  1.
 Warning -- assumption of classical behavior for rotation
           may cause significant error
 Rotational temperatures (Kelvin)      0.03054     0.01224     0.00932
 Rotational constants (GHZ):           0.63642     0.25494     0.19410
 Zero-point vibrational energy     794394.6 (Joules/Mol)
                                  189.86487 (Kcal/Mol)
 Warning -- explicit consideration of  30 degrees of freedom as
           vibrations may cause significant error
 Vibrational temperatures:     44.91    87.13   100.25   119.73   130.05
          (Kelvin)            148.10   171.54   200.57   242.11   273.11
                              285.07   302.24   337.60   352.19   393.25
                              400.87   409.82   420.60   478.32   549.07
                              565.20   624.89   674.89   745.98   782.60
                              797.04   809.51   839.45   855.07   882.33
                              943.60  1004.47  1069.96  1082.15  1221.49
                             1250.42  1281.46  1318.85  1351.55  1368.53
                             1402.82  1408.52  1437.33  1448.45  1496.15
                             1509.90  1544.84  1556.00  1571.04  1613.12
                             1651.21  1661.29  1707.82  1719.44  1748.09
                             1768.19  1817.13  1830.55  1861.30  1896.58
                             1919.67  1970.63  2002.10  2054.47  2069.52
                             2075.79  2087.73  2106.70  2113.52  2138.65
                             2146.76  2167.99  2170.66  2173.33  2176.56
                             2190.41  2198.59  2208.39  2212.75  2232.99
                             2302.79  2327.48  2374.89  2470.98  4349.93
                             4357.58  4383.42  4397.09  4421.61  4432.88
                             4440.61  4468.65  4479.49  4481.93  4516.45
                             4522.66  4544.18  4568.31  4601.88  4647.63
                             4664.13  5349.93

 Zero-point correction=                           0.302569 (Hartree/Particle)
 Thermal correction to Energy=                    0.320728
 Thermal correction to Enthalpy=                  0.321672
 Thermal correction to Gibbs Free Energy=         0.256272
 Sum of electronic and zero-point Energies=           -804.022219
 Sum of electronic and thermal Energies=              -804.004060
 Sum of electronic and thermal Enthalpies=            -804.003115
 Sum of electronic and thermal Free Energies=         -804.068516

                     E (Thermal)             CV                S
                      KCal/Mol        Cal/Mol-Kelvin    Cal/Mol-Kelvin
 Total                  201.260             67.766            137.646
 Electronic               0.000              0.000              0.000
 Translational            0.889              2.981             42.403
 Rotational               0.889              2.981             33.589
 Vibrational            199.483             61.804             61.654
 Vibration     1          0.594              1.983              5.751
 Vibration     2          0.597              1.973              4.439
 Vibration     3          0.598              1.969              4.162
 Vibration     4          0.600              1.961              3.814
 Vibration     5          0.602              1.956              3.652
 Vibration     6          0.605              1.947              3.398
 Vibration     7          0.609              1.933              3.113
 Vibration     8          0.615              1.914              2.812
 Vibration     9          0.625              1.882              2.455
 Vibration    10          0.633              1.854              2.230
 Vibration    11          0.637              1.842              2.150
 Vibration    12          0.642              1.825              2.043
 Vibration    13          0.654              1.788              1.843
 Vibration    14          0.660              1.771              1.768
 Vibration    15          0.676              1.723              1.575
 Vibration    16          0.679              1.713              1.542
 Vibration    17          0.683              1.702              1.504
 Vibration    18          0.688              1.688              1.460
 Vibration    19          0.714              1.611              1.248
 Vibration    20          0.751              1.509              1.033
 Vibration    21          0.760              1.485              0.989
 Vibration    22          0.795              1.395              0.845
 Vibration    23          0.826              1.319              0.740
 Vibration    24          0.873              1.209              0.613
 Vibration    25          0.899              1.153              0.557
 Vibration    26          0.909              1.131              0.536
 Vibration    27          0.918              1.112              0.519
 Vibration    28          0.940              1.067              0.479
 Vibration    29          0.952              1.044              0.460
 Vibration    30          0.973              1.004              0.427

                           ! Non-Optimized Parameters !
 Normal termination of Gaussian 16 at Fri Dec 11 20:32:09 2020.

 ----------------------------------------------------------------------
 # B3LYP/6-311++G(d,p) empiricaldispersion=gd3bj scf=xqc pop=npa geom=c
 heck
 ----------------------------------------------------------------------

 --------------------------------------
 CID_91099431_JID_8286_Energie_neutraal
 --------------------------------------
 Structure from the checkpoint file:  "JID_8286.chk"
 Charge =  0 Multiplicity = 1

 SCF Done:  E(RB3LYP) =  -804.548665239     A.U. after   17 cycles
 Normal termination of Gaussian 16 at Fri Dec 11 20:38:36 2020.

 ----------------------------------------------------------------------
 # B3LYP/6-311++G(d,p) empiricaldispersion=gd3bj scf=xqc pop=npa geom=c
 heck
 ----------------------------------------------------------------------

 ------------------------------------
 CID_91099431_JID_8286_Energie_kation
 ------------------------------------
 Structure from the checkpoint file:  "JID_8286.chk"
 Charge =  1 Multiplicity = 2

 SCF Done:  E(UB3LYP) =  -804.291020073     A.U. after   25 cycles
 Normal termination of Gaussian 16 at Fri Dec 11 20:51:45 2020.
 Gaussian 16:  ES64L-G16RevA.03 25-Dec-2016

 ----------------------------------------------------------------------
 # B3LYP/6-311++G(d,p) empiricaldispersion=gd3bj scf=xqc pop=npa geom=c
 heck
 ----------------------------------------------------------------------

 -----------------------------------
 CID_91099431_JID_8286_Energie_anion
 -----------------------------------
 Structure from the checkpoint file:  "JID_8286.chk"
 Charge = -1 Multiplicity = 2

                         Standard orientation:
 ---------------------------------------------------------------------
 Center     Atomic      Atomic             Coordinates (Angstroms)
 Number     Number       Type             X           Y           Z
 ---------------------------------------------------------------------
      1          6           0       -3.221455    2.971878    0.431195
      2          6           0       -2.592163    1.617426    0.226481
      3          6           0       -1.206433    1.450392    0.267653
      4          6           0       -0.661210    0.170640    0.072349
      5          6           0       -1.554841   -0.885995   -0.162752
      6          6           0       -2.926797   -0.611607   -0.169491
      7          7           0       -3.441980    0.602551    0.013595
      8          8           0       -3.878761   -1.560952   -0.380694
      9          6           0       -3.454899   -2.899022   -0.574301
     10          6           0        0.790695   -0.059483    0.094639
     11          6           0        1.350593   -1.248452    0.459194
     12          6           0        2.761013   -1.500497    0.377996
     13          6           0        3.517540   -0.540513   -0.224947
     14          7           0        2.986286    0.631929   -0.694451
     15          6           0        1.697899    1.100749   -0.219971
     16          8           0        1.841105    1.997328    0.900517
     17          6           0        3.855517    1.647926   -1.267377
     18          6           0        3.351144   -2.794144    0.872590
     19          1           0       -3.905683    2.948026    1.286548
     20          1           0       -2.467790    3.745285    0.604586
     21          1           0       -3.816542    3.249775   -0.445907
     22          1           0       -0.560592    2.291403    0.489518
     23          1           0       -1.174672   -1.876587   -0.372830
     24          1           0       -2.835786   -3.002190   -1.475435
     25          1           0       -2.892909   -3.275015    0.291058
     26          1           0       -4.366594   -3.486435   -0.695375
     27          1           0        0.706537   -2.052467    0.808986
     28          1           0        4.580253   -0.676898   -0.403475
     29          1           0        1.272555    1.744222   -0.995842
     30          1           0        1.957447    1.436334    1.685665
     31          1           0        4.736017    1.171607   -1.705506
     32          1           0        3.319224    2.178816   -2.061452
     33          1           0        4.173807    2.381644   -0.517134
     34          1           0        2.865916   -3.663781    0.409786
     35          1           0        4.420865   -2.853990    0.645449
     36          1           0        3.239447   -2.907901    1.959219
 ---------------------------------------------------------------------

 SCF Done:  E(UB3LYP) =  -804.556890404     A.U. after   29 cycles

 The electronic state is 2-A.
 Alpha  occ. eigenvalues --  -19.02958 -18.99407 -14.20346 -14.14396 -10.12199
 Alpha  occ. eigenvalues --  -10.11735 -10.11727 -10.08967 -10.06631 -10.05621
 Alpha  occ. eigenvalues --  -10.05278 -10.04314 -10.03499 -10.02831 -10.02216
 Alpha  occ. eigenvalues --  -10.01728 -10.01643 -10.01358  -0.95115  -0.90350
 Alpha  occ. eigenvalues --   -0.81692  -0.79332  -0.69133  -0.66662  -0.64749
 Alpha  occ. eigenvalues --   -0.61862  -0.59670  -0.59252  -0.57077  -0.56082
 Alpha  occ. eigenvalues --   -0.50248  -0.49192  -0.46941  -0.44258  -0.41405
 Alpha  occ. eigenvalues --   -0.39894  -0.37723  -0.36757  -0.35953  -0.35370
 Alpha  occ. eigenvalues --   -0.34141  -0.33533  -0.32211  -0.31882  -0.30755
 Alpha  occ. eigenvalues --   -0.30248  -0.29889  -0.29509  -0.28804  -0.27383
 Alpha  occ. eigenvalues --   -0.26862  -0.26448  -0.25952  -0.25114  -0.23450
 Alpha  occ. eigenvalues --   -0.22764  -0.21370  -0.20902  -0.20126  -0.19595
 Alpha  occ. eigenvalues --   -0.17066  -0.15365  -0.12114  -0.11961  -0.09758
 Alpha  occ. eigenvalues --   -0.05554   0.04321
 Alpha virt. eigenvalues --    0.07412   0.07841   0.08564   0.09123   0.10122
 Alpha virt. eigenvalues --    0.10272   0.11116   0.11490   0.11849   0.11971
 Alpha virt. eigenvalues --    0.12293   0.12892   0.12953   0.13604   0.13985

  Beta  occ. eigenvalues --  -19.02967 -18.99395 -14.20183 -14.14130 -10.12198
  Beta  occ. eigenvalues --  -10.11754 -10.11731 -10.08968 -10.06592 -10.05296
  Beta  occ. eigenvalues --  -10.05268 -10.04320 -10.03288 -10.02958 -10.02115
  Beta  occ. eigenvalues --  -10.01617 -10.01606 -10.01019  -0.95116  -0.90290
  Beta  occ. eigenvalues --   -0.81389  -0.78995  -0.68732  -0.66362  -0.64642
  Beta  occ. eigenvalues --   -0.61685  -0.59605  -0.58980  -0.56874  -0.55908
  Beta  occ. eigenvalues --   -0.49864  -0.48829  -0.46867  -0.44047  -0.41253
  Beta  occ. eigenvalues --   -0.39786  -0.37559  -0.36598  -0.35913  -0.35194
  Beta  occ. eigenvalues --   -0.33999  -0.33386  -0.32017  -0.31814  -0.30607
  Beta  occ. eigenvalues --   -0.30053  -0.29877  -0.29413  -0.28713  -0.27308
  Beta  occ. eigenvalues --   -0.26783  -0.26379  -0.25626  -0.25016  -0.23299
  Beta  occ. eigenvalues --   -0.22681  -0.21107  -0.20578  -0.19576  -0.18957
  Beta  occ. eigenvalues --   -0.16691  -0.14293  -0.11769  -0.10623  -0.09163
  Beta  occ. eigenvalues --   -0.04548
  Beta virt. eigenvalues --    0.07327   0.07788   0.08473   0.09075   0.09394
  Beta virt. eigenvalues --    0.10111   0.10313   0.11065   0.11489   0.11895
  Beta virt. eigenvalues --    0.12089   0.12227   0.12854   0.12905   0.13597

 Mulliken charges and spin densities:
               1          2
     1  C   -0.623581  -0.004647
     2  C   -0.655888   0.026197
     3  C   -0.453596   0.044938
     4  C    1.281677   0.137204
     5  C   -0.368972   0.098862
     6  C   -0.542386  -0.038145
     7  N   -0.191077   0.130598
     8  O   -0.098251  -0.001247
     9  C   -0.268219  -0.008257
    10  C    0.837474   0.232154
    11  C   -0.447352   0.232979
    12  C   -0.100704  -0.064211
    13  C   -0.668542   0.296791
    14  N    0.303397   0.043811
    15  C   -0.423028  -0.192366
    16  O   -0.144995   0.025002
    17  C   -0.049184  -0.140111
    18  C   -0.662478   0.009612
    19  H    0.127586   0.010075
    20  H    0.117493   0.001166
    21  H    0.137462   0.001928
    22  H    0.207462  -0.005679
    23  H    0.104247   0.001462
    24  H    0.130175   0.008706
    25  H    0.133939   0.003078
    26  H    0.145191  -0.000317
    27  H    0.100620  -0.008323
    28  H    0.047884   0.036348
    29  H    0.182870  -0.009365
    30  H    0.197969   0.004938
    31  H    0.133032  -0.015917
    32  H    0.102109   0.011230
    33  H    0.040397   0.130103
    34  H    0.119249   0.003006
    35  H    0.107345   0.001918
    36  H    0.140676  -0.003521
 Sum of Mulliken charges =  -1.00000   1.00000

 Dipole moment (field-independent basis, Debye):
    X=              2.3077    Y=             -1.8051    Z=             -0.9949  Tot=              3.0941
 Quadrupole moment (field-independent basis, Debye-Ang):
   XX=           -167.1443   YY=           -123.4730   ZZ=           -116.9339
   XY=              5.9925   XZ=             -3.3011   YZ=             -1.5668

 Summary of Natural Population Analysis:

                                       Natural Population
                Natural  -----------------------------------------------
    Atom  No    Charge         Core      Valence    Rydberg      Total
 -----------------------------------------------------------------------
      C    1   -0.29374      0.99964     2.28915    0.00495     3.29374
      C    2    0.11246      0.99956     1.87568    0.01230     2.88754
      C    3   -0.13724      0.99947     2.13077    0.00700     3.13724
      C    4    0.03905      0.99951     1.95234    0.00910     2.96095
      C    5   -0.15003      0.99948     2.14263    0.00792     3.15003
      C    6    0.25882      0.99943     1.72460    0.01714     2.74118
      N    7   -0.23772      0.99961     2.72492    0.01318     3.73772
      O    8   -0.27620      0.99985     3.26625    0.01010     4.27620
      C    9   -0.10015      0.99961     2.09256    0.00797     3.10015
      C   10   -0.04336      0.99946     2.03243    0.01146     3.04336
      C   11   -0.02292      0.99947     2.01418    0.00927     3.02292
      C   12   -0.10989      0.99952     2.10228    0.00810     3.10989
      C   13    0.08734      0.99949     1.90129    0.01187     2.91266
      N   14   -0.22005      0.99965     2.71035    0.01005     3.72005
      C   15    0.14624      0.99953     1.83514    0.01908     2.85376
      O   16   -0.38499      0.99990     3.37879    0.00631     4.38499
      C   17   -0.17066      0.99966     2.16460    0.00640     3.17066
      C   18   -0.27933      0.99965     2.27495    0.00473     3.27933
      H   19    0.10048      0.00000     0.39844    0.00108     0.39952
      H   20    0.09443      0.00000     0.40481    0.00077     0.40557
      H   21    0.10025      0.00000     0.39867    0.00109     0.39975
      H   22    0.10557      0.00000     0.39329    0.00114     0.39443
      H   23    0.09995      0.00000     0.39882    0.00123     0.40005
      H   24    0.08155      0.00000     0.41707    0.00138     0.41845
      H   25    0.08229      0.00000     0.41631    0.00139     0.41771
      H   26    0.08537      0.00000     0.41380    0.00083     0.41463
      H   27    0.08962      0.00000     0.40910    0.00127     0.41038
      H   28    0.08165      0.00000     0.41705    0.00130     0.41835
      H   29    0.08331      0.00000     0.41485    0.00184     0.41669
      H   30    0.22832      0.00000     0.26890    0.00278     0.27168
      H   31    0.09102      0.00000     0.40805    0.00093     0.40898
      H   32    0.09058      0.00000     0.40820    0.00122     0.40942
      H   33    0.09191      0.00000     0.40582    0.00228     0.40809
      H   34    0.09107      0.00000     0.40756    0.00137     0.40893
      H   35    0.09388      0.00000     0.40528    0.00084     0.40612
      H   36    0.09114      0.00000     0.40737    0.00149     0.40886
 =======================================================================
   * Total *    0.00000     17.99250    47.80633    0.20117    66.00000

 Normal termination of Gaussian 16 at Fri Dec 11 21:06:33 2020.
