 Gaussian 16, Revision A.03,

 -----------------------------------------------------------
 # opt freq B3LYP/6-31G(d) empiricaldispersion=gd3bj scf=xqc
 -----------------------------------------------------------

 -------------------------------
 CID_114558322_JID_4719_neutraal
 -------------------------------
 Symbolic Z-matrix:
 Charge =  0 Multiplicity = 1

 SCF Done:  E(RB3LYP) =  -629.621254122     A.U. after   14 cycles
 SCF Done:  E(RB3LYP) =  -629.625164274     A.U. after   12 cycles
 SCF Done:  E(RB3LYP) =  -629.625167169     A.U. after   12 cycles
 SCF Done:  E(RB3LYP) =  -629.625925699     A.U. after   12 cycles
 SCF Done:  E(RB3LYP) =  -629.626049673     A.U. after   10 cycles
 SCF Done:  E(RB3LYP) =  -629.626192124     A.U. after   12 cycles
 SCF Done:  E(RB3LYP) =  -629.626226479     A.U. after   11 cycles
 SCF Done:  E(RB3LYP) =  -629.626315551     A.U. after   11 cycles
 SCF Done:  E(RB3LYP) =  -629.626638817     A.U. after   12 cycles
 SCF Done:  E(RB3LYP) =  -629.627117484     A.U. after   13 cycles
 SCF Done:  E(RB3LYP) =  -629.631531200     A.U. after   11 cycles
 SCF Done:  E(RB3LYP) =  -629.631535323     A.U. after    9 cycles
 SCF Done:  E(RB3LYP) =  -629.631537202     A.U. after    9 cycles
 SCF Done:  E(RB3LYP) =  -629.631537532     A.U. after    9 cycles
 SCF Done:  E(RB3LYP) =  -629.631537787     A.U. after    8 cycles
 Optimization completed.
    -- Stationary point found.
 Normal termination of Gaussian 16 at Thu Dec 10 10:34:14 2020.

 --------------------------------------------------------------------
 #N Geom=AllCheck Guess=TCheck SCRF=Check GenChk RB3LYP/6-31G(d) Freq
 --------------------------------------------------------------------

 Structure from the checkpoint file:  "JID_4719.chk"
 -------------------------------
 CID_114558322_JID_4719_neutraal
 -------------------------------
 Charge =  0 Multiplicity = 1

 SCF Done:  E(RB3LYP) =  -629.631537787     A.U. after    1 cycles

  Exact polarizability: 129.945  -8.523 124.689   6.321   0.957  98.929
 Approx polarizability: 174.342 -16.884 193.321  18.327   4.226 157.032

                      1                      2                      3
                      A                      A                      A
 Frequencies --     24.1495                41.1897                61.5672
 Red. masses --      4.0539                 6.1184                 2.8477
 Frc consts  --      0.0014                 0.0061                 0.0064
 IR Inten    --      0.7909                 0.8926                 0.1511

                      4                      5                      6
                      A                      A                      A
 Frequencies --     74.1001               119.5367               136.5895
 Red. masses --      3.2722                 4.0764                 4.2161
 Frc consts  --      0.0106                 0.0343                 0.0463
 IR Inten    --      0.4933                 1.9050                 0.2295

                      7                      8                      9
                      A                      A                      A
 Frequencies --    141.3093               209.0384               242.9439
 Red. masses --      2.3029                 1.8540                 1.6087
 Frc consts  --      0.0271                 0.0477                 0.0559
 IR Inten    --      0.1965                 1.7202                 1.0484

                     10                     11                     12
                      A                      A                      A
 Frequencies --    266.9782               352.3490               409.0254
 Red. masses --      3.9738                 1.9568                 3.4467
 Frc consts  --      0.1669                 0.1431                 0.3397
 IR Inten    --      1.3561                 0.4920                 5.9539

                     13                     14                     15
                      A                      A                      A
 Frequencies --    423.9583               477.4435               483.1901
 Red. masses --      2.4739                 1.2033                 3.6183
 Frc consts  --      0.2620                 0.1616                 0.4977
 IR Inten    --      1.2815                94.4212                19.7485

                     16                     17                     18
                      A                      A                      A
 Frequencies --    547.7775               576.9735               606.9785
 Red. masses --      2.9243                 2.6575                 4.1939
 Frc consts  --      0.5170                 0.5212                 0.9104
 IR Inten    --     19.6903                28.1827                 7.4086

                     19                     20                     21
                      A                      A                      A
 Frequencies --    642.6737               669.7814               673.9823
 Red. masses --      3.9239                 5.1684                 4.7469
 Frc consts  --      0.9549                 1.3661                 1.2704
 IR Inten    --     16.1167                 1.9425                 9.4913

                     22                     23                     24
                      A                      A                      A
 Frequencies --    696.0117               758.4745               795.0489
 Red. masses --      3.5625                 2.1919                 1.4266
 Frc consts  --      1.0168                 0.7429                 0.5313
 IR Inten    --      2.4158                 4.4469                26.1791

                     25                     26                     27
                      A                      A                      A
 Frequencies --    802.7536               836.4866               877.1918
 Red. masses --      1.1821                 2.6960                 1.5790
 Frc consts  --      0.4488                 1.1115                 0.7159
 IR Inten    --      0.4010                 2.0927                 0.9765

                     28                     29                     30
                      A                      A                      A
 Frequencies --    880.7557               899.2819               936.9878
 Red. masses --      1.9836                 1.9117                 2.5666
 Frc consts  --      0.9066                 0.9109                 1.3276
 IR Inten    --      2.3033                 1.3129                17.2076

                     31                     32                     33
                      A                      A                      A
 Frequencies --    953.3162               981.9126              1006.5233
 Red. masses --      4.5761                 2.2974                 2.1162
 Frc consts  --      2.4503                 1.3050                 1.2631
 IR Inten    --     11.3840                 7.8088                 1.7220

                     34                     35                     36
                      A                      A                      A
 Frequencies --   1039.7109              1061.7840              1076.5223
 Red. masses --      1.8699                 1.9796                 2.3385
 Frc consts  --      1.1909                 1.3149                 1.5968
 IR Inten    --      1.0563                 9.4375                 5.5900

                     37                     38                     39
                      A                      A                      A
 Frequencies --   1082.8133              1098.9774              1114.7259
 Red. masses --      1.5238                 1.9935                 1.9205
 Frc consts  --      1.0527                 1.4186                 1.4060
 IR Inten    --      2.3152                 8.5724                 7.0121

                     40                     41                     42
                      A                      A                      A
 Frequencies --   1166.6900              1194.6368              1238.6828
 Red. masses --      1.3728                 1.9896                 1.4832
 Frc consts  --      1.1009                 1.6730                 1.3408
 IR Inten    --      7.1365                 8.8916                10.1862

                     43                     44                     45
                      A                      A                      A
 Frequencies --   1241.2043              1257.1765              1281.5112
 Red. masses --      1.6538                 1.4268                 1.9216
 Frc consts  --      1.5012                 1.3287                 1.8593
 IR Inten    --      6.1277                 0.5592                70.4759

                     46                     47                     48
                      A                      A                      A
 Frequencies --   1289.6690              1317.1907              1334.3178
 Red. masses --      1.9409                 1.4941                 1.6373
 Frc consts  --      1.9020                 1.5274                 1.7175
 IR Inten    --     33.0488                 8.3441                55.4176

                     49                     50                     51
                      A                      A                      A
 Frequencies --   1352.4392              1366.8127              1371.0299
 Red. masses --      1.9465                 1.4111                 1.7276
 Frc consts  --      2.0977                 1.5532                 1.9133
 IR Inten    --     17.2854                13.9086                11.5910

                     52                     53                     54
                      A                      A                      A
 Frequencies --   1385.2536              1406.6959              1423.9320
 Red. masses --      2.4515                 1.3743                 1.4777
 Frc consts  --      2.7717                 1.6022                 1.7653
 IR Inten    --      4.1523                20.0832                19.2493

                     55                     56                     57
                      A                      A                      A
 Frequencies --   1437.4379              1447.6521              1457.7804
 Red. masses --      1.2662                 2.9912                 2.0959
 Frc consts  --      1.5414                 3.6933                 2.6242
 IR Inten    --     13.4764                38.1262                51.3693

                     58                     59                     60
                      A                      A                      A
 Frequencies --   1499.5906              1500.5075              1518.2871
 Red. masses --      1.0847                 1.2060                 1.0422
 Frc consts  --      1.4372                 1.5999                 1.4155
 IR Inten    --      2.1312                 1.2485                 6.3065

                     61                     62                     63
                      A                      A                      A
 Frequencies --   1524.8099              1526.5137              1528.2693
 Red. masses --      1.8042                 1.4881                 1.1055
 Frc consts  --      2.4716                 2.0430                 1.5212
 IR Inten    --      7.8493                 8.8614                 5.0366

                     64                     65                     66
                      A                      A                      A
 Frequencies --   1536.0911              1593.2404              1840.7437
 Red. masses --      1.0756                 5.5820                10.3300
 Frc consts  --      1.4953                 8.3483                20.6223
 IR Inten    --      2.2406                 7.4851               459.3074

                     67                     68                     69
                      A                      A                      A
 Frequencies --   2987.9586              3053.6003              3058.0302
 Red. masses --      1.0839                 1.0651                 1.0357
 Frc consts  --      5.7016                 5.8515                 5.7065
 IR Inten    --     63.1602                28.7716                21.7438

                     70                     71                     72
                      A                      A                      A
 Frequencies --   3066.4320              3082.7188              3085.2720
 Red. masses --      1.0690                 1.0604                 1.0691
 Frc consts  --      5.9223                 5.9375                 5.9957
 IR Inten    --     17.7109                15.7363                15.7231

                     73                     74                     75
                      A                      A                      A
 Frequencies --   3098.6571              3122.4566              3126.6565
 Red. masses --      1.0924                 1.1028                 1.1031
 Frc consts  --      6.1797                 6.3351                 6.3539
 IR Inten    --     28.9909                18.1906                14.1067

                     76                     77                     78
                      A                      A                      A
 Frequencies --   3138.5897              3140.1495              3152.0256
 Red. masses --      1.0999                 1.0993                 1.1044
 Frc consts  --      6.3835                 6.3866                 6.4650
 IR Inten    --     18.1880                15.1940                21.9229

                     79                     80                     81
                      A                      A                      A
 Frequencies --   3256.4770              3281.8683              3622.0025
 Red. masses --      1.0932                 1.1006                 1.0774
 Frc consts  --      6.8304                 6.9843                 8.3278
 IR Inten    --      9.6448                 3.3363                19.6168

 - Thermochemistry -
 -------------------
 Temperature   298.150 Kelvin.  Pressure   1.00000 Atm.
 Atom     1 has atomic number  6 and mass  12.00000

 Molecular mass:   193.12151 amu.
 Principal axes and moments of inertia in atomic units:
                           1         2         3
     Eigenvalues --  1407.633994200.205654748.36108
           X            0.99994  -0.00925  -0.00499
           Y            0.00916   0.99979  -0.01854
           Z            0.00516   0.01849   0.99982
 This molecule is an asymmetric top.
 Rotational symmetry number  1.
 Warning -- assumption of classical behavior for rotation
           may cause significant error
 Rotational temperatures (Kelvin)      0.06153     0.02062     0.01824
 Rotational constants (GHZ):           1.28211     0.42968     0.38008
 Zero-point vibrational energy     654308.7 (Joules/Mol)
                                  156.38354 (Kcal/Mol)
 Warning -- explicit consideration of  18 degrees of freedom as
           vibrations may cause significant error
 Vibrational temperatures:     34.75    59.26    88.58   106.61   171.99
          (Kelvin)            196.52   203.31   300.76   349.54   384.12
                              506.95   588.50   609.98   686.93   695.20
                              788.13   830.14   873.31   924.66   963.67
                              969.71  1001.41  1091.28  1143.90  1154.98
                             1203.52  1262.08  1267.21  1293.87  1348.12
                             1371.61  1412.75  1448.16  1495.91  1527.67
                             1548.88  1557.93  1581.18  1603.84  1678.61
                             1718.82  1782.19  1785.82  1808.80  1843.81
                             1855.55  1895.14  1919.79  1945.86  1966.54
                             1972.61  1993.07  2023.92  2048.72  2068.15
                             2082.85  2097.42  2157.58  2158.90  2184.48
                             2193.86  2196.31  2198.84  2210.09  2292.32
                             2648.42  4299.01  4393.45  4399.82  4411.91
                             4435.34  4439.02  4458.28  4492.52  4498.56
                             4515.73  4517.97  4535.06  4685.34  4721.88
                             5211.25

 Zero-point correction=                           0.249213 (Hartree/Particle)
 Thermal correction to Energy=                    0.262403
 Thermal correction to Enthalpy=                  0.263348
 Thermal correction to Gibbs Free Energy=         0.207572
 Sum of electronic and zero-point Energies=           -629.382325
 Sum of electronic and thermal Energies=              -629.369134
 Sum of electronic and thermal Enthalpies=            -629.368190
 Sum of electronic and thermal Free Energies=         -629.423966

                     E (Thermal)             CV                S
                      KCal/Mol        Cal/Mol-Kelvin    Cal/Mol-Kelvin
 Total                  164.661             49.462            117.389
 Electronic               0.000              0.000              0.000
 Translational            0.889              2.981             41.680
 Rotational               0.889              2.981             31.707
 Vibrational            162.883             43.501             44.002
 Vibration     1          0.593              1.985              6.260
 Vibration     2          0.594              1.981              5.201
 Vibration     3          0.597              1.973              4.406
 Vibration     4          0.599              1.966              4.041
 Vibration     5          0.609              1.933              3.108
 Vibration     6          0.614              1.917              2.851
 Vibration     7          0.615              1.912              2.786
 Vibration     8          0.642              1.827              2.052
 Vibration     9          0.659              1.774              1.781
 Vibration    10          0.672              1.734              1.616
 Vibration    11          0.729              1.570              1.156
 Vibration    12          0.773              1.451              0.930
 Vibration    13          0.786              1.418              0.879
 Vibration    14          0.834              1.300              0.717
 Vibration    15          0.839              1.287              0.702
 Vibration    16          0.903              1.145              0.549
 Vibration    17          0.933              1.081              0.491
 Vibration    18          0.966              1.017              0.438

                           ! Non-Optimized Parameters !
 Normal termination of Gaussian 16 at Thu Dec 10 10:42:59 2020.

 ----------------------------------------------------------------------
 # B3LYP/6-311++G(d,p) empiricaldispersion=gd3bj scf=xqc pop=npa geom=c
 heck
 ----------------------------------------------------------------------

 ---------------------------------------
 CID_114558322_JID_4719_Energie_neutraal
 ---------------------------------------
 Structure from the checkpoint file:  "JID_4719.chk"
 Charge =  0 Multiplicity = 1

 SCF Done:  E(RB3LYP) =  -629.808487411     A.U. after   15 cycles
 Normal termination of Gaussian 16 at Thu Dec 10 10:46:53 2020.

 ----------------------------------------------------------------------
 # B3LYP/6-311++G(d,p) empiricaldispersion=gd3bj scf=xqc pop=npa geom=c
 heck
 ----------------------------------------------------------------------

 -------------------------------------
 CID_114558322_JID_4719_Energie_kation
 -------------------------------------
 Structure from the checkpoint file:  "JID_4719.chk"
 Charge =  1 Multiplicity = 2

 SCF Done:  E(UB3LYP) =  -629.495584831     A.U. after   33 cycles
 SCF Done:  E(UB3LYP) =  -629.495584835     a.u. after    2 cycles
 Normal termination of Gaussian 16 at Thu Dec 10 11:09:08 2020.
 Gaussian 16:  ES64L-G16RevA.03 25-Dec-2016

 ----------------------------------------------------------------------
 # B3LYP/6-311++G(d,p) empiricaldispersion=gd3bj scf=xqc pop=npa geom=c
 heck
 ----------------------------------------------------------------------

 ------------------------------------
 CID_114558322_JID_4719_Energie_anion
 ------------------------------------
 Structure from the checkpoint file:  "JID_4719.chk"
 Charge = -1 Multiplicity = 2

                         Standard orientation:
 ---------------------------------------------------------------------
 Center     Atomic      Atomic             Coordinates (Angstroms)
 Number     Number       Type             X           Y           Z
 ---------------------------------------------------------------------
      1          6           0       -3.732678    1.309933    0.284269
      2          6           0       -2.581414    1.016273   -0.677237
      3          7           0       -1.880369   -0.214947   -0.342315
      4          6           0       -0.889356   -0.412839    0.582416
      5          6           0       -0.667819   -1.781085    0.612547
      6          6           0       -1.583950   -2.321848   -0.312116
      7          7           0       -2.325972   -1.374486   -0.884597
      8          6           0       -0.202693    0.700927    1.309550
      9          6           0        1.198158    1.052816    0.764071
     10          6           0        1.251730    1.339800   -0.755827
     11          6           0        2.640561    0.851323   -1.195054
     12          6           0        3.030414   -0.188962   -0.141800
     13          8           0        3.957592   -0.976547   -0.182929
     14          7           0        2.142295   -0.045188    0.895398
     15          1           0       -4.437860    0.473729    0.286635
     16          1           0       -4.264813    2.217139   -0.022034
     17          1           0       -3.367436    1.453273    1.306935
     18          1           0       -2.952108    0.881513   -1.695330
     19          1           0       -1.858181    1.837230   -0.692531
     20          1           0        0.067639   -2.302681    1.206908
     21          1           0       -1.731328   -3.357016   -0.590573
     22          1           0       -0.810442    1.612045    1.288318
     23          1           0       -0.103183    0.433470    2.369049
     24          1           0        1.554009    1.931227    1.326114
     25          1           0        1.067464    2.395574   -0.972736
     26          1           0        0.479930    0.748028   -1.256899
     27          1           0        3.391485    1.650702   -1.166848
     28          1           0        2.666184    0.412440   -2.194971
     29          1           0        2.308504   -0.529978    1.767066
 ---------------------------------------------------------------------

 SCF Done:  E(UB3LYP) =  -629.803515763     A.U. after   29 cycles

 The electronic state is 2-A.
 Alpha  occ. eigenvalues --  -18.99179 -14.28630 -14.23552 -14.22619 -10.17304
 Alpha  occ. eigenvalues --  -10.11966 -10.11742 -10.11025 -10.09015 -10.08597
 Alpha  occ. eigenvalues --  -10.08322 -10.07820 -10.07198 -10.06284  -0.94869
 Alpha  occ. eigenvalues --   -0.94119  -0.84328  -0.75070  -0.71331  -0.68588
 Alpha  occ. eigenvalues --   -0.65076  -0.64365  -0.57185  -0.55060  -0.51315
 Alpha  occ. eigenvalues --   -0.49900  -0.49044  -0.45342  -0.42703  -0.39773
 Alpha  occ. eigenvalues --   -0.37866  -0.36993  -0.36686  -0.34515  -0.33752
 Alpha  occ. eigenvalues --   -0.33566  -0.32613  -0.31384  -0.30394  -0.30176
 Alpha  occ. eigenvalues --   -0.29306  -0.29234  -0.28188  -0.27216  -0.26340
 Alpha  occ. eigenvalues --   -0.25159  -0.23948  -0.19548  -0.16416  -0.15847
 Alpha  occ. eigenvalues --   -0.15163  -0.14498   0.03961
 Alpha virt. eigenvalues --    0.06892   0.07306   0.07960   0.09109   0.09228
 Alpha virt. eigenvalues --    0.09732   0.10131   0.10472   0.10625   0.11396
 Alpha virt. eigenvalues --    0.12178   0.12408   0.12794   0.13054   0.13726

  Beta  occ. eigenvalues --  -18.99177 -14.28617 -14.23531 -14.22590 -10.17305
  Beta  occ. eigenvalues --  -10.11937 -10.11722 -10.11001 -10.09020 -10.08560
  Beta  occ. eigenvalues --  -10.08311 -10.07794 -10.07163 -10.06272  -0.94834
  Beta  occ. eigenvalues --   -0.94113  -0.84297  -0.75029  -0.71266  -0.68546
  Beta  occ. eigenvalues --   -0.65026  -0.64325  -0.57114  -0.55001  -0.51269
  Beta  occ. eigenvalues --   -0.49854  -0.49004  -0.45285  -0.42633  -0.39727
  Beta  occ. eigenvalues --   -0.37798  -0.36962  -0.36629  -0.34482  -0.33692
  Beta  occ. eigenvalues --   -0.33530  -0.32579  -0.31351  -0.30357  -0.30154
  Beta  occ. eigenvalues --   -0.29258  -0.29184  -0.28132  -0.27164  -0.26308
  Beta  occ. eigenvalues --   -0.25098  -0.23918  -0.19509  -0.16377  -0.15813
  Beta  occ. eigenvalues --   -0.15114  -0.14357
  Beta virt. eigenvalues --    0.06721   0.07690   0.08010   0.08246   0.09399
  Beta virt. eigenvalues --    0.09759   0.10070   0.10663   0.10680   0.11149
  Beta virt. eigenvalues --    0.11668   0.12367   0.12922   0.13026   0.13284

 Mulliken charges and spin densities:
               1          2
     1  C    0.610797  -1.116043
     2  C   -0.268582   0.075762
     3  N    0.401491   0.037398
     4  C   -1.186174   0.982844
     5  C   -0.408066   0.721597
     6  C   -0.291891  -0.117451
     7  N   -0.178158  -0.003443
     8  C    0.838527  -1.610934
     9  C    1.758884  -1.460994
    10  C   -0.078691  -0.465975
    11  C    0.586478  -0.972796
    12  C   -0.075294   0.071276
    13  O   -0.397614   0.014336
    14  N   -0.259012   0.059727
    15  H    0.089305   0.061895
    16  H   -0.352009   0.496430
    17  H   -0.249266   0.397892
    18  H    0.086244   0.077871
    19  H   -0.291000   0.462377
    20  H    0.022924   0.130400
    21  H    0.108922   0.029298
    22  H    0.008524   0.140887
    23  H   -0.544625   0.777531
    24  H   -0.768807   1.038806
    25  H   -0.515342   0.696273
    26  H    0.094405   0.072826
    27  H    0.055816   0.122495
    28  H    0.114183   0.063765
    29  H    0.088032   0.215950
 Sum of Mulliken charges =  -1.00000   1.00000

 Dipole moment (field-independent basis, Debye):
    X=             -1.0726    Y=             -4.6938    Z=             -2.7334  Tot=              5.5365
 Quadrupole moment (field-independent basis, Debye-Ang):
   XX=           -150.9778   YY=           -133.1227   ZZ=           -118.7663
   XY=              8.2022   XZ=             -2.1033   YZ=             -7.5094

 Summary of Natural Population Analysis:

                                       Natural Population
                Natural  -----------------------------------------------
    Atom  No    Charge         Core      Valence    Rydberg      Total
 -----------------------------------------------------------------------
      C    1   -0.28903      0.99966     2.28472    0.00465     3.28903
      C    2   -0.08561      0.99962     2.07460    0.01139     3.08561
      N    3   -0.11162      0.99961     2.59857    0.01343     3.61162
      C    4    0.09112      0.99952     1.89620    0.01316     2.90888
      C    5   -0.16054      0.99949     2.15259    0.00847     3.16054
      C    6   -0.01841      0.99964     2.00486    0.01392     3.01841
      N    7   -0.15662      0.99974     2.64643    0.01045     3.65662
      C    8   -0.21481      0.99958     2.20328    0.01195     3.21481
      C    9   -0.00022      0.99960     1.98625    0.01437     3.00022
      C   10   -0.19402      0.99962     2.18589    0.00851     3.19402
      C   11   -0.23069      0.99960     2.22370    0.00739     3.23069
      C   12    0.34612      0.99968     1.63014    0.02406     2.65388
      O   13   -0.32325      0.99987     3.31786    0.00552     4.32325
      N   14   -0.32158      0.99966     2.81190    0.01002     3.82158
      H   15    0.10101      0.00000     0.39802    0.00097     0.39899
      H   16    0.10245      0.00000     0.39626    0.00129     0.39755
      H   17    0.10164      0.00000     0.39723    0.00114     0.39836
      H   18    0.10468      0.00000     0.39378    0.00154     0.39532
      H   19    0.10303      0.00000     0.39518    0.00179     0.39697
      H   20    0.10913      0.00000     0.39005    0.00082     0.39087
      H   21    0.09426      0.00000     0.40500    0.00074     0.40574
      H   22    0.11594      0.00000     0.38063    0.00343     0.38406
      H   23    0.11395      0.00000     0.38333    0.00271     0.38605
      H   24    0.09742      0.00000     0.39624    0.00634     0.40258
      H   25    0.10848      0.00000     0.38953    0.00199     0.39152
      H   26    0.10145      0.00000     0.39679    0.00176     0.39855
      H   27    0.10955      0.00000     0.38940    0.00105     0.39045
      H   28    0.10814      0.00000     0.39103    0.00082     0.39186
      H   29    0.19800      0.00000     0.29970    0.00229     0.30200
 =======================================================================
   * Total *   -0.00000     13.99487    37.81916    0.18597    52.00000

 Normal termination of Gaussian 16 at Thu Dec 10 11:19:10 2020.
