 Gaussian 16, Revision A.03,

 -----------------------------------------------------------
 # opt freq B3LYP/6-31G(d) empiricaldispersion=gd3bj scf=xqc
 -----------------------------------------------------------

 -----------------------------
 CID_63178417_JID_748_neutraal
 -----------------------------
 Symbolic Z-matrix:
 Charge =  0 Multiplicity = 1

 SCF Done:  E(RB3LYP) =  -425.221151407     A.U. after   13 cycles
 SCF Done:  E(RB3LYP) =  -425.226205769     A.U. after   12 cycles
 SCF Done:  E(RB3LYP) =  -425.226326459     A.U. after   12 cycles
 SCF Done:  E(RB3LYP) =  -425.226921350     A.U. after   12 cycles
 SCF Done:  E(RB3LYP) =  -425.228656244     A.U. after   12 cycles
 SCF Done:  E(RB3LYP) =  -425.229082705     A.U. after   11 cycles
 SCF Done:  E(RB3LYP) =  -425.229168937     A.U. after   10 cycles
 SCF Done:  E(RB3LYP) =  -425.229249346     A.U. after   10 cycles
 SCF Done:  E(RB3LYP) =  -425.229314460     A.U. after   11 cycles
 SCF Done:  E(RB3LYP) =  -425.229345520     A.U. after    9 cycles
 SCF Done:  E(RB3LYP) =  -425.229373197     A.U. after   11 cycles
 SCF Done:  E(RB3LYP) =  -425.229383004     A.U. after   10 cycles
 SCF Done:  E(RB3LYP) =  -425.229384504     A.U. after    8 cycles
 SCF Done:  E(RB3LYP) =  -425.229384699     A.U. after    7 cycles
 SCF Done:  E(RB3LYP) =  -425.229384735     A.U. after    7 cycles
 Optimization completed.
    -- Stationary point found.

 1\1\GINC-NODE127\FOpt\RB3LYP\6-31G(d)\C8H18N2\VSC10255\08-Dec-2020\0\\
 # opt freq B3LYP/6-31G(d) empiricaldispersion=gd3bj scf=xqc\\CID_63178
 417_JID_748_neutraal\\0,1\C,0.7874607882,-0.3371279872,-0.022833517\C,
 0.4319472962,-0.5629670949,1.448644711\N,0.9524797671,0.4973392654,2.3
 13753977\C,-0.0291470218,1.0975348714,3.217273587\C,-0.4343682611,0.18
 55157948,4.3799585061\C,2.3231015074,0.5212242813,2.5775207336\N,3.172
 3503805,-0.3700372978,2.1970238461\C,2.941403796,1.742599376,3.2666956
 426\C,2.5938138415,3.0736239047,2.5812227926\C,2.7571020714,1.78759556

 Normal termination of Gaussian 16 at Tue Dec  8 13:52:03 2020.

 --------------------------------------------------------------------
 #N Geom=AllCheck Guess=TCheck SCRF=Check GenChk RB3LYP/6-31G(d) Freq
 --------------------------------------------------------------------

 Structure from the checkpoint file:  "JID_748.chk"
 -----------------------------
 CID_63178417_JID_748_neutraal
 -----------------------------
 Charge =  0 Multiplicity = 1

 SCF Done:  E(RB3LYP) =  -425.229384735     A.U. after    1 cycles

  Exact polarizability: 107.700  -0.186  97.815  -2.050  -6.503  87.355
 Approx polarizability: 136.798  -1.791 137.070  -3.952 -20.722 134.132

                      1                      2                      3
                      A                      A                      A
 Frequencies --     34.6568                79.1911                96.3130
 Red. masses --      3.0724                 2.6910                 2.6550
 Frc consts  --      0.0022                 0.0099                 0.0145
 IR Inten    --      0.7301                 0.1500                 0.3161

                      4                      5                      6
                      A                      A                      A
 Frequencies --    145.8372               160.9114               202.3108
 Red. masses --      2.4053                 3.1012                 1.1837
 Frc consts  --      0.0301                 0.0473                 0.0285
 IR Inten    --      0.5065                 1.1981                 0.0620

                      7                      8                      9
                      A                      A                      A
 Frequencies --    211.7974               221.5984               228.2722
 Red. masses --      1.1927                 1.1021                 1.0944
 Frc consts  --      0.0315                 0.0319                 0.0336
 IR Inten    --      0.2963                 0.1213                 0.1077

                     10                     11                     12
                      A                      A                      A
 Frequencies --    252.9796               267.1491               322.7070
 Red. masses --      2.0651                 2.5258                 2.2030
 Frc consts  --      0.0779                 0.1062                 0.1352
 IR Inten    --      0.3522                 0.4235                 0.8143

                     13                     14                     15
                      A                      A                      A
 Frequencies --    336.6327               376.7493               434.2455
 Red. masses --      2.7005                 2.6373                 2.1815
 Frc consts  --      0.1803                 0.2206                 0.2424
 IR Inten    --      2.4781                 1.5995                 1.7624

                     16                     17                     18
                      A                      A                      A
 Frequencies --    503.8612               535.3388               596.8441
 Red. masses --      3.4985                 3.0227                 2.5559
 Frc consts  --      0.5233                 0.5104                 0.5364
 IR Inten    --      8.2159                 7.2390                 0.7755

                     19                     20                     21
                      A                      A                      A
 Frequencies --    674.0054               723.6483               799.3757
 Red. masses --      3.3587                 3.7471                 1.2231
 Frc consts  --      0.8990                 1.1561                 0.4605
 IR Inten    --      1.1530                 5.1364                 6.4211

                     22                     23                     24
                      A                      A                      A
 Frequencies --    806.0093               856.0474               883.3176
 Red. masses --      1.1518                 1.7687                 1.4474
 Frc consts  --      0.4409                 0.7637                 0.6654
 IR Inten    --      1.5664                25.4720                50.1998

                     25                     26                     27
                      A                      A                      A
 Frequencies --    937.9563               945.1771               951.7195
 Red. masses --      2.0159                 1.4828                 1.6772
 Frc consts  --      1.0449                 0.7805                 0.8951
 IR Inten    --      2.5108                 2.4397                 0.0704

                     28                     29                     30
                      A                      A                      A
 Frequencies --    983.3606              1014.6885              1092.9682
 Red. masses --      1.3925                 2.1609                 1.8932
 Frc consts  --      0.7933                 1.3109                 1.3325
 IR Inten    --      0.2830                 7.2202                42.0978

                     31                     32                     33
                      A                      A                      A
 Frequencies --   1099.5564              1121.9473              1128.1289
 Red. masses --      1.9467                 1.7860                 1.6844
 Frc consts  --      1.3867                 1.3246                 1.2630
 IR Inten    --     10.9076                14.9426                27.9901

                     34                     35                     36
                      A                      A                      A
 Frequencies --   1143.9503              1166.2492              1217.4570
 Red. masses --      2.3604                 1.6432                 1.8045
 Frc consts  --      1.8199                 1.3168                 1.5759
 IR Inten    --      2.9375                16.9008                 7.2864

                     37                     38                     39
                      A                      A                      A
 Frequencies --   1240.4259              1267.2582              1336.3636
 Red. masses --      2.5178                 1.9867                 1.1998
 Frc consts  --      2.2825                 1.8798                 1.2624
 IR Inten    --     49.4928                 9.4555                33.9298

                     40                     41                     42
                      A                      A                      A
 Frequencies --   1356.5858              1369.4897              1382.0294
 Red. masses --      1.2497                 1.4842                 1.2989
 Frc consts  --      1.3550                 1.6401                 1.4617
 IR Inten    --      9.3789                16.6137                 8.5297

                     43                     44                     45
                      A                      A                      A
 Frequencies --   1401.8149              1406.2351              1429.2920
 Red. masses --      1.4127                 1.3764                 1.2262
 Frc consts  --      1.6357                 1.6036                 1.4759
 IR Inten    --     41.8114                43.9940                 1.6208

                     46                     47                     48
                      A                      A                      A
 Frequencies --   1435.4940              1439.6857              1446.4165
 Red. masses --      1.2958                 1.2593                 1.2945
 Frc consts  --      1.5733                 1.5379                 1.5956
 IR Inten    --     16.8695                24.6783                 8.0978

                     49                     50                     51
                      A                      A                      A
 Frequencies --   1463.8601              1515.5870              1517.9226
 Red. masses --      1.6381                 1.0591                 1.0490
 Frc consts  --      2.0682                 1.4334                 1.4241
 IR Inten    --     77.2568                 3.1797                 8.6059

                     52                     53                     54
                      A                      A                      A
 Frequencies --   1518.8041              1522.2735              1529.8663
 Red. masses --      1.0463                 1.0450                 1.0514
 Frc consts  --      1.4221                 1.4267                 1.4499
 IR Inten    --      0.0883                 5.5103                 1.6626

                     55                     56                     57
                      A                      A                      A
 Frequencies --   1531.2676              1534.2537              1541.1561
 Red. masses --      1.0544                 1.0525                 1.0567
 Frc consts  --      1.4567                 1.4597                 1.4787
 IR Inten    --      5.1040                 1.4410                 5.1086

                     58                     59                     60
                      A                      A                      A
 Frequencies --   1543.7869              1554.6882              1673.8050
 Red. masses --      1.0671                 1.1032                 6.5590
 Frc consts  --      1.4985                 1.5710                10.8268
 IR Inten    --     12.0822                 8.6425               164.6151

                     61                     62                     63
                      A                      A                      A
 Frequencies --   3004.9437              3051.7942              3052.4827
 Red. masses --      1.0732                 1.0357                 1.0364
 Frc consts  --      5.7096                 5.6831                 5.6897
 IR Inten    --     38.9297                 6.1110                42.7753

                     64                     65                     66
                      A                      A                      A
 Frequencies --   3055.4168              3057.7870              3059.8859
 Red. masses --      1.0437                 1.0671                 1.0372
 Frc consts  --      5.7410                 5.8784                 5.7217
 IR Inten    --     18.9578                32.0665                25.2689

                     67                     68                     69
                      A                      A                      A
 Frequencies --   3086.6644              3101.4230              3114.6192
 Red. masses --      1.0865                 1.0897                 1.1011
 Frc consts  --      6.0991                 6.1754                 6.2937
 IR Inten    --      1.4387                15.6717                 6.2433

                     70                     71                     72
                      A                      A                      A
 Frequencies --   3116.3110              3119.1513              3126.8510
 Red. masses --      1.1018                 1.1008                 1.1025
 Frc consts  --      6.3040                 6.3098                 6.3513
 IR Inten    --     19.2584                66.1143                26.0119

                     73                     74                     75
                      A                      A                      A
 Frequencies --   3127.5024              3132.0702              3132.5929
 Red. masses --      1.1023                 1.1007                 1.1007
 Frc consts  --      6.3523                 6.3618                 6.3642
 IR Inten    --     16.1453                11.7066                68.9511

                     76                     77                     78
                      A                      A                      A
 Frequencies --   3146.0008              3184.1061              3465.3426
 Red. masses --      1.1017                 1.0884                 1.0729
 Frc consts  --      6.4244                 6.5017                 7.5909
 IR Inten    --     26.2845                25.4321                15.2007

 - Thermochemistry -
 -------------------
 Temperature   298.150 Kelvin.  Pressure   1.00000 Atm.
 Atom     1 has atomic number  6 and mass  12.00000

 Molecular mass:   142.14700 amu.
 Principal axes and moments of inertia in atomic units:
                           1         2         3
     Eigenvalues --  1186.236751733.678532222.22765
           X            0.99982   0.01850  -0.00398
           Y           -0.01833   0.99902   0.04024
           Z            0.00472  -0.04016   0.99918
 This molecule is an asymmetric top.
 Rotational symmetry number  1.
 Warning -- assumption of classical behavior for rotation
           may cause significant error
 Rotational temperatures (Kelvin)      0.07302     0.04996     0.03898
 Rotational constants (GHZ):           1.52140     1.04099     0.81213
 Zero-point vibrational energy     679755.6 (Joules/Mol)
                                  162.46549 (Kcal/Mol)
 Warning -- explicit consideration of  18 degrees of freedom as
           vibrations may cause significant error
 Vibrational temperatures:     49.86   113.94   138.57   209.83   231.52
          (Kelvin)            291.08   304.73   318.83   328.43   363.98
                              384.37   464.30   484.34   542.06   624.78
                              724.94   770.23   858.73   969.74  1041.17
                             1150.12  1159.67  1231.66  1270.90  1349.51
                             1359.90  1369.31  1414.84  1459.91  1572.54
                             1582.02  1614.23  1623.13  1645.89  1677.97
                             1751.65  1784.70  1823.30  1922.73  1951.82
                             1970.39  1988.43  2016.90  2023.26  2056.43
                             2065.36  2071.39  2081.07  2106.17  2180.59
                             2183.95  2185.22  2190.21  2201.14  2203.15
                             2207.45  2217.38  2221.16  2236.85  2408.23
                             4323.44  4390.85  4391.84  4396.06  4399.47
                             4402.49  4441.02  4462.26  4481.24  4483.68
                             4487.76  4498.84  4499.78  4506.35  4507.10
                             4526.39  4581.22  4985.86

 Zero-point correction=                           0.258905 (Hartree/Particle)
 Thermal correction to Energy=                    0.271468
 Thermal correction to Enthalpy=                  0.272412
 Thermal correction to Gibbs Free Energy=         0.220647
 Sum of electronic and zero-point Energies=           -424.970479
 Sum of electronic and thermal Energies=              -424.957917
 Sum of electronic and thermal Enthalpies=            -424.956973
 Sum of electronic and thermal Free Energies=         -425.008738

                     E (Thermal)             CV                S
                      KCal/Mol        Cal/Mol-Kelvin    Cal/Mol-Kelvin
 Total                  170.349             46.098            108.949
 Electronic               0.000              0.000              0.000
 Translational            0.889              2.981             40.766
 Rotational               0.889              2.981             29.903
 Vibrational            168.571             40.136             38.280
 Vibration     1          0.594              1.983              5.543
 Vibration     2          0.600              1.963              3.911
 Vibration     3          0.603              1.952              3.528
 Vibration     4          0.617              1.907              2.726
 Vibration     5          0.622              1.890              2.539
 Vibration     6          0.639              1.837              2.112
 Vibration     7          0.643              1.823              2.028
 Vibration     8          0.648              1.808              1.946
 Vibration     9          0.651              1.798              1.892
 Vibration    10          0.664              1.758              1.710
 Vibration    11          0.672              1.733              1.615
 Vibration    12          0.708              1.630              1.296
 Vibration    13          0.717              1.602              1.228
 Vibration    14          0.747              1.520              1.052
 Vibration    15          0.795              1.396              0.845
 Vibration    16          0.859              1.241              0.649
 Vibration    17          0.890              1.172              0.575
 Vibration    18          0.955              1.038              0.455

 Optimization completed.
    -- Stationary point found.

 1\1\GINC-NODE127\Freq\RB3LYP\6-31G(d)\C8H18N2\VSC10255\08-Dec-2020\0\\
 #N Geom=AllCheck Guess=TCheck SCRF=Check GenChk RB3LYP/6-31G(d) Freq\\
 CID_63178417_JID_748_neutraal\\0,1\C,0.7874607882,-0.3371279872,-0.022
 833517\C,0.4319472962,-0.5629670949,1.448644711\N,0.9524797671,0.49733
 92654,2.313753977\C,-0.0291470218,1.0975348714,3.217273587\C,-0.434368
 2611,0.1855157948,4.3799585061\C,2.3231015074,0.5212242813,2.577520733
 6\N,3.1723503805,-0.3700372978,2.1970238461\C,2.941403796,1.742599376,
 3.2666956426\C,2.5938138415,3.0736239047,2.5812227926\C,2.7571020714,1

 Normal termination of Gaussian 16 at Tue Dec  8 13:59:15 2020.

 ----------------------------------------------------------------------
 # B3LYP/6-311++G(d,p) empiricaldispersion=gd3bj scf=xqc pop=npa geom=c
 heck
 ----------------------------------------------------------------------

 -------------------------------------
 CID_63178417_JID_748_Energie_neutraal
 -------------------------------------
 Structure from the checkpoint file:  "JID_748.chk"
 Charge =  0 Multiplicity = 1

 SCF Done:  E(RB3LYP) =  -425.353815036     A.U. after   13 cycles
 Normal termination of Gaussian 16 at Tue Dec  8 14:03:36 2020.

 ----------------------------------------------------------------------
 # B3LYP/6-311++G(d,p) empiricaldispersion=gd3bj scf=xqc pop=npa geom=c
 heck
 ----------------------------------------------------------------------

 -----------------------------------
 CID_63178417_JID_748_Energie_kation
 -----------------------------------
 Structure from the checkpoint file:  "JID_748.chk"
 Charge =  1 Multiplicity = 2

 SCF Done:  E(UB3LYP) =  -425.058544581     A.U. after   20 cycles
 Normal termination of Gaussian 16 at Tue Dec  8 14:11:51 2020.
 Gaussian 16:  ES64L-G16RevA.03 25-Dec-2016

 ----------------------------------
 CID_63178417_JID_748_Energie_anion
 ----------------------------------
 Structure from the checkpoint file:  "JID_748.chk"
 Charge = -1 Multiplicity = 2

                         Standard orientation:
 ---------------------------------------------------------------------
 Center     Atomic      Atomic             Coordinates (Angstroms)
 Number     Number       Type             X           Y           Z
 ---------------------------------------------------------------------
      1          6           0       -2.762859   -1.108668   -0.495330
      2          6           0       -2.109833    0.133298    0.115996
      3          7           0       -0.674320    0.199606   -0.164222
      4          6           0       -0.209529    1.470811   -0.719362
      5          6           0       -0.183367    2.614903    0.299554
      6          6           0        0.173835   -0.669454    0.524338
      7          7           0       -0.185236   -1.474932    1.463817
      8          6           0        1.636523   -0.806017    0.087404
      9          6           0        1.802316   -1.110867   -1.409893
     10          6           0        2.567847    0.317674    0.578564
     11          1           0       -2.650983   -1.095356   -1.584245
     12          1           0       -3.831499   -1.139106   -0.254847
     13          1           0       -2.298497   -2.024616   -0.120367
     14          1           0       -2.566002    1.029704   -0.313213
     15          1           0       -2.307738    0.185054    1.197654
     16          1           0        0.781368    1.333520   -1.146509
     17          1           0       -0.869352    1.729632   -1.556157
     18          1           0        0.491387    2.378328    1.128392
     19          1           0        0.160072    3.543658   -0.170911
     20          1           0       -1.179632    2.797480    0.717042
     21          1           0       -1.161391   -1.339261    1.734471
     22          1           0        1.940811   -1.703852    0.632351
     23          1           0        1.566978   -0.257787   -2.053920
     24          1           0        2.839401   -1.399795   -1.616178
     25          1           0        1.154080   -1.941327   -1.708256
     26          1           0        2.406358    0.512252    1.644088
     27          1           0        3.611524    0.008940    0.448978
     28          1           0        2.440406    1.259732    0.036835
 ---------------------------------------------------------------------

 SCF Done:  E(UB3LYP) =  -425.338781278     A.U. after   29 cycles

 The electronic state is 2-A.
 Alpha  occ. eigenvalues --  -14.22609 -14.16505 -10.13213 -10.09861 -10.09722
 Alpha  occ. eigenvalues --  -10.07771 -10.06215 -10.06141 -10.05790 -10.05558
 Alpha  occ. eigenvalues --   -0.85689  -0.76298  -0.69294  -0.66245  -0.62849
 Alpha  occ. eigenvalues --   -0.58890  -0.54514  -0.53027  -0.50583  -0.42777
 Alpha  occ. eigenvalues --   -0.40496  -0.38502  -0.35917  -0.34138  -0.33734
 Alpha  occ. eigenvalues --   -0.33197  -0.31787  -0.30763  -0.29262  -0.28727
 Alpha  occ. eigenvalues --   -0.27437  -0.27029  -0.25833  -0.25108  -0.24503
 Alpha  occ. eigenvalues --   -0.24400  -0.22284  -0.20923  -0.15785  -0.11910
 Alpha  occ. eigenvalues --    0.04652
 Alpha virt. eigenvalues --    0.06782   0.07505   0.08134   0.09442   0.09534
 Alpha virt. eigenvalues --    0.10042   0.10487   0.10803   0.11806   0.12375
 Alpha virt. eigenvalues --    0.12737   0.13194   0.13477   0.13633   0.14458

  Beta  occ. eigenvalues --  -14.22610 -14.16496 -10.13211 -10.09829 -10.09692
  Beta  occ. eigenvalues --  -10.07767 -10.06189 -10.06121 -10.05758 -10.05518
  Beta  occ. eigenvalues --   -0.85677  -0.76281  -0.69271  -0.66199  -0.62800
  Beta  occ. eigenvalues --   -0.58844  -0.54454  -0.52937  -0.50528  -0.42729
  Beta  occ. eigenvalues --   -0.40465  -0.38450  -0.35884  -0.34095  -0.33709
  Beta  occ. eigenvalues --   -0.33171  -0.31753  -0.30709  -0.29209  -0.28695
  Beta  occ. eigenvalues --   -0.27385  -0.26964  -0.25795  -0.25078  -0.24468
  Beta  occ. eigenvalues --   -0.24368  -0.22258  -0.20901  -0.15772  -0.11895
  Beta virt. eigenvalues --    0.06970   0.07697   0.08221   0.08912   0.09792
  Beta virt. eigenvalues --    0.10174   0.10676   0.10936   0.11184   0.12016
  Beta virt. eigenvalues --    0.12763   0.13039   0.13664   0.13874   0.14017

 Mulliken charges and spin densities:
               1          2
     1  C    0.742983  -1.206935
     2  C    0.173303  -0.339391
     3  N    0.040582   0.184529
     4  C   -0.650970   0.515877
     5  C    1.295542  -1.787848
     6  C    0.224976  -0.706722
     7  N   -0.332002   0.053868
     8  C   -0.813571   1.023738
     9  C    0.224719  -0.816663
    10  C    0.447576  -1.027257
    11  H   -0.067678   0.217411
    12  H   -0.399126   0.543868
    13  H   -0.005041   0.131185
    14  H   -0.442222   0.616503
    15  H   -0.040548   0.185766
    16  H    0.614111  -0.536253
    17  H   -0.621482   0.820451
    18  H    0.011008   0.138515
    19  H   -0.764421   0.917053
    20  H   -0.193304   0.332400
    21  H    0.193963   0.003448
    22  H    0.139319   0.073183
    23  H   -0.363041   0.518343
    24  H   -0.168246   0.308846
    25  H    0.065642   0.077996
    26  H    0.008193   0.137798
    27  H   -0.083848   0.225056
    28  H   -0.236415   0.395236
 Sum of Mulliken charges =  -1.00000   1.00000

 Dipole moment (field-independent basis, Debye):
    X=              2.4007    Y=             -3.6732    Z=              1.5855  Tot=              4.6657
 Quadrupole moment (field-independent basis, Debye-Ang):
   XX=           -121.4894   YY=           -117.4482   ZZ=           -101.4025
   XY=              3.0951   XZ=             -2.4182   YZ=              6.8914

 Summary of Natural Population Analysis:

                                       Natural Population
                Natural  -----------------------------------------------
    Atom  No    Charge         Core      Valence    Rydberg      Total
 -----------------------------------------------------------------------
      C    1   -0.28994      0.99966     2.28461    0.00568     3.28994
      C    2   -0.08970      0.99961     2.07734    0.01274     3.08970
      N    3   -0.27043      0.99964     2.75671    0.01407     3.77043
      C    4   -0.08217      0.99960     2.07090    0.01168     3.08217
      C    5   -0.29226      0.99966     2.28744    0.00516     3.29226
      C    6    0.24503      0.99958     1.73702    0.01837     2.75497
      N    7   -0.37101      0.99972     2.86377    0.00752     3.87101
      C    8   -0.13894      0.99956     2.12885    0.01052     3.13894
      C    9   -0.28198      0.99965     2.27660    0.00573     3.28198
      C   10   -0.28197      0.99964     2.27683    0.00550     3.28197
      H   11    0.10065      0.00000     0.39808    0.00127     0.39935
      H   12    0.09984      0.00000     0.39890    0.00125     0.40016
      H   13    0.10063      0.00000     0.39823    0.00114     0.39937
      H   14    0.10412      0.00000     0.39346    0.00241     0.39588
      H   15    0.08738      0.00000     0.41099    0.00164     0.41262
      H   16    0.09759      0.00000     0.40035    0.00206     0.40241
      H   17    0.09810      0.00000     0.39939    0.00251     0.40190
      H   18    0.09773      0.00000     0.40115    0.00112     0.40227
      H   19    0.10319      0.00000     0.39485    0.00196     0.39681
      H   20    0.09969      0.00000     0.39889    0.00141     0.40031
      H   21    0.15981      0.00000     0.33788    0.00231     0.34019
      H   22    0.10946      0.00000     0.38841    0.00213     0.39054
      H   23    0.09770      0.00000     0.40121    0.00109     0.40230
      H   24    0.09753      0.00000     0.40158    0.00088     0.40247
      H   25    0.10198      0.00000     0.39708    0.00094     0.39802
      H   26    0.10226      0.00000     0.39678    0.00096     0.39774
      H   27    0.09836      0.00000     0.40072    0.00092     0.40164
      H   28    0.09733      0.00000     0.40157    0.00110     0.40267
 =======================================================================
   * Total *    0.00000      9.99632    29.87959    0.12409    40.00000

 Normal termination of Gaussian 16 at Tue Dec  8 14:21:32 2020.
