 Gaussian 16, Revision A.03,

 -----------------------------------------------------------
 # opt freq B3LYP/6-31G(d) empiricaldispersion=gd3bj scf=xqc
 -----------------------------------------------------------

 -------------------------------
 CID_112706499_JID_7843_neutraal
 -------------------------------
 Symbolic Z-matrix:
 Charge =  0 Multiplicity = 1

 SCF Done:  E(RB3LYP) =  -1070.51832328     A.U. after   15 cycles
 SCF Done:  E(RB3LYP) =  -1070.52564233     A.U. after   12 cycles
 SCF Done:  E(RB3LYP) =  -1070.52697519     A.U. after   12 cycles
 SCF Done:  E(RB3LYP) =  -1070.52760987     A.U. after   12 cycles
 SCF Done:  E(RB3LYP) =  -1070.52803351     A.U. after   12 cycles
 SCF Done:  E(RB3LYP) =  -1070.52836259     A.U. after   12 cycles
 SCF Done:  E(RB3LYP) =  -1070.52902871     A.U. after   15 cycles
 SCF Done:  E(RB3LYP) =  -1070.52945366     A.U. after   12 cycles
 SCF Done:  E(RB3LYP) =  -1070.52965095     A.U. after   11 cycles
 SCF Done:  E(RB3LYP) =  -1070.52949361     A.U. after   12 cycles
 SCF Done:  E(RB3LYP) =  -1070.52992112     A.U. after   11 cycles
 SCF Done:  E(RB3LYP) =  -1070.52992705     A.U. after   10 cycles
 SCF Done:  E(RB3LYP) =  -1070.52992858     A.U. after    8 cycles
 SCF Done:  E(RB3LYP) =  -1070.52992886     A.U. after    7 cycles
 SCF Done:  E(RB3LYP) =  -1070.52992890     A.U. after    7 cycles
 Optimization completed.
    -- Stationary point found.
 Normal termination of Gaussian 16 at Fri Dec 11 13:33:59 2020.

 --------------------------------------------------------------------
 #N Geom=AllCheck Guess=TCheck SCRF=Check GenChk RB3LYP/6-31G(d) Freq
 --------------------------------------------------------------------

 Structure from the checkpoint file:  "JID_7843.chk"
 -------------------------------
 CID_112706499_JID_7843_neutraal
 -------------------------------
 Charge =  0 Multiplicity = 1

 SCF Done:  E(RB3LYP) =  -1070.52992890     A.U. after    1 cycles

  Exact polarizability: 208.324   4.632 156.565  -4.368   3.997 130.963
 Approx polarizability: 269.750   9.414 268.478  -9.004  12.888 202.043

                      1                      2                      3
                      A                      A                      A
 Frequencies --     27.4030                38.8334                66.6269
 Red. masses --      3.5651                 2.9752                 3.4332
 Frc consts  --      0.0016                 0.0026                 0.0090
 IR Inten    --      0.2051                 0.0093                 0.0797

                      4                      5                      6
                      A                      A                      A
 Frequencies --     86.4624               109.8804               153.2152
 Red. masses --      4.1740                 3.8896                 2.9460
 Frc consts  --      0.0184                 0.0277                 0.0407
 IR Inten    --      0.6814                 1.5475                 0.2717

                      7                      8                      9
                      A                      A                      A
 Frequencies --    195.7832               237.2730               248.2994
 Red. masses --      3.1781                 1.0439                 3.3254
 Frc consts  --      0.0718                 0.0346                 0.1208
 IR Inten    --      2.2309                 0.0226                 0.4233

                     10                     11                     12
                      A                      A                      A
 Frequencies --    273.1900               282.7319               298.2395
 Red. masses --      2.6560                 1.2699                 2.2502
 Frc consts  --      0.1168                 0.0598                 0.1179
 IR Inten    --      1.2306                 0.7096                 0.0672

                     13                     14                     15
                      A                      A                      A
 Frequencies --    303.8767               315.5070               329.2950
 Red. masses --      1.0588                 3.0417                 2.8473
 Frc consts  --      0.0576                 0.1784                 0.1819
 IR Inten    --      0.0294                 0.3096                 0.9587

                     16                     17                     18
                      A                      A                      A
 Frequencies --    365.3496               385.8182               409.4339
 Red. masses --      2.3244                 2.4710                 2.8373
 Frc consts  --      0.1828                 0.2167                 0.2802
 IR Inten    --      1.2155                 0.5721                 0.9213

                     19                     20                     21
                      A                      A                      A
 Frequencies --    416.0521               447.7530               495.5268
 Red. masses --      2.3037                 2.5163                 3.8992
 Frc consts  --      0.2350                 0.2972                 0.5641
 IR Inten    --      0.8970                 0.3002                 0.9907

                     22                     23                     24
                      A                      A                      A
 Frequencies --    531.0763               554.0612               589.0808
 Red. masses --      5.0998                 3.3472                 4.4270
 Frc consts  --      0.8475                 0.6054                 0.9051
 IR Inten    --      0.6369                 1.2826                 0.4870

                     25                     26                     27
                      A                      A                      A
 Frequencies --    611.3970               620.9722               679.8312
 Red. masses --      6.7993                 4.9387                 6.2420
 Frc consts  --      1.4975                 1.1220                 1.6997
 IR Inten    --      0.4026                 0.7966                11.8561

                     28                     29                     30
                      A                      A                      A
 Frequencies --    722.7587               746.3824               770.1702
 Red. masses --      2.9867                 3.5462                 1.5452
 Frc consts  --      0.9192                 1.1640                 0.5400
 IR Inten    --      4.7907                 1.1049                19.5604

                     31                     32                     33
                      A                      A                      A
 Frequencies --    785.7589               807.2693               825.7877
 Red. masses --      4.1301                 3.7809                 1.2805
 Frc consts  --      1.5024                 1.4517                 0.5145
 IR Inten    --     56.6073                 7.8862                 1.6804

                     34                     35                     36
                      A                      A                      A
 Frequencies --    828.7536               841.3621               869.0666
 Red. masses --      3.2374                 1.4780                 3.4834
 Frc consts  --      1.3101                 0.6164                 1.5501
 IR Inten    --      1.6467                 8.0430                 7.0306

                     37                     38                     39
                      A                      A                      A
 Frequencies --    905.6245               910.3056               944.2503
 Red. masses --      3.6030                 3.4961                 1.7809
 Frc consts  --      1.7411                 1.7069                 0.9355
 IR Inten    --      6.7981                14.6176                 0.6154

                     40                     41                     42
                      A                      A                      A
 Frequencies --    953.9721               961.6248               977.3058
 Red. masses --      2.1473                 2.6964                 1.2046
 Frc consts  --      1.1514                 1.4691                 0.6779
 IR Inten    --      1.2228                 5.4628                 0.0952

                     43                     44                     45
                      A                      A                      A
 Frequencies --    977.8303              1003.8452              1019.8867
 Red. masses --      3.2808                 4.4330                 1.9838
 Frc consts  --      1.8483                 2.6320                 1.2158
 IR Inten    --      8.9785                28.2059                 3.9864

                     46                     47                     48
                      A                      A                      A
 Frequencies --   1046.3365              1055.5584              1060.1570
 Red. masses --      2.5414                 2.6039                 1.5413
 Frc consts  --      1.6393                 1.7094                 1.0207
 IR Inten    --      1.2148                 4.4306                 3.7455

                     49                     50                     51
                      A                      A                      A
 Frequencies --   1062.2532              1087.8852              1102.7419
 Red. masses --      1.3966                 3.2539                 3.1824
 Frc consts  --      0.9285                 2.2690                 2.2801
 IR Inten    --      0.0298                59.1907                29.6142

                     52                     53                     54
                      A                      A                      A
 Frequencies --   1134.7196              1166.4837              1182.2542
 Red. masses --      1.7293                 2.1716                 2.2581
 Frc consts  --      1.3119                 1.7410                 1.8596
 IR Inten    --     21.9214                 4.7661                30.6451

                     55                     56                     57
                      A                      A                      A
 Frequencies --   1217.0388              1228.9107              1245.0521
 Red. masses --      1.9341                 1.2499                 2.6736
 Frc consts  --      1.6879                 1.1121                 2.4419
 IR Inten    --      0.1669                 4.2089                 3.0102

                     58                     59                     60
                      A                      A                      A
 Frequencies --   1250.0706              1277.2600              1279.1675
 Red. masses --      2.7194                 1.9235                 1.2524
 Frc consts  --      2.5038                 1.8489                 1.2074
 IR Inten    --     12.5013                17.6913                 9.1617

                     61                     62                     63
                      A                      A                      A
 Frequencies --   1331.9400              1338.6998              1345.4033
 Red. masses --      1.4712                 1.2440                 3.2345
 Frc consts  --      1.5377                 1.3135                 3.4496
 IR Inten    --      1.8634                 0.0683                 0.2402

                     64                     65                     66
                      A                      A                      A
 Frequencies --   1350.1252              1353.2910              1359.9512
 Red. masses --      1.3092                 1.2591                 1.3115
 Frc consts  --      1.4061                 1.3586                 1.4291
 IR Inten    --      0.4006                 1.8106                 0.8464

                     67                     68                     69
                      A                      A                      A
 Frequencies --   1361.8931              1367.9586              1377.7722
 Red. masses --      1.3981                 1.4522                 1.3195
 Frc consts  --      1.5278                 1.6012                 1.4757
 IR Inten    --      1.0614                 7.9824                 0.2775

                     70                     71                     72
                      A                      A                      A
 Frequencies --   1388.4490              1406.2653              1419.0552
 Red. masses --      1.4304                 1.4113                 1.2207
 Frc consts  --      1.6247                 1.6444                 1.4483
 IR Inten    --     26.7749                 8.1731                 4.9792

                     73                     74                     75
                      A                      A                      A
 Frequencies --   1424.3226              1452.5120              1507.7837
 Red. masses --      1.2476                 1.2374                 1.0483
 Frc consts  --      1.4913                 1.5382                 1.4041
 IR Inten    --      7.5400                 5.5470                 0.0089

                     76                     77                     78
                      A                      A                      A
 Frequencies --   1510.3004              1514.0364              1520.0740
 Red. masses --      1.0802                 1.0857                 1.0824
 Frc consts  --      1.4517                 1.4663                 1.4736
 IR Inten    --      0.1910                 2.7346                 8.3631

                     79                     80                     81
                      A                      A                      A
 Frequencies --   1521.8498              1522.5215              1523.2106
 Red. masses --      1.0475                 1.0482                 1.0907
 Frc consts  --      1.4293                 1.4316                 1.4910
 IR Inten    --      0.2475                 1.1802                 7.0226

                     82                     83                     84
                      A                      A                      A
 Frequencies --   1530.4577              1530.5583              1534.3490
 Red. masses --      1.1024                 1.0648                 1.0504
 Frc consts  --      1.5213                 1.4696                 1.4570
 IR Inten    --      4.7393                 5.3070                 4.8134

                     85                     86                     87
                      A                      A                      A
 Frequencies --   1538.9379              1562.3808              1585.3620
 Red. masses --      2.0323                 1.6826                 9.3235
 Frc consts  --      2.8358                 2.4199                13.8066
 IR Inten    --      5.3464                 1.8388                53.9168

                     88                     89                     90
                      A                      A                      A
 Frequencies --   3026.7460              3044.2305              3045.2773
 Red. masses --      1.0836                 1.0348                 1.0355
 Frc consts  --      5.8488                 5.6502                 5.6576
 IR Inten    --     12.7385                19.9851                29.7544

                     91                     92                     93
                      A                      A                      A
 Frequencies --   3048.6434              3052.1694              3052.3292
 Red. masses --      1.0588                 1.0435                 1.0523
 Frc consts  --      5.7979                 5.7276                 5.7762
 IR Inten    --     22.4210                34.2151                61.2531

                     94                     95                     96
                      A                      A                      A
 Frequencies --   3057.8294              3069.0736              3072.5700
 Red. masses --      1.0595                 1.0624                 1.0639
 Frc consts  --      5.8367                 5.8959                 5.9177
 IR Inten    --     82.8500                66.1984                14.4016

                     97                     98                     99
                      A                      A                      A
 Frequencies --   3087.2370              3094.1808              3109.4121
 Red. masses --      1.1075                 1.1067                 1.1032
 Frc consts  --      6.2191                 6.2426                 6.2841
 IR Inten    --      0.2385                 6.8487                 1.1035

                    100                    101                    102
                      A                      A                      A
 Frequencies --   3110.0825              3111.9743              3114.5878
 Red. masses --      1.1083                 1.1025                 1.1024
 Frc consts  --      6.3159                 6.2907                 6.3007
 IR Inten    --     52.2867                13.1575                45.9546

                    103                    104                    105
                      A                      A                      A
 Frequencies --   3119.5351              3122.6382              3130.9942
 Red. masses --      1.1017                 1.1065                 1.1043
 Frc consts  --      6.3168                 6.3568                 6.3783
 IR Inten    --     76.2330                50.2764                22.4953

                    106                    107                    108
                      A                      A                      A
 Frequencies --   3135.5570              3139.3137              3283.9717
 Red. masses --      1.1016                 1.1008                 1.0939
 Frc consts  --      6.3810                 6.3917                 6.9504
 IR Inten    --      3.9982                37.5881                 1.4949

 - Thermochemistry -
 -------------------
 Temperature   298.150 Kelvin.  Pressure   1.00000 Atm.
 Atom     1 has atomic number  6 and mass  12.00000

 Molecular mass:   251.14562 amu.
 Principal axes and moments of inertia in atomic units:
                           1         2         3
     Eigenvalues --  1928.177277302.844788118.20545
           X            0.99995   0.00949  -0.00116
           Y           -0.00949   0.99994   0.00460
           Z            0.00120  -0.00459   0.99999
 This molecule is an asymmetric top.
 Rotational symmetry number  1.
 Warning -- assumption of classical behavior for rotation
           may cause significant error
 Rotational temperatures (Kelvin)      0.04492     0.01186     0.01067
 Rotational constants (GHZ):           0.93598     0.24713     0.22231
 Zero-point vibrational energy     876435.8 (Joules/Mol)
                                  209.47319 (Kcal/Mol)
 Warning -- explicit consideration of  25 degrees of freedom as
           vibrations may cause significant error
 Vibrational temperatures:     39.43    55.87    95.86   124.40   158.09
          (Kelvin)            220.44   281.69   341.38   357.25   393.06
                              406.79   429.10   437.21   453.94   473.78
                              525.66   555.11   589.08   598.61   644.22
                              712.95   764.10   797.17   847.56   879.66
                              893.44   978.13  1039.89  1073.88  1108.10
                             1130.53  1161.48  1188.12  1192.39  1210.53
                             1250.39  1302.99  1309.73  1358.57  1372.55
                             1383.56  1406.13  1406.88  1444.31  1467.39
                             1505.44  1518.71  1525.33  1528.35  1565.22
                             1586.60  1632.61  1678.31  1701.00  1751.05
                             1768.13  1791.35  1798.57  1837.69  1840.44
                             1916.36  1926.09  1935.74  1942.53  1947.08
                             1956.67  1959.46  1968.19  1982.31  1997.67
                             2023.30  2041.70  2049.28  2089.84  2169.36
                             2172.99  2178.36  2187.05  2189.60  2190.57
                             2191.56  2201.99  2202.13  2207.59  2214.19
                             2247.92  2280.98  4354.81  4379.97  4381.47
                             4386.32  4391.39  4391.62  4399.53  4415.71
                             4420.74  4441.85  4451.84  4473.75  4474.71
                             4477.44  4481.20  4488.32  4492.78  4504.80
                             4511.37  4516.77  4724.90

 Zero-point correction=                           0.333817 (Hartree/Particle)
 Thermal correction to Energy=                    0.349708
 Thermal correction to Enthalpy=                  0.350652
 Thermal correction to Gibbs Free Energy=         0.290168
 Sum of electronic and zero-point Energies=          -1070.196112
 Sum of electronic and thermal Energies=             -1070.180221
 Sum of electronic and thermal Enthalpies=           -1070.179277
 Sum of electronic and thermal Free Energies=        -1070.239761

                     E (Thermal)             CV                S
                      KCal/Mol        Cal/Mol-Kelvin    Cal/Mol-Kelvin
 Total                  219.445             63.687            127.299
 Electronic               0.000              0.000              0.000
 Translational            0.889              2.981             42.463
 Rotational               0.889              2.981             33.102
 Vibrational            217.668             57.725             51.734
 Vibration     1          0.593              1.984              6.009
 Vibration     2          0.594              1.981              5.318
 Vibration     3          0.598              1.970              4.251
 Vibration     4          0.601              1.959              3.739
 Vibration     5          0.606              1.941              3.271
 Vibration     6          0.619              1.899              2.632
 Vibration     7          0.636              1.846              2.172
 Vibration     8          0.656              1.784              1.823
 Vibration     9          0.662              1.766              1.743
 Vibration    10          0.676              1.723              1.576
 Vibration    11          0.682              1.706              1.517
 Vibration    12          0.691              1.677              1.427
 Vibration    13          0.695              1.666              1.395
 Vibration    14          0.703              1.644              1.333
 Vibration    15          0.712              1.617              1.264
 Vibration    16          0.739              1.544              1.099
 Vibration    17          0.754              1.500              1.016
 Vibration    18          0.774              1.450              0.929
 Vibration    19          0.779              1.435              0.905
 Vibration    20          0.807              1.366              0.803
 Vibration    21          0.851              1.260              0.669
 Vibration    22          0.886              1.181              0.585
 Vibration    23          0.909              1.131              0.536
 Vibration    24          0.946              1.055              0.469
 Vibration    25          0.971              1.008              0.430

 Optimization completed.
    -- Stationary point found.
 Normal termination of Gaussian 16 at Fri Dec 11 13:48:53 2020.

 ----------------------------------------------------------------------
 # B3LYP/6-311++G(d,p) empiricaldispersion=gd3bj scf=xqc pop=npa geom=c
 heck
 ----------------------------------------------------------------------

 ---------------------------------------
 CID_112706499_JID_7843_Energie_neutraal
 ---------------------------------------
 Structure from the checkpoint file:  "JID_7843.chk"
 Charge =  0 Multiplicity = 1

 SCF Done:  E(RB3LYP) =  -1070.73048340     A.U. after   16 cycles
 Normal termination of Gaussian 16 at Fri Dec 11 13:56:17 2020.

 ----------------------------------------------------------------------
 # B3LYP/6-311++G(d,p) empiricaldispersion=gd3bj scf=xqc pop=npa geom=c
 heck
 ----------------------------------------------------------------------

 -------------------------------------
 CID_112706499_JID_7843_Energie_kation
 -------------------------------------
 Structure from the checkpoint file:  "JID_7843.chk"
 Charge =  1 Multiplicity = 2

 SCF Done:  E(UB3LYP) =  -1070.46331929     A.U. after   24 cycles
 Normal termination of Gaussian 16 at Fri Dec 11 14:11:18 2020.
 Gaussian 16:  ES64L-G16RevA.03 25-Dec-2016

 ----------------------------------------------------------------------
 # B3LYP/6-311++G(d,p) empiricaldispersion=gd3bj scf=xqc pop=npa geom=c
 heck
 ----------------------------------------------------------------------

 ------------------------------------
 CID_112706499_JID_7843_Energie_anion
 ------------------------------------
 Structure from the checkpoint file:  "JID_7843.chk"
 Charge = -1 Multiplicity = 2

                         Standard orientation:
 ---------------------------------------------------------------------
 Center     Atomic      Atomic             Coordinates (Angstroms)
 Number     Number       Type             X           Y           Z
 ---------------------------------------------------------------------
      1          6           0       -3.664618   -1.266283   -1.334562
      2          6           0       -3.431825   -0.594888    0.034926
      3          6           0       -4.656114    0.253633    0.406484
      4          6           0       -3.213222   -1.683334    1.106500
      5          6           0       -2.181370    0.259336   -0.050175
      6          6           0       -2.071533    1.604340    0.167944
      7         16           0       -0.428133    2.137801   -0.026383
      8          6           0        0.008950    0.475917   -0.409275
      9          7           0       -0.983903   -0.361019   -0.376383
     10          6           0        1.418748    0.126446   -0.789157
     11          6           0        1.753478   -1.393665   -0.634909
     12          7           0        3.026031   -1.552238    0.080668
     13          6           0        4.072841   -0.780166   -0.607119
     14          6           0        3.715114    0.742707   -0.601013
     15          7           0        2.379113    0.938416   -0.012349
     16          6           0        2.411271    0.469114    1.388085
     17          6           0        2.867010   -1.022097    1.443777
     18          1           0       -4.535838   -1.930492   -1.290139
     19          1           0       -2.790514   -1.855127   -1.626710
     20          1           0       -3.845234   -0.514895   -2.111607
     21          1           0       -5.548318   -0.379513    0.460042
     22          1           0       -4.528181    0.734900    1.382831
     23          1           0       -4.843374    1.033764   -0.340191
     24          1           0       -2.330516   -2.284030    0.869361
     25          1           0       -3.064842   -1.233457    2.094799
     26          1           0       -4.084320   -2.347083    1.158892
     27          1           0       -2.847177    2.301591    0.448083
     28          1           0        1.557600    0.424738   -1.837248
     29          1           0        0.965644   -1.906143   -0.077072
     30          1           0        1.836399   -1.873798   -1.615420
     31          1           0        5.026584   -0.968605   -0.101389
     32          1           0        4.159097   -1.164803   -1.629643
     33          1           0        3.709293    1.160536   -1.614117
     34          1           0        4.429593    1.323024   -0.007189
     35          1           0        1.412554    0.600947    1.813480
     36          1           0        3.092108    1.124787    1.941188
     37          1           0        2.132589   -1.643089    1.968318
     38          1           0        3.825911   -1.130538    1.963271
 ---------------------------------------------------------------------

 SCF Done:  E(UB3LYP) =  -1070.71808130     A.U. after   33 cycles
 SCF Done:  E(UB3LYP) =  -1070.71808130     a.u. after    1 cycles

 The electronic state is 2-A.
 Alpha  occ. eigenvalues --  -88.76529 -14.21141 -14.20762 -14.19914 -10.12015
 Alpha  occ. eigenvalues --  -10.10582 -10.09678 -10.09410 -10.09330 -10.09256
 Alpha  occ. eigenvalues --  -10.09252 -10.09218 -10.08790 -10.08512 -10.06572
 Alpha  occ. eigenvalues --  -10.06163 -10.05922  -7.85144  -5.81414  -5.81065
 Alpha  occ. eigenvalues --   -5.80762  -0.87203  -0.85202  -0.78892  -0.72776
 Alpha  occ. eigenvalues --   -0.68562  -0.67521  -0.66130  -0.61551  -0.59364
 Alpha  occ. eigenvalues --   -0.58846  -0.54872  -0.54280  -0.53856  -0.49413
 Alpha  occ. eigenvalues --   -0.46345  -0.42935  -0.41782  -0.40718  -0.40305
 Alpha  occ. eigenvalues --   -0.39435  -0.37283  -0.34733  -0.34072  -0.33017
 Alpha  occ. eigenvalues --   -0.32489  -0.31509  -0.31416  -0.30686  -0.30354
 Alpha  occ. eigenvalues --   -0.30017  -0.29627  -0.28730  -0.27997  -0.27613
 Alpha  occ. eigenvalues --   -0.27152  -0.26901  -0.24130  -0.23854  -0.23422
 Alpha  occ. eigenvalues --   -0.23059  -0.22761  -0.22529  -0.17501  -0.17001
 Alpha  occ. eigenvalues --   -0.16644  -0.13225  -0.09820   0.04379
 Alpha virt. eigenvalues --    0.05905   0.06619   0.07551   0.07817   0.08219
 Alpha virt. eigenvalues --    0.08682   0.08782   0.09563   0.10062   0.10298
 Alpha virt. eigenvalues --    0.10549   0.10765   0.11068   0.11814   0.12593

  Beta  occ. eigenvalues --  -88.76514 -14.21129 -14.20762 -14.19868 -10.11878
  Beta  occ. eigenvalues --  -10.10582 -10.09683 -10.09395 -10.09329 -10.09238
  Beta  occ. eigenvalues --  -10.09227 -10.09194 -10.08774 -10.08429 -10.06552
  Beta  occ. eigenvalues --  -10.06155 -10.05899  -7.85130  -5.81408  -5.81059
  Beta  occ. eigenvalues --   -5.80712  -0.87161  -0.85091  -0.78868  -0.72744
  Beta  occ. eigenvalues --   -0.68452  -0.67440  -0.66091  -0.61449  -0.59326
  Beta  occ. eigenvalues --   -0.58814  -0.54815  -0.54220  -0.53805  -0.49310
  Beta  occ. eigenvalues --   -0.46222  -0.42866  -0.41703  -0.40667  -0.40249
  Beta  occ. eigenvalues --   -0.39385  -0.37248  -0.34687  -0.34017  -0.32873
  Beta  occ. eigenvalues --   -0.32442  -0.31479  -0.31361  -0.30609  -0.30316
  Beta  occ. eigenvalues --   -0.29970  -0.29580  -0.28673  -0.27897  -0.27545
  Beta  occ. eigenvalues --   -0.27104  -0.26802  -0.24092  -0.23809  -0.23386
  Beta  occ. eigenvalues --   -0.23023  -0.22714  -0.22481  -0.17256  -0.16853
  Beta  occ. eigenvalues --   -0.16568  -0.12801  -0.09769
  Beta virt. eigenvalues --    0.06279   0.06784   0.07594   0.07874   0.08399
  Beta virt. eigenvalues --    0.08651   0.08877   0.08979   0.09815   0.10243
  Beta virt. eigenvalues --    0.10447   0.10668   0.10934   0.11266   0.11993

 Mulliken charges and spin densities:
               1          2
     1  C    0.046629  -0.679304
     2  C   -1.739060   2.575379
     3  C    0.412415  -1.047464
     4  C   -0.343073  -0.300284
     5  C   -0.121682  -1.381062
     6  C    0.348718   0.599320
     7  S   -0.453086  -0.002232
     8  C    0.912470  -0.912630
     9  N    0.314652   0.079769
    10  C   -0.060274  -0.117967
    11  C    0.044931  -0.838391
    12  N    0.031305   0.105637
    13  C    0.147363  -0.465121
    14  C    0.200733  -0.268145
    15  N    0.123244   0.049795
    16  C   -0.184271  -0.076024
    17  C    0.087266  -0.502567
    18  H   -0.099592   0.249605
    19  H    0.095253   0.066616
    20  H   -0.046298   0.187052
    21  H   -0.279565   0.436081
    22  H   -0.060053   0.185814
    23  H    0.041134   0.080699
    24  H    0.128450   0.024929
    25  H   -0.020361   0.149860
    26  H    0.059157   0.088385
    27  H    0.042445   0.226800
    28  H   -0.318790   0.553226
    29  H    0.312843  -0.055460
    30  H   -0.163019   0.344083
    31  H   -0.226875   0.382202
    32  H   -0.056078   0.208687
    33  H   -0.308123   0.460649
    34  H   -0.029143   0.165726
    35  H    0.188327  -0.075030
    36  H   -0.051549   0.224377
    37  H   -0.002804   0.140574
    38  H    0.026361   0.136416
 Sum of Mulliken charges =  -1.00000   1.00000

 Dipole moment (field-independent basis, Debye):
    X=             -0.3805    Y=              0.8312    Z=              2.5790  Tot=              2.7362
 Quadrupole moment (field-independent basis, Debye-Ang):
   XX=           -201.9381   YY=           -147.0609   ZZ=           -147.2957
   XY=             -1.9875   XZ=              5.1359   YZ=             -0.6373

 Summary of Natural Population Analysis:

                                       Natural Population
                Natural  -----------------------------------------------
    Atom  No    Charge         Core      Valence    Rydberg      Total
 -----------------------------------------------------------------------
      C    1   -0.27916      0.99963     2.27369    0.00584     3.27916
      C    2   -0.05803      0.99955     2.04644    0.01204     3.05803
      C    3   -0.28496      0.99964     2.27781    0.00750     3.28496
      C    4   -0.27920      0.99963     2.27387    0.00570     3.27920
      C    5    0.06704      0.99945     1.91748    0.01603     2.93296
      C    6   -0.19853      0.99944     2.19025    0.00885     3.19853
      S    7    0.19456      4.99943     2.78669    0.01932     7.80544
      C    8    0.06434      0.99957     1.91590    0.02019     2.93566
      N    9   -0.25002      0.99962     2.74008    0.01032     3.75002
      C   10   -0.04520      0.99951     2.03044    0.01525     3.04520
      C   11   -0.09355      0.99960     2.08096    0.01299     3.09355
      N   12   -0.26911      0.99976     2.75604    0.01332     3.76911
      C   13   -0.10036      0.99962     2.08944    0.01130     3.10036
      C   14   -0.09927      0.99962     2.08784    0.01182     3.09927
      N   15   -0.26573      0.99975     2.75308    0.01290     3.76573
      C   16   -0.10346      0.99961     2.09375    0.01010     3.10346
      C   17   -0.09983      0.99962     2.08922    0.01100     3.09983
      H   18    0.09539      0.00000     0.40357    0.00104     0.40461
      H   19    0.10816      0.00000     0.39067    0.00117     0.39184
      H   20    0.09936      0.00000     0.39968    0.00095     0.40064
      H   21    0.10022      0.00000     0.39891    0.00087     0.39978
      H   22    0.10080      0.00000     0.39814    0.00106     0.39920
      H   23    0.10004      0.00000     0.39894    0.00102     0.39996
      H   24    0.10719      0.00000     0.39169    0.00112     0.39281
      H   25    0.09912      0.00000     0.39993    0.00096     0.40088
      H   26    0.09482      0.00000     0.40430    0.00088     0.40518
      H   27    0.11054      0.00000     0.38837    0.00109     0.38946
      H   28    0.11283      0.00000     0.38420    0.00297     0.38717
      H   29    0.10554      0.00000     0.39278    0.00168     0.39446
      H   30    0.09884      0.00000     0.39992    0.00124     0.40116
      H   31    0.09402      0.00000     0.40472    0.00126     0.40598
      H   32    0.09700      0.00000     0.40157    0.00143     0.40300
      H   33    0.09867      0.00000     0.39979    0.00154     0.40133
      H   34    0.09378      0.00000     0.40498    0.00124     0.40622
      H   35    0.10059      0.00000     0.39805    0.00135     0.39941
      H   36    0.09462      0.00000     0.40418    0.00120     0.40538
      H   37    0.09543      0.00000     0.40351    0.00106     0.40457
      H   38    0.09352      0.00000     0.40530    0.00118     0.40648
 =======================================================================
   * Total *    0.00000     20.99305    46.77617    0.23078    68.00000

 Normal termination of Gaussian 16 at Fri Dec 11 14:31:56 2020.
