 Gaussian 16, Revision A.03,

 -----------------------------------------------------------
 # opt freq B3LYP/6-31G(d) empiricaldispersion=gd3bj scf=xqc
 -----------------------------------------------------------

 --------------------------------
 CID_116397051_JID_10196_neutraal
 --------------------------------
 Symbolic Z-matrix:
 Charge =  0 Multiplicity = 1

 SCF Done:  E(RB3LYP) =  -1225.82502046     A.U. after   15 cycles
 SCF Done:  E(RB3LYP) =  -1225.83098930     A.U. after   12 cycles
 SCF Done:  E(RB3LYP) =  -1225.83226515     A.U. after   13 cycles
 SCF Done:  E(RB3LYP) =  -1225.83272333     A.U. after   13 cycles
 SCF Done:  E(RB3LYP) =  -1225.83328696     A.U. after   13 cycles
 SCF Done:  E(RB3LYP) =  -1225.83345235     A.U. after   12 cycles
 SCF Done:  E(RB3LYP) =  -1225.83358016     A.U. after   12 cycles
 SCF Done:  E(RB3LYP) =  -1225.83364554     A.U. after   12 cycles
 SCF Done:  E(RB3LYP) =  -1225.83365841     A.U. after    9 cycles
 SCF Done:  E(RB3LYP) =  -1225.83366026     A.U. after    8 cycles
 SCF Done:  E(RB3LYP) =  -1225.83366056     A.U. after    7 cycles
 SCF Done:  E(RB3LYP) =  -1225.83366070     A.U. after    8 cycles
 SCF Done:  E(RB3LYP) =  -1225.83366068     A.U. after    7 cycles
 SCF Done:  E(RB3LYP) =  -1225.83366064     A.U. after    7 cycles
 Optimization completed.
    -- Stationary point found.
 Normal termination of Gaussian 16 at Sun Dec 13 20:47:22 2020.

 --------------------------------------------------------------------
 #N Geom=AllCheck Guess=TCheck SCRF=Check GenChk RB3LYP/6-31G(d) Freq
 --------------------------------------------------------------------

 Structure from the checkpoint file:  "JID_10196.chk"
 --------------------------------
 CID_116397051_JID_10196_neutraal
 --------------------------------
 Charge =  0 Multiplicity = 1

 SCF Done:  E(RB3LYP) =  -1225.83366064     A.U. after    1 cycles

  Exact polarizability: 352.141   9.883 186.922  -1.903   2.180 120.049
 Approx polarizability: 462.533  27.342 320.387  -5.283   5.254 188.007

                      1                      2                      3
                      A                      A                      A
 Frequencies --     25.3800                37.0239                53.9885
 Red. masses --      6.3682                 6.2616                 4.4959
 Frc consts  --      0.0024                 0.0051                 0.0077
 IR Inten    --      1.0273                 0.4747                 0.6721

                      4                      5                      6
                      A                      A                      A
 Frequencies --     60.7500                92.5395               109.3403
 Red. masses --      4.8453                 5.2572                 4.3044
 Frc consts  --      0.0105                 0.0265                 0.0303
 IR Inten    --      2.1081                 0.4470                 0.4499

                      7                      8                      9
                      A                      A                      A
 Frequencies --    131.5128               139.2431               165.9188
 Red. masses --      3.2071                 3.0117                 5.4986
 Frc consts  --      0.0327                 0.0344                 0.0892
 IR Inten    --      0.1112                 0.4518                 0.1612

                     10                     11                     12
                      A                      A                      A
 Frequencies --    175.0951               184.4828               204.1431
 Red. masses --      1.5618                 2.6371                 1.9081
 Frc consts  --      0.0282                 0.0529                 0.0469
 IR Inten    --      0.8481                 2.3351                 0.7903

                     13                     14                     15
                      A                      A                      A
 Frequencies --    226.3141               232.0812               253.3074
 Red. masses --      1.3749                 1.8349                 1.6169
 Frc consts  --      0.0415                 0.0582                 0.0611
 IR Inten    --      1.5706                 0.9331                 0.5455

                     16                     17                     18
                      A                      A                      A
 Frequencies --    258.9940               272.6484               293.0578
 Red. masses --      2.2446                 2.8522                 3.7047
 Frc consts  --      0.0887                 0.1249                 0.1875
 IR Inten    --      1.3878                 0.2940                 1.0714

                     19                     20                     21
                      A                      A                      A
 Frequencies --    298.6337               328.6402               360.0161
 Red. masses --      2.8941                 2.7166                 3.0112
 Frc consts  --      0.1521                 0.1729                 0.2300
 IR Inten    --      1.2785                 3.2419                 0.2917

                     22                     23                     24
                      A                      A                      A
 Frequencies --    384.1769               426.1289               441.1004
 Red. masses --      3.6635                 3.4283                 3.0986
 Frc consts  --      0.3186                 0.3668                 0.3552
 IR Inten    --      1.1527                 2.2006                11.7778

                     25                     26                     27
                      A                      A                      A
 Frequencies --    476.5033               490.8080               521.6560
 Red. masses --      3.2257                 3.8167                 4.7793
 Frc consts  --      0.4315                 0.5417                 0.7663
 IR Inten    --      4.8943                 2.1261                 7.1117

                     28                     29                     30
                      A                      A                      A
 Frequencies --    534.7485               548.8512               567.9027
 Red. masses --      3.6825                 3.8780                 1.7193
 Frc consts  --      0.6204                 0.6883                 0.3267
 IR Inten    --     14.7596                 4.9536                23.6271

                     31                     32                     33
                      A                      A                      A
 Frequencies --    593.8196               596.3805               609.7609
 Red. masses --      3.9563                 1.7270                 3.8232
 Frc consts  --      0.8220                 0.3619                 0.8375
 IR Inten    --     19.3812                65.7616                68.0373

                     34                     35                     36
                      A                      A                      A
 Frequencies --    628.5892               670.6488               695.6056
 Red. masses --      3.8822                 4.0634                 4.6846
 Frc consts  --      0.9038                 1.0768                 1.3355
 IR Inten    --      2.7554                 9.3808                 0.8310

                     37                     38                     39
                      A                      A                      A
 Frequencies --    726.4022               746.6500               761.9093
 Red. masses --      3.4797                 2.4155                 4.4638
 Frc consts  --      1.0818                 0.7934                 1.5267
 IR Inten    --     14.6150                 2.7947                 8.4316

                     40                     41                     42
                      A                      A                      A
 Frequencies --    783.6096               832.6147               845.8627
 Red. masses --      5.1568                 1.8577                 1.8795
 Frc consts  --      1.8657                 0.7588                 0.7923
 IR Inten    --      1.3746                16.6793                26.8846

                     43                     44                     45
                      A                      A                      A
 Frequencies --    881.0180               909.6094               916.2008
 Red. masses --      1.8481                 1.8117                 1.5244
 Frc consts  --      0.8452                 0.8831                 0.7539
 IR Inten    --     21.0478                24.9311                 0.7924

                     46                     47                     48
                      A                      A                      A
 Frequencies --    925.0986               930.5358               953.8735
 Red. masses --      3.4940                 2.8408                 1.3460
 Frc consts  --      1.7618                 1.4493                 0.7216
 IR Inten    --     11.9895                 6.8824                 0.6451

                     49                     50                     51
                      A                      A                      A
 Frequencies --    976.9333               994.8871              1009.4472
 Red. masses --      3.3282                 1.7411                 1.8933
 Frc consts  --      1.8715                 1.0153                 1.1367
 IR Inten    --      2.9467                11.4789                 7.2873

                     52                     53                     54
                      A                      A                      A
 Frequencies --   1029.0721              1029.6916              1036.9247
 Red. masses --      1.6265                 1.1500                 2.1136
 Frc consts  --      1.0148                 0.7184                 1.3390
 IR Inten    --      2.8028                23.4436                 7.2774

                     55                     56                     57
                      A                      A                      A
 Frequencies --   1046.4372              1059.3742              1077.2690
 Red. masses --      1.6027                 1.5981                 1.4998
 Frc consts  --      1.0340                 1.0567                 1.0255
 IR Inten    --      8.5196                 1.7568                 5.5713

                     58                     59                     60
                      A                      A                      A
 Frequencies --   1100.2357              1120.3718              1146.0996
 Red. masses --      1.8338                 2.2318                 2.4181
 Frc consts  --      1.3079                 1.6506                 1.8714
 IR Inten    --     50.7793                 9.6747                97.2903

                     61                     62                     63
                      A                      A                      A
 Frequencies --   1166.8557              1195.3105              1197.3002
 Red. masses --      1.8890                 2.0713                 1.9540
 Frc consts  --      1.5154                 1.7437                 1.6503
 IR Inten    --     41.8251               109.8689               399.7368

                     64                     65                     66
                      A                      A                      A
 Frequencies --   1221.2100              1226.3974              1263.7450
 Red. masses --      1.4463                 1.3464                 1.6145
 Frc consts  --      1.2708                 1.1932                 1.5192
 IR Inten    --      0.2467                43.6238                55.5587

                     67                     68                     69
                      A                      A                      A
 Frequencies --   1265.8510              1284.4746              1300.6007
 Red. masses --      1.8002                 1.6707                 1.6753
 Frc consts  --      1.6996                 1.6240                 1.6697
 IR Inten    --     21.9169                24.2914                37.2048

                     70                     71                     72
                      A                      A                      A
 Frequencies --   1327.0916              1340.3211              1342.0145
 Red. masses --      1.6747                 1.5691                 1.4266
 Frc consts  --      1.7377                 1.6608                 1.5137
 IR Inten    --     63.7295                27.6052                 4.5921

                     73                     74                     75
                      A                      A                      A
 Frequencies --   1344.2902              1354.1050              1370.4519
 Red. masses --      2.0345                 1.4583                 1.9062
 Frc consts  --      2.1661                 1.5754                 2.1093
 IR Inten    --      3.3504                12.1892                 5.3026

                     76                     77                     78
                      A                      A                      A
 Frequencies --   1373.0022              1394.9872              1404.5195
 Red. masses --      1.5370                 2.7140                 1.3055
 Frc consts  --      1.7071                 3.1117                 1.5174
 IR Inten    --     34.7720               140.3629                 2.4824

                     79                     80                     81
                      A                      A                      A
 Frequencies --   1432.9333              1433.6291              1438.8471
 Red. masses --      1.2442                 1.3040                 1.3214
 Frc consts  --      1.5052                 1.5790                 1.6119
 IR Inten    --     16.2757                31.1292                52.9326

                     82                     83                     84
                      A                      A                      A
 Frequencies --   1441.7062              1457.9266              1491.5859
 Red. masses --      1.2818                 3.0760                 1.0909
 Frc consts  --      1.5697                 3.8522                 1.4299
 IR Inten    --     10.5733                57.0283                13.4817

                     85                     86                     87
                      A                      A                      A
 Frequencies --   1510.0668              1517.9204              1518.6920
 Red. masses --      1.0566                 1.0611                 1.0921
 Frc consts  --      1.4195                 1.4405                 1.4841
 IR Inten    --      6.8610                 9.8922                 7.9559

                     88                     89                     90
                      A                      A                      A
 Frequencies --   1525.3054              1526.9529              1538.6153
 Red. masses --      1.0551                 1.0948                 1.0956
 Frc consts  --      1.4463                 1.5039                 1.5281
 IR Inten    --      5.8077                10.8578                 9.4907

                     91                     92                     93
                      A                      A                      A
 Frequencies --   1541.5708              1557.6077              1614.6237
 Red. masses --      1.0796                 2.2228                 6.0820
 Frc consts  --      1.5116                 3.1774                 9.3420
 IR Inten    --     16.1825                77.5009                28.5071

                     94                     95                     96
                      A                      A                      A
 Frequencies --   1663.5364              1697.3047              1814.0064
 Red. masses --      5.4438                 5.6925                 8.8131
 Frc consts  --      8.8761                 9.6621                17.0866
 IR Inten    --    137.0708               104.2083               601.8061

                     97                     98                     99
                      A                      A                      A
 Frequencies --   2997.5239              3043.8702              3054.6992
 Red. masses --      1.0689                 1.0465                 1.0422
 Frc consts  --      5.6585                 5.7126                 5.7300
 IR Inten    --     36.1045                24.8255                25.4885

                    100                    101                    102
                      A                      A                      A
 Frequencies --   3060.7116              3074.9532              3076.8258
 Red. masses --      1.0387                 1.0829                 1.0632
 Frc consts  --      5.7329                 6.0327                 5.9301
 IR Inten    --     14.6825                13.7611                11.1723

                    103                    104                    105
                      A                      A                      A
 Frequencies --   3090.4172              3093.0122              3106.3760
 Red. masses --      1.0828                 1.0882                 1.0899
 Frc consts  --      6.0930                 6.1339                 6.1964
 IR Inten    --     18.9936                25.8924                21.9027

                    106                    107                    108
                      A                      A                      A
 Frequencies --   3124.7255              3126.0846              3131.5171
 Red. masses --      1.0972                 1.0988                 1.1068
 Frc consts  --      6.3121                 6.3264                 6.3948
 IR Inten    --     19.3095                25.8075                10.5845

                    109                    110                    111
                      A                      A                      A
 Frequencies --   3148.5212              3148.7203              3153.0136
 Red. masses --      1.1015                 1.1017                 1.1017
 Frc consts  --      6.4336                 6.4353                 6.4530
 IR Inten    --     25.4825                13.9461                19.8018

                    112                    113                    114
                      A                      A                      A
 Frequencies --   3173.4520              3187.7728              3200.7644
 Red. masses --      1.0899                 1.0895                 1.0876
 Frc consts  --      6.4667                 6.5229                 6.5647
 IR Inten    --     12.0491                 6.2511                 9.2353

                    115                    116                    117
                      A                      A                      A
 Frequencies --   3220.2037              3224.3270              3706.3382
 Red. masses --      1.0914                 1.0905                 1.0642
 Frc consts  --      6.6682                 6.6795                 8.6135
 IR Inten    --      1.9835                14.4282                85.9248

 - Thermochemistry -
 -------------------
 Temperature   298.150 Kelvin.  Pressure   1.00000 Atm.
 Atom     1 has atomic number  6 and mass  12.00000

 Molecular mass:   291.12930 amu.
 Principal axes and moments of inertia in atomic units:
                           1         2         3
     Eigenvalues --  1899.76185********************
           X            1.00000   0.00235   0.00040
           Y           -0.00235   0.99998  -0.00513
           Z           -0.00041   0.00513   0.99999
 This molecule is an asymmetric top.
 Rotational symmetry number  1.
 Warning -- assumption of classical behavior for rotation
           may cause significant error
 Rotational temperatures (Kelvin)      0.04559     0.00532     0.00506
 Rotational constants (GHZ):           0.94998     0.11085     0.10537
 Zero-point vibrational energy     910173.4 (Joules/Mol)
                                  217.53666 (Kcal/Mol)
 Warning -- explicit consideration of  33 degrees of freedom as
           vibrations may cause significant error
 Vibrational temperatures:     36.52    53.27    77.68    87.41   133.14
          (Kelvin)            157.32   189.22   200.34   238.72   251.92
                              265.43   293.72   325.62   333.91   364.45
                              372.63   392.28   421.64   429.67   472.84
                              517.98   552.74   613.10   634.65   685.58
                              706.16   750.55   769.38   789.67   817.09
                              854.37   858.06   877.31   904.40   964.91
                             1000.82  1045.13  1074.26  1096.22  1127.44
                             1197.95  1217.01  1267.59  1308.72  1318.21
                             1331.01  1338.83  1372.41  1405.59  1431.42
                             1452.37  1480.61  1481.50  1491.90  1505.59
                             1524.20  1549.95  1582.99  1611.97  1648.98
                             1678.85  1719.79  1722.65  1757.05  1764.51
                             1818.25  1821.28  1848.07  1871.27  1909.39
                             1928.42  1930.86  1934.13  1948.26  1971.77
                             1975.44  2007.08  2020.79  2061.67  2062.67
                             2070.18  2074.29  2097.63  2146.06  2172.65
                             2183.95  2185.06  2194.57  2196.94  2213.72
                             2217.98  2241.05  2323.08  2393.46  2442.04
                             2609.95  4312.77  4379.45  4395.03  4403.68
                             4424.17  4426.87  4446.42  4450.15  4469.38
                             4495.78  4497.74  4505.55  4530.02  4530.31
                             4536.48  4565.89  4586.49  4605.19  4633.15
                             4639.09  5332.59

 Zero-point correction=                           0.346667 (Hartree/Particle)
 Thermal correction to Energy=                    0.366543
 Thermal correction to Enthalpy=                  0.367487
 Thermal correction to Gibbs Free Energy=         0.297840
 Sum of electronic and zero-point Energies=          -1225.486994
 Sum of electronic and thermal Energies=             -1225.467117
 Sum of electronic and thermal Enthalpies=           -1225.466173
 Sum of electronic and thermal Free Energies=        -1225.535821

                     E (Thermal)             CV                S
                      KCal/Mol        Cal/Mol-Kelvin    Cal/Mol-Kelvin
 Total                  230.009             76.536            146.585
 Electronic               0.000              0.000              0.000
 Translational            0.889              2.981             42.903
 Rotational               0.889              2.981             34.626
 Vibrational            228.232             70.574             69.056
 Vibration     1          0.593              1.985              6.161
 Vibration     2          0.594              1.982              5.412
 Vibration     3          0.596              1.976              4.666
 Vibration     4          0.597              1.973              4.433
 Vibration     5          0.602              1.955              3.606
 Vibration     6          0.606              1.942              3.281
 Vibration     7          0.612              1.922              2.924
 Vibration     8          0.615              1.914              2.814
 Vibration     9          0.624              1.884              2.481
 Vibration    10          0.627              1.873              2.380
 Vibration    11          0.631              1.861              2.283
 Vibration    12          0.640              1.834              2.095
 Vibration    13          0.650              1.801              1.908
 Vibration    14          0.653              1.792              1.863
 Vibration    15          0.664              1.757              1.707
 Vibration    16          0.668              1.748              1.669
 Vibration    17          0.676              1.724              1.579
 Vibration    18          0.688              1.687              1.456
 Vibration    19          0.692              1.676              1.425
 Vibration    20          0.712              1.618              1.267
 Vibration    21          0.735              1.555              1.122
 Vibration    22          0.753              1.504              1.023
 Vibration    23          0.788              1.413              0.871
 Vibration    24          0.801              1.381              0.823
 Vibration    25          0.833              1.302              0.720
 Vibration    26          0.847              1.270              0.682
 Vibration    27          0.877              1.202              0.606
 Vibration    28          0.890              1.173              0.577
 Vibration    29          0.904              1.142              0.547
 Vibration    30          0.924              1.101              0.508
 Vibration    31          0.951              1.045              0.460
 Vibration    32          0.954              1.039              0.456
 Vibration    33          0.969              1.011              0.433

 Optimization completed.
    -- Stationary point found.
 Normal termination of Gaussian 16 at Sun Dec 13 21:08:13 2020.

 ----------------------------------------------------------------------
 # B3LYP/6-311++G(d,p) empiricaldispersion=gd3bj scf=xqc pop=npa geom=c
 heck
 ----------------------------------------------------------------------

 ----------------------------------------
 CID_116397051_JID_10196_Energie_neutraal
 ----------------------------------------
 Structure from the checkpoint file:  "JID_10196.chk"
 Charge =  0 Multiplicity = 1

 SCF Done:  E(RB3LYP) =  -1226.09170405     A.U. after   15 cycles
 Normal termination of Gaussian 16 at Sun Dec 13 21:17:14 2020.

 ----------------------------------------------------------------------
 # B3LYP/6-311++G(d,p) empiricaldispersion=gd3bj scf=xqc pop=npa geom=c
 heck
 ----------------------------------------------------------------------

 --------------------------------------
 CID_116397051_JID_10196_Energie_kation
 --------------------------------------
 Structure from the checkpoint file:  "JID_10196.chk"
 Charge =  1 Multiplicity = 2

 SCF Done:  E(UB3LYP) =  -1225.81934883     A.U. after   28 cycles
 Normal termination of Gaussian 16 at Sun Dec 13 21:39:31 2020.
 Gaussian 16:  ES64L-G16RevA.03 25-Dec-2016

 ----------------------------------------------------------------------
 # B3LYP/6-311++G(d,p) empiricaldispersion=gd3bj scf=xqc pop=npa geom=c
 heck
 ----------------------------------------------------------------------

 -------------------------------------
 CID_116397051_JID_10196_Energie_anion
 -------------------------------------
 Structure from the checkpoint file:  "JID_10196.chk"
 Charge = -1 Multiplicity = 2

                         Standard orientation:
 ---------------------------------------------------------------------
 Center     Atomic      Atomic             Coordinates (Angstroms)
 Number     Number       Type             X           Y           Z
 ---------------------------------------------------------------------
      1          6           0        2.371939   -0.736494    2.106880
      2          6           0        2.554124    0.264660    0.957700
      3          6           0        4.036452    0.601705    0.692947
      4         16           0        4.949348   -0.841987   -0.008310
      5          6           0        3.803424   -1.187128   -1.392902
      6          6           0        2.368014   -1.366580   -0.911838
      7          7           0        1.856290   -0.142823   -0.289051
      8          6           0        0.441407   -0.037026   -0.221517
      9          6           0       -0.175350    1.235787   -0.257970
     10          6           0       -1.566181    1.302929   -0.191478
     11          6           0       -2.386513    0.166128   -0.105888
     12          6           0       -1.756365   -1.089001   -0.093349
     13          6           0       -0.374436   -1.181909   -0.147681
     14          6           0       -3.832578    0.342570   -0.048611
     15          6           0       -4.767522   -0.625716    0.016278
     16          6           0       -6.210138   -0.365616    0.074793
     17          8           0       -7.062949   -1.231906    0.135544
     18          8           0       -6.534673    0.959418    0.055146
     19          6           0        0.623158    2.502360   -0.429571
     20          6           0        4.227280    1.858311   -0.157502
     21          1           0        2.760685   -0.311287    3.038822
     22          1           0        2.906662   -1.671215    1.919983
     23          1           0        1.310368   -0.959028    2.252956
     24          1           0        2.083555    1.202817    1.265814
     25          1           0        4.510687    0.756724    1.668387
     26          1           0        4.160041   -2.110489   -1.858453
     27          1           0        3.857691   -0.385924   -2.135942
     28          1           0        2.323861   -2.241890   -0.244731
     29          1           0        1.730711   -1.579195   -1.776506
     30          1           0       -2.039378    2.281676   -0.234282
     31          1           0       -2.346496   -1.997531   -0.027114
     32          1           0        0.086867   -2.162521   -0.115500
     33          1           0       -4.178603    1.373805   -0.059586
     34          1           0       -4.516718   -1.680922    0.029686
     35          1           0       -7.507668    0.983045    0.098133
     36          1           0        1.002948    2.892742    0.523542
     37          1           0        1.488717    2.325300   -1.072662
     38          1           0        0.005222    3.287819   -0.874947
     39          1           0        3.737121    2.717523    0.316530
     40          1           0        5.290045    2.086455   -0.273489
     41          1           0        3.790780    1.733667   -1.151604
 ---------------------------------------------------------------------

 SCF Done:  E(UB3LYP) =  -1226.11368656     A.U. after   26 cycles

 The electronic state is 2-A.
 Alpha  occ. eigenvalues --  -88.75647 -19.01823 -18.94321 -14.21252 -10.13023
 Alpha  occ. eigenvalues --  -10.12666 -10.11877 -10.11826 -10.11159 -10.08780
 Alpha  occ. eigenvalues --  -10.07008 -10.06748 -10.06169 -10.05248 -10.04450
 Alpha  occ. eigenvalues --  -10.03479 -10.03272 -10.03142 -10.01148 -10.00250
 Alpha  occ. eigenvalues --   -7.84304  -5.80674  -5.80349  -5.79674  -0.95217
 Alpha  occ. eigenvalues --   -0.85761  -0.84239  -0.74379  -0.71791  -0.70324
 Alpha  occ. eigenvalues --   -0.66126  -0.64634  -0.63540  -0.60636  -0.59148
 Alpha  occ. eigenvalues --   -0.56817  -0.54557  -0.53872  -0.50584  -0.47368
 Alpha  occ. eigenvalues --   -0.46159  -0.44405  -0.42167  -0.41245  -0.39001
 Alpha  occ. eigenvalues --   -0.37095  -0.36666  -0.36056  -0.35138  -0.34364
 Alpha  occ. eigenvalues --   -0.32987  -0.32846  -0.32394  -0.31787  -0.31400
 Alpha  occ. eigenvalues --   -0.30982  -0.30190  -0.29903  -0.29624  -0.28812
 Alpha  occ. eigenvalues --   -0.28235  -0.27680  -0.27230  -0.26434  -0.24992
 Alpha  occ. eigenvalues --   -0.24610  -0.23703  -0.23508  -0.22260  -0.21463
 Alpha  occ. eigenvalues --   -0.20442  -0.17967  -0.17245  -0.14873  -0.12956
 Alpha  occ. eigenvalues --   -0.12548  -0.12515  -0.08325   0.03368
 Alpha virt. eigenvalues --    0.05741   0.06618   0.07329   0.08116   0.09239
 Alpha virt. eigenvalues --    0.09310   0.09521   0.09639   0.09822   0.10936
 Alpha virt. eigenvalues --    0.11348   0.11567   0.12066   0.12302   0.12812

  Beta  occ. eigenvalues --  -88.75646 -19.01789 -18.94023 -14.21240 -10.12868
  Beta  occ. eigenvalues --  -10.12664 -10.11842 -10.11819 -10.11157 -10.08780
  Beta  occ. eigenvalues --  -10.07007 -10.06432 -10.06168 -10.05292 -10.04544
  Beta  occ. eigenvalues --  -10.03358 -10.03213 -10.02948 -10.00808 -10.00044
  Beta  occ. eigenvalues --   -7.84303  -5.80673  -5.80349  -5.79674  -0.95003
  Beta  occ. eigenvalues --   -0.85339  -0.84101  -0.74258  -0.71619  -0.70284
  Beta  occ. eigenvalues --   -0.65822  -0.64558  -0.63178  -0.60402  -0.58953
  Beta  occ. eigenvalues --   -0.56585  -0.54488  -0.53756  -0.50019  -0.47245
  Beta  occ. eigenvalues --   -0.46023  -0.44281  -0.41899  -0.40996  -0.38948
  Beta  occ. eigenvalues --   -0.37032  -0.36609  -0.35941  -0.35079  -0.34213
  Beta  occ. eigenvalues --   -0.32876  -0.32765  -0.32298  -0.31563  -0.31367
  Beta  occ. eigenvalues --   -0.30901  -0.30155  -0.29833  -0.28736  -0.28642
  Beta  occ. eigenvalues --   -0.28183  -0.27586  -0.27189  -0.26413  -0.24783
  Beta  occ. eigenvalues --   -0.24460  -0.23421  -0.22972  -0.22050  -0.21394
  Beta  occ. eigenvalues --   -0.20262  -0.16934  -0.16044  -0.14771  -0.12234
  Beta  occ. eigenvalues --   -0.12161  -0.11775  -0.06844
  Beta virt. eigenvalues --    0.05717   0.06567   0.07298   0.08101   0.08984
  Beta virt. eigenvalues --    0.09240   0.09328   0.09508   0.09697   0.09867
  Beta virt. eigenvalues --    0.10961   0.11452   0.11545   0.12064   0.12321

 Mulliken charges and spin densities:
               1          2
     1  C   -0.798904   0.005332
     2  C   -0.103938  -0.028948
     3  C    0.327881   0.012869
     4  S   -0.160603   0.009521
     5  C   -0.764465  -0.049139
     6  C    0.157988   0.021249
     7  N    0.374951   0.003984
     8  C   -0.188992   0.203194
     9  C    0.178147  -0.003250
    10  C   -0.084668   0.117996
    11  C    1.238638   0.024634
    12  C   -1.103741   0.160115
    13  C   -0.539714  -0.053791
    14  C   -0.337654   0.216624
    15  C   -0.214952   0.098980
    16  C    0.016713   0.160073
    17  O   -0.410544   0.096454
    18  O   -0.231590   0.008756
    19  C   -0.826723   0.007319
    20  C   -0.694372  -0.000921
    21  H    0.111651   0.001588
    22  H    0.156466   0.000226
    23  H    0.165949   0.000548
    24  H    0.166274  -0.001055
    25  H    0.253850   0.001477
    26  H    0.179670   0.025834
    27  H    0.184873  -0.001081
    28  H    0.080804   0.005278
    29  H    0.171640   0.000482
    30  H    0.104552  -0.003368
    31  H    0.068945  -0.010566
    32  H    0.139591   0.008585
    33  H    0.144196  -0.021280
    34  H    0.143476  -0.016130
    35  H    0.250385  -0.000124
    36  H    0.135323  -0.000349
    37  H    0.140194  -0.000859
    38  H    0.145160  -0.000543
    39  H    0.123255  -0.000037
    40  H    0.142572   0.000035
    41  H    0.157713   0.000290
 Sum of Mulliken charges =  -1.00000   1.00000

 Dipole moment (field-independent basis, Debye):
    X=             14.6176    Y=              2.7458    Z=             -0.0267  Tot=             14.8733
 Quadrupole moment (field-independent basis, Debye-Ang):
   XX=           -262.8060   YY=           -139.1783   ZZ=           -136.6728
   XY=            -15.0572   XZ=              0.9290   YZ=              3.5181

 Summary of Natural Population Analysis:

                                       Natural Population
                Natural  -----------------------------------------------
    Atom  No    Charge         Core      Valence    Rydberg      Total
 -----------------------------------------------------------------------
      C    1   -0.30018      0.99964     2.29541    0.00513     3.30018
      C    2   -0.00410      0.99955     1.99039    0.01416     3.00410
      C    3   -0.16315      0.99954     2.15238    0.01123     3.16315
      S    4    0.07915      4.99962     2.90359    0.01764     7.92085
      C    5   -0.24973      0.99959     2.24156    0.00859     3.24973
      C    6   -0.09005      0.99961     2.08057    0.00988     3.09005
      N    7   -0.28436      0.99966     2.76892    0.01577     3.78436
      C    8    0.12712      0.99944     1.86015    0.01329     2.87288
      C    9   -0.05579      0.99951     2.04618    0.01010     3.05579
      C   10   -0.03424      0.99950     2.02979    0.00495     3.03424
      C   11   -0.04973      0.99957     2.03641    0.01374     3.04973
      C   12   -0.02089      0.99955     2.01649    0.00485     3.02089
      C   13   -0.15527      0.99956     2.14369    0.01203     3.15527
      C   14   -0.00784      0.99953     1.99787    0.01044     3.00784
      C   15   -0.13020      0.99950     2.11984    0.01086     3.13020
      C   16    0.39952      0.99968     1.57577    0.02502     2.60048
      O   17   -0.30887      0.99987     3.30104    0.00797     4.30887
      O   18   -0.36013      0.99988     3.35393    0.00631     4.36013
      C   19   -0.29136      0.99964     2.28658    0.00514     3.29136
      C   20   -0.28942      0.99964     2.28354    0.00624     3.28942
      H   21    0.09509      0.00000     0.40400    0.00092     0.40491
      H   22    0.10101      0.00000     0.39786    0.00113     0.39899
      H   23    0.11119      0.00000     0.38798    0.00082     0.38881
      H   24    0.10286      0.00000     0.39578    0.00136     0.39714
      H   25    0.10262      0.00000     0.39639    0.00099     0.39738
      H   26    0.10410      0.00000     0.39486    0.00104     0.39590
      H   27    0.09914      0.00000     0.39929    0.00157     0.40086
      H   28    0.08332      0.00000     0.41431    0.00238     0.41668
      H   29    0.10609      0.00000     0.39271    0.00119     0.39391
      H   30    0.08710      0.00000     0.41185    0.00105     0.41290
      H   31    0.09527      0.00000     0.40404    0.00069     0.40473
      H   32    0.09289      0.00000     0.40518    0.00192     0.40711
      H   33    0.08984      0.00000     0.40784    0.00232     0.41016
      H   34    0.09537      0.00000     0.40413    0.00050     0.40463
      H   35    0.22930      0.00000     0.26726    0.00345     0.27070
      H   36    0.09179      0.00000     0.40702    0.00119     0.40821
      H   37    0.10190      0.00000     0.39684    0.00126     0.39810
      H   38    0.09876      0.00000     0.40009    0.00114     0.40124
      H   39    0.09939      0.00000     0.39963    0.00098     0.40061
      H   40    0.09906      0.00000     0.39988    0.00106     0.40094
      H   41    0.10363      0.00000     0.39519    0.00118     0.39637
 =======================================================================
   * Total *    0.00021     23.99209    53.76622    0.24149    77.99979

 Normal termination of Gaussian 16 at Sun Dec 13 22:00:18 2020.
