 Gaussian 16, Revision A.03,

 -----------------------------------------------------------
 # opt freq B3LYP/6-31G(d) empiricaldispersion=gd3bj scf=xqc
 -----------------------------------------------------------

 -------------------------------
 CID_126827296_JID_6244_neutraal
 -------------------------------
 Symbolic Z-matrix:
 Charge =  0 Multiplicity = 1

 SCF Done:  E(RB3LYP) =  -752.778323665     A.U. after   13 cycles
 SCF Done:  E(RB3LYP) =  -752.784054664     A.U. after   11 cycles
 SCF Done:  E(RB3LYP) =  -752.784139024     A.U. after   11 cycles
 SCF Done:  E(RB3LYP) =  -752.786148731     A.U. after   11 cycles
 SCF Done:  E(RB3LYP) =  -752.787587525     A.U. after   11 cycles
 SCF Done:  E(RB3LYP) =  -752.788715893     A.U. after   12 cycles
 SCF Done:  E(RB3LYP) =  -752.788864857     A.U. after   11 cycles
 SCF Done:  E(RB3LYP) =  -752.789422384     A.U. after   10 cycles
 SCF Done:  E(RB3LYP) =  -752.789525422     A.U. after   11 cycles
 SCF Done:  E(RB3LYP) =  -752.789566565     A.U. after    9 cycles
 SCF Done:  E(RB3LYP) =  -752.789577246     A.U. after    9 cycles
 SCF Done:  E(RB3LYP) =  -752.789581013     A.U. after    8 cycles
 SCF Done:  E(RB3LYP) =  -752.789581338     A.U. after    7 cycles
 SCF Done:  E(RB3LYP) =  -752.789581467     A.U. after    7 cycles
 Optimization completed.
    -- Stationary point found.
 Normal termination of Gaussian 16 at Thu Dec 10 21:51:26 2020.

 --------------------------------------------------------------------
 #N Geom=AllCheck Guess=TCheck SCRF=Check GenChk RB3LYP/6-31G(d) Freq
 --------------------------------------------------------------------

 Structure from the checkpoint file:  "JID_6244.chk"
 -------------------------------
 CID_126827296_JID_6244_neutraal
 -------------------------------
 Charge =  0 Multiplicity = 1

 SCF Done:  E(RB3LYP) =  -752.789581467     A.U. after    1 cycles

  Exact polarizability: 160.238  -1.488 139.755   0.003   1.256 125.784
 Approx polarizability: 199.242   1.652 192.855  -1.798   4.201 192.450

                      1                      2                      3
                      A                      A                      A
 Frequencies --     31.5441                47.9514                59.0820
 Red. masses --      4.1082                 3.7068                 3.2559
 Frc consts  --      0.0024                 0.0050                 0.0067
 IR Inten    --      1.1431                 0.2018                 0.8850

                      4                      5                      6
                      A                      A                      A
 Frequencies --     72.1725                94.9201               102.5335
 Red. masses --      2.0619                 3.0481                 3.3304
 Frc consts  --      0.0063                 0.0162                 0.0206
 IR Inten    --      2.7804                 0.2664                 3.1516

                      7                      8                      9
                      A                      A                      A
 Frequencies --    162.2901               167.0552               175.9516
 Red. masses --      2.2864                 3.9146                 3.1227
 Frc consts  --      0.0355                 0.0644                 0.0570
 IR Inten    --      2.8752                 0.8619                 0.3180

                     10                     11                     12
                      A                      A                      A
 Frequencies --    205.7575               218.4418               237.5147
 Red. masses --      1.3900                 1.3476                 1.0907
 Frc consts  --      0.0347                 0.0379                 0.0363
 IR Inten    --      2.5550                 2.6617                 0.0749

                     13                     14                     15
                      A                      A                      A
 Frequencies --    248.6017               258.7081               281.9481
 Red. masses --      2.7675                 2.4013                 1.5412
 Frc consts  --      0.1008                 0.0947                 0.0722
 IR Inten    --      7.2564                 1.0970                51.4205

                     16                     17                     18
                      A                      A                      A
 Frequencies --    311.6451               315.0538               339.4515
 Red. masses --      2.6294                 1.7572                 2.7731
 Frc consts  --      0.1505                 0.1028                 0.1883
 IR Inten    --      6.6745                30.3486                 2.7542

                     19                     20                     21
                      A                      A                      A
 Frequencies --    350.8687               376.6706               397.7752
 Red. masses --      2.2747                 3.5170                 2.5469
 Frc consts  --      0.1650                 0.2940                 0.2374
 IR Inten    --      4.9778                 0.7788                 0.8126

                     22                     23                     24
                      A                      A                      A
 Frequencies --    402.2677               425.8568               448.3983
 Red. masses --      2.2848                 2.6437                 2.2850
 Frc consts  --      0.2178                 0.2825                 0.2707
 IR Inten    --      9.1360                 7.0949                 8.1551

                     25                     26                     27
                      A                      A                      A
 Frequencies --    456.0091               474.8362               485.4601
 Red. masses --      2.4086                 3.2089                 3.3575
 Frc consts  --      0.2951                 0.4263                 0.4662
 IR Inten    --      1.5044                 2.3368                 2.8063

                     28                     29                     30
                      A                      A                      A
 Frequencies --    546.2747               590.3639               640.6796
 Red. masses --      2.3170                 1.1645                 2.5193
 Frc consts  --      0.4074                 0.2391                 0.6093
 IR Inten    --     13.4306                79.2141                17.6186

                     31                     32                     33
                      A                      A                      A
 Frequencies --    685.7976               738.6662               786.9898
 Red. masses --      3.4397                 3.0123                 2.4788
 Frc consts  --      0.9531                 0.9684                 0.9045
 IR Inten    --      4.4328                 4.0106                14.1452

                     34                     35                     36
                      A                      A                      A
 Frequencies --    851.2781               874.2281               902.5166
 Red. masses --      2.2324                 2.0510                 2.4642
 Frc consts  --      0.9532                 0.9236                 1.1826
 IR Inten    --      7.5459                18.8513                 7.4402

                     37                     38                     39
                      A                      A                      A
 Frequencies --    908.3261               921.9831               929.9131
 Red. masses --      1.5731                 2.2990                 2.2899
 Frc consts  --      0.7647                 1.1514                 1.1667
 IR Inten    --      4.3159                 8.8880                 1.2139

                     40                     41                     42
                      A                      A                      A
 Frequencies --    942.1149               950.9538               978.2658
 Red. masses --      1.5400                 1.5122                 1.4453
 Frc consts  --      0.8053                 0.8057                 0.8149
 IR Inten    --      5.2566                 3.6079                 1.8677

                     43                     44                     45
                      A                      A                      A
 Frequencies --    998.4253              1014.8431              1043.5938
 Red. masses --      2.1326                 1.9022                 1.7113
 Frc consts  --      1.2525                 1.1543                 1.0981
 IR Inten    --     19.6883                29.3104                 1.6997

                     46                     47                     48
                      A                      A                      A
 Frequencies --   1062.6662              1073.0039              1087.0199
 Red. masses --      2.3206                 2.1723                 3.4106
 Frc consts  --      1.5440                 1.4736                 2.3744
 IR Inten    --     14.7703                28.9437                44.7369

                     49                     50                     51
                      A                      A                      A
 Frequencies --   1095.2723              1123.4277              1132.8304
 Red. masses --      3.7119                 2.5688                 2.2770
 Frc consts  --      2.6236                 1.9102                 1.7217
 IR Inten    --     79.8870                 7.2154                17.9546

                     52                     53                     54
                      A                      A                      A
 Frequencies --   1148.4251              1155.7053              1168.3676
 Red. masses --      2.2125                 2.0930                 1.9170
 Frc consts  --      1.7192                 1.6471                 1.5418
 IR Inten    --    147.3800                50.6255                32.6209

                     55                     56                     57
                      A                      A                      A
 Frequencies --   1194.1141              1200.3717              1205.0089
 Red. masses --      1.2753                 1.6806                 1.7130
 Frc consts  --      1.0714                 1.4268                 1.4655
 IR Inten    --      1.8756                 6.4546                 1.0405

                     58                     59                     60
                      A                      A                      A
 Frequencies --   1211.5406              1230.6197              1242.0888
 Red. masses --      1.6512                 2.0423                 1.5344
 Frc consts  --      1.4280                 1.8223                 1.3947
 IR Inten    --     24.5676                18.5536                 2.0155

                     61                     62                     63
                      A                      A                      A
 Frequencies --   1269.2770              1274.6605              1285.9270
 Red. masses --      1.4552                 1.5033                 1.7975
 Frc consts  --      1.3813                 1.4391                 1.7513
 IR Inten    --     44.7090                 4.0597                 5.6504

                     64                     65                     66
                      A                      A                      A
 Frequencies --   1322.3062              1325.5814              1341.0606
 Red. masses --      1.3352                 1.3905                 1.4581
 Frc consts  --      1.3755                 1.4396                 1.5451
 IR Inten    --      2.7058                 1.7982                 6.1209

                     67                     68                     69
                      A                      A                      A
 Frequencies --   1354.6402              1370.5380              1370.7274
 Red. masses --      1.4437                 1.3571                 1.4119
 Frc consts  --      1.5609                 1.5019                 1.5630
 IR Inten    --     15.0193                 1.3771                 2.9185

                     70                     71                     72
                      A                      A                      A
 Frequencies --   1395.0519              1400.9788              1410.2761
 Red. masses --      1.4033                 1.3714                 1.2512
 Frc consts  --      1.6091                 1.5859                 1.4662
 IR Inten    --     29.1021                 9.9272                28.5079

                     73                     74                     75
                      A                      A                      A
 Frequencies --   1412.7269              1420.9610              1425.9764
 Red. masses --      1.4562                 1.4085                 1.2655
 Frc consts  --      1.7123                 1.6756                 1.5161
 IR Inten    --      0.9177                20.0393                 8.9317

                     76                     77                     78
                      A                      A                      A
 Frequencies --   1428.1359              1440.4190              1449.0890
 Red. masses --      1.3450                 1.4385                 1.2472
 Frc consts  --      1.6163                 1.7585                 1.5430
 IR Inten    --     11.7289                 3.2822                14.9546

                     79                     80                     81
                      A                      A                      A
 Frequencies --   1457.1044              1507.7696              1511.3753
 Red. masses --      1.2447                 1.1356                 1.0903
 Frc consts  --      1.5570                 1.5211                 1.4673
 IR Inten    --     60.9590                 0.5253                 1.7485

                     82                     83                     84
                      A                      A                      A
 Frequencies --   1515.6744              1518.1760              1519.9308
 Red. masses --      1.0723                 1.0588                 1.0572
 Frc consts  --      1.4513                 1.4378                 1.4389
 IR Inten    --      7.1438                 2.0949                 2.9634

                     85                     86                     87
                      A                      A                      A
 Frequencies --   1523.4033              1525.2075              1527.9927
 Red. masses --      1.0587                 1.0660                 1.0805
 Frc consts  --      1.4476                 1.4611                 1.4863
 IR Inten    --      0.1397                 4.1885                 3.5499

                     88                     89                     90
                      A                      A                      A
 Frequencies --   1529.8588              1538.0763              1542.2327
 Red. masses --      1.0891                 1.0610                 1.0749
 Frc consts  --      1.5018                 1.4789                 1.5063
 IR Inten    --      9.9949                 3.4812                 8.1063

                     91                     92                     93
                      A                      A                      A
 Frequencies --   1544.5494              1545.9416              2933.3042
 Red. masses --      1.0708                 1.0569                 1.0728
 Frc consts  --      1.5050                 1.4882                 5.4387
 IR Inten    --      8.9130                 9.7541                64.2499

                     94                     95                     96
                      A                      A                      A
 Frequencies --   2970.3719              3022.7371              3029.2189
 Red. masses --      1.0730                 1.0806                 1.0396
 Frc consts  --      5.5777                 5.8171                 5.6207
 IR Inten    --     48.4732                 9.9026                58.7974

                     97                     98                     99
                      A                      A                      A
 Frequencies --   3033.4988              3035.5942              3039.6682
 Red. masses --      1.0665                 1.0688                 1.0470
 Frc consts  --      5.7825                 5.8025                 5.6996
 IR Inten    --     20.4668                10.3905                22.8760

                    100                    101                    102
                      A                      A                      A
 Frequencies --   3041.3367              3049.1472              3051.4701
 Red. masses --      1.0509                 1.0617                 1.0631
 Frc consts  --      5.7269                 5.8159                 5.8321
 IR Inten    --     25.7247               113.4404                48.5755

                    103                    104                    105
                      A                      A                      A
 Frequencies --   3055.5237              3088.0698              3092.6916
 Red. masses --      1.0632                 1.0961                 1.0942
 Frc consts  --      5.8486                 6.1584                 6.1665
 IR Inten    --     20.2618                48.9749                 4.7047

                    106                    107                    108
                      A                      A                      A
 Frequencies --   3097.4967              3100.2952              3102.6235
 Red. masses --      1.0955                 1.0998                 1.0944
 Frc consts  --      6.1927                 6.2281                 6.2072
 IR Inten    --     55.2346                 9.3499                29.5195

                    109                    110                    111
                      A                      A                      A
 Frequencies --   3105.3591              3107.4431              3113.0149
 Red. masses --      1.1005                 1.0989                 1.1025
 Frc consts  --      6.2525                 6.2520                 6.2948
 IR Inten    --     24.9588                75.0096                17.3484

                    112                    113                    114
                      A                      A                      A
 Frequencies --   3118.0929              3125.5568              3137.8233
 Red. masses --      1.1009                 1.0891                 1.1051
 Frc consts  --      6.3066                 6.2687                 6.4106
 IR Inten    --     53.2657                16.4534                31.6431

                    115                    116                    117
                      A                      A                      A
 Frequencies --   3150.1364              3607.7454              3757.6171
 Red. masses --      1.0987                 1.0640                 1.0664
 Frc consts  --      6.4238                 8.1596                 8.8717
 IR Inten    --     15.3269               100.6588                11.2495

 - Thermochemistry -
 -------------------
 Temperature   298.150 Kelvin.  Pressure   1.00000 Atm.
 Atom     1 has atomic number  6 and mass  12.00000

 Molecular mass:   231.18344 amu.
 Principal axes and moments of inertia in atomic units:
                           1         2         3
     Eigenvalues --  2376.448735585.970996213.76219
           X            0.99977  -0.02111  -0.00382
           Y            0.02111   0.99978  -0.00074
           Z            0.00384   0.00066   0.99999
 This molecule is an asymmetric top.
 Rotational symmetry number  1.
 Warning -- assumption of classical behavior for rotation
           may cause significant error
 Rotational temperatures (Kelvin)      0.03645     0.01551     0.01394
 Rotational constants (GHZ):           0.75943     0.32308     0.29044
 Zero-point vibrational energy     979477.8 (Joules/Mol)
                                  234.10082 (Kcal/Mol)
 Warning -- explicit consideration of  29 degrees of freedom as
           vibrations may cause significant error
 Vibrational temperatures:     45.38    68.99    85.01   103.84   136.57
          (Kelvin)            147.52   233.50   240.36   253.16   296.04
                              314.29   341.73   357.68   372.22   405.66
                              448.39   453.29   488.40   504.82   541.95
                              572.31   578.77   612.71   645.15   656.10
                              683.18   698.47   785.97   849.40   921.80
                              986.71  1062.78  1132.30  1224.80  1257.82
                             1298.52  1306.88  1326.53  1337.94  1355.49
                             1368.21  1407.51  1436.51  1460.13  1501.50
                             1528.94  1543.81  1563.98  1575.85  1616.36
                             1629.89  1652.33  1662.80  1681.02  1718.06
                             1727.07  1733.74  1743.14  1770.59  1787.09
                             1826.21  1833.95  1850.16  1902.50  1907.22
                             1929.49  1949.03  1971.90  1972.17  2007.17
                             2015.70  2029.07  2032.60  2044.45  2051.66
                             2054.77  2072.44  2084.92  2096.45  2169.34
                             2174.53  2180.72  2184.32  2186.84  2191.84
                             2194.43  2198.44  2201.13  2212.95  2218.93
                             2222.26  2224.27  4220.37  4273.70  4349.04
                             4358.37  4364.53  4367.54  4373.40  4375.81
                             4387.04  4390.38  4396.22  4443.04  4449.69
                             4456.61  4460.63  4463.98  4467.92  4470.92
                             4478.93  4486.24  4496.98  4514.63  4532.34
                             5190.74  5406.37

 Zero-point correction=                           0.373063 (Hartree/Particle)
 Thermal correction to Energy=                    0.391180
 Thermal correction to Enthalpy=                  0.392125
 Thermal correction to Gibbs Free Energy=         0.327415
 Sum of electronic and zero-point Energies=           -752.416518
 Sum of electronic and thermal Energies=              -752.398401
 Sum of electronic and thermal Enthalpies=            -752.397457
 Sum of electronic and thermal Free Energies=         -752.462166

                     E (Thermal)             CV                S
                      KCal/Mol        Cal/Mol-Kelvin    Cal/Mol-Kelvin
 Total                  245.469             69.198            136.192
 Electronic               0.000              0.000              0.000
 Translational            0.889              2.981             42.216
 Rotational               0.889              2.981             32.778
 Vibrational            243.692             63.237             61.198
 Vibration     1          0.594              1.983              5.730
 Vibration     2          0.595              1.978              4.900
 Vibration     3          0.596              1.974              4.488
 Vibration     4          0.598              1.967              4.093
 Vibration     5          0.603              1.953              3.556
 Vibration     6          0.605              1.947              3.406
 Vibration     7          0.622              1.889              2.523
 Vibration     8          0.624              1.883              2.468
 Vibration     9          0.628              1.872              2.371
 Vibration    10          0.640              1.832              2.081
 Vibration    11          0.646              1.813              1.972
 Vibration    12          0.656              1.783              1.821
 Vibration    13          0.662              1.765              1.740
 Vibration    14          0.668              1.748              1.670
 Vibration    15          0.681              1.707              1.522
 Vibration    16          0.700              1.651              1.354
 Vibration    17          0.702              1.645              1.336
 Vibration    18          0.719              1.597              1.215
 Vibration    19          0.728              1.573              1.162
 Vibration    20          0.747              1.520              1.053
 Vibration    21          0.764              1.475              0.971
 Vibration    22          0.768              1.465              0.954
 Vibration    23          0.788              1.414              0.872
 Vibration    24          0.807              1.364              0.801
 Vibration    25          0.814              1.348              0.778
 Vibration    26          0.832              1.306              0.724
 Vibration    27          0.842              1.282              0.695
 Vibration    28          0.901              1.148              0.552
 Vibration    29          0.948              1.052              0.467

                           ! Non-Optimized Parameters !
 Normal termination of Gaussian 16 at Thu Dec 10 22:07:21 2020.

 ----------------------------------------------------------------------
 # B3LYP/6-311++G(d,p) empiricaldispersion=gd3bj scf=xqc pop=npa geom=c
 heck
 ----------------------------------------------------------------------

 ---------------------------------------
 CID_126827296_JID_6244_Energie_neutraal
 ---------------------------------------
 Structure from the checkpoint file:  "JID_6244.chk"
 Charge =  0 Multiplicity = 1

 SCF Done:  E(RB3LYP) =  -753.022854142     A.U. after   13 cycles
 Normal termination of Gaussian 16 at Thu Dec 10 22:15:50 2020.

 ----------------------------------------------------------------------
 # B3LYP/6-311++G(d,p) empiricaldispersion=gd3bj scf=xqc pop=npa geom=c
 heck
 ----------------------------------------------------------------------

 -------------------------------------
 CID_126827296_JID_6244_Energie_kation
 -------------------------------------
 Structure from the checkpoint file:  "JID_6244.chk"
 Charge =  1 Multiplicity = 2

 SCF Done:  E(UB3LYP) =  -752.719592091     A.U. after   25 cycles
 Normal termination of Gaussian 16 at Thu Dec 10 22:39:01 2020.
 Gaussian 16:  ES64L-G16RevA.03 25-Dec-2016

 ----------------------------------------------------------------------
 # B3LYP/6-311++G(d,p) empiricaldispersion=gd3bj scf=xqc pop=npa geom=c
 heck
 ----------------------------------------------------------------------

 ------------------------------------
 CID_126827296_JID_6244_Energie_anion
 ------------------------------------
 Structure from the checkpoint file:  "JID_6244.chk"
 Charge = -1 Multiplicity = 2

                         Standard orientation:
 ---------------------------------------------------------------------
 Center     Atomic      Atomic             Coordinates (Angstroms)
 Number     Number       Type             X           Y           Z
 ---------------------------------------------------------------------
      1          6           0        3.044545   -1.571672   -1.323767
      2          6           0        2.753785   -0.941814    0.044616
      3          6           0        3.792113   -1.395122    1.078054
      4          6           0        2.715444    0.600006   -0.016626
      5          6           0        1.674041    1.207592   -0.977710
      6          7           0        0.322064    1.077392   -0.410974
      7          6           0       -0.441601    2.327131   -0.405174
      8          6           0       -1.724698    2.157718    0.407175
      9          6           0       -2.569144    0.994714   -0.129100
     10          6           0       -1.748955   -0.299912   -0.245261
     11          6           0       -0.449434   -0.008421   -1.014956
     12          6           0       -1.390110   -0.903653    1.129385
     13          8           0       -2.458302   -0.927626    2.072198
     14          8           0       -2.401817   -1.259170   -1.081298
     15          6           0       -3.656672   -1.756494   -0.641441
     16          8           0        2.476963    1.158072    1.271556
     17          1           0        3.983469   -1.182438   -1.738818
     18          1           0        2.252652   -1.380486   -2.055483
     19          1           0        3.151951   -2.658140   -1.232346
     20          1           0        1.767264   -1.283751    0.389676
     21          1           0        4.803888   -1.112547    0.758136
     22          1           0        3.602420   -0.926494    2.046355
     23          1           0        3.773148   -2.484072    1.200471
     24          1           0        3.710493    0.948800   -0.325777
     25          1           0        1.905879    2.272893   -1.073201
     26          1           0        1.733851    0.775113   -1.985425
     27          1           0       -0.697099    2.646820   -1.434649
     28          1           0        0.185335    3.107959    0.036327
     29          1           0       -2.303921    3.087853    0.378940
     30          1           0       -1.452977    1.984266    1.457639
     31          1           0       -3.449555    0.835034    0.501437
     32          1           0       -2.933128    1.240104   -1.134643
     33          1           0        0.157358   -0.916775   -1.034739
     34          1           0       -0.724896    0.221591   -2.059686
     35          1           0       -1.103602   -1.947326    0.967396
     36          1           0       -0.519266   -0.375508    1.537182
     37          1           0       -2.553036   -0.034349    2.434566
     38          1           0       -3.591043   -2.254633    0.331709
     39          1           0       -4.415063   -0.964406   -0.573780
     40          1           0       -3.973327   -2.477476   -1.399807
     41          1           0        1.504111    1.105584    1.354517
 ---------------------------------------------------------------------

 SCF Done:  E(UB3LYP) =  -753.010411423     A.U. after   30 cycles

 The electronic state is 2-A.
 Alpha  occ. eigenvalues --  -19.02778 -19.02585 -19.01957 -14.22343 -10.13231
 Alpha  occ. eigenvalues --  -10.12725 -10.11746 -10.11171 -10.10647 -10.10280
 Alpha  occ. eigenvalues --  -10.10054 -10.08597 -10.07562 -10.07122 -10.06816
 Alpha  occ. eigenvalues --  -10.06732  -0.94375  -0.92886  -0.92282  -0.84180
 Alpha  occ. eigenvalues --   -0.71872  -0.70601  -0.67495  -0.63396  -0.59815
 Alpha  occ. eigenvalues --   -0.59197  -0.58943  -0.56120  -0.52450  -0.50688
 Alpha  occ. eigenvalues --   -0.47988  -0.45593  -0.42580  -0.40749  -0.39804
 Alpha  occ. eigenvalues --   -0.39602  -0.38358  -0.37604  -0.37181  -0.36053
 Alpha  occ. eigenvalues --   -0.35675  -0.34011  -0.33089  -0.32348  -0.31753
 Alpha  occ. eigenvalues --   -0.31474  -0.30916  -0.29991  -0.29780  -0.29223
 Alpha  occ. eigenvalues --   -0.28233  -0.26828  -0.25839  -0.25018  -0.24682
 Alpha  occ. eigenvalues --   -0.24447  -0.24207  -0.23561  -0.22560  -0.21603
 Alpha  occ. eigenvalues --   -0.19241  -0.17973  -0.15485  -0.13929   0.04289
 Alpha virt. eigenvalues --    0.05770   0.06833   0.07171   0.07904   0.08239
 Alpha virt. eigenvalues --    0.08520   0.09341   0.09748   0.10427   0.10813
 Alpha virt. eigenvalues --    0.10901   0.11077   0.11496   0.12318   0.12734

  Beta  occ. eigenvalues --  -19.02773 -19.02543 -19.01952 -14.22331 -10.13232
  Beta  occ. eigenvalues --  -10.12720 -10.11735 -10.11155 -10.10637 -10.10278
  Beta  occ. eigenvalues --  -10.10038 -10.08595 -10.07543 -10.07077 -10.06790
  Beta  occ. eigenvalues --  -10.06721  -0.94352  -0.92876  -0.92206  -0.84160
  Beta  occ. eigenvalues --   -0.71852  -0.70574  -0.67456  -0.63368  -0.59781
  Beta  occ. eigenvalues --   -0.59144  -0.58906  -0.56088  -0.52387  -0.50642
  Beta  occ. eigenvalues --   -0.47961  -0.45532  -0.42533  -0.40695  -0.39782
  Beta  occ. eigenvalues --   -0.39581  -0.38326  -0.37567  -0.37157  -0.36034
  Beta  occ. eigenvalues --   -0.35645  -0.33983  -0.33064  -0.32321  -0.31725
  Beta  occ. eigenvalues --   -0.31447  -0.30874  -0.29964  -0.29749  -0.29184
  Beta  occ. eigenvalues --   -0.28210  -0.26809  -0.25814  -0.24989  -0.24655
  Beta  occ. eigenvalues --   -0.24405  -0.24161  -0.23535  -0.22538  -0.21577
  Beta  occ. eigenvalues --   -0.19206  -0.17960  -0.15465  -0.13863
  Beta virt. eigenvalues --    0.06045   0.06952   0.07183   0.07606   0.08304
  Beta virt. eigenvalues --    0.08622   0.09017   0.09617   0.09976   0.10642
  Beta virt. eigenvalues --    0.10965   0.11321   0.11421   0.11648   0.12504

 Mulliken charges and spin densities:
               1          2
     1  C    0.007536  -0.737512
     2  C    0.050336   0.455357
     3  C   -0.289501  -0.185400
     4  C   -0.504797   0.135517
     5  C   -0.070243  -0.458865
     6  N    0.071607   0.109280
     7  C    0.088167  -0.329107
     8  C    1.306995  -1.673178
     9  C    0.139995  -0.283646
    10  C   -1.778967   1.285895
    11  C   -0.554243  -0.164976
    12  C    1.060010  -1.496562
    13  O   -0.192639   0.054440
    14  O   -0.019702   0.007577
    15  C    0.323101  -0.503625
    16  O   -0.152172   0.000970
    17  H   -0.142301   0.296106
    18  H   -0.011281   0.125198
    19  H   -0.033855   0.179085
    20  H    0.402001  -0.258424
    21  H    0.014750   0.109508
    22  H    0.056230   0.104229
    23  H   -0.012526   0.146233
    24  H    0.053860   0.128753
    25  H   -0.050678   0.255573
    26  H    0.123890  -0.002141
    27  H    0.101041   0.035254
    28  H   -0.138472   0.318798
    29  H   -1.035770   1.252108
    30  H   -0.053074   0.185323
    31  H   -0.107953   0.315667
    32  H   -0.028418   0.195011
    33  H    0.282252  -0.086399
    34  H    0.018084   0.185519
    35  H    0.148413   0.084513
    36  H   -0.031821   0.181028
    37  H   -0.190051   0.465497
    38  H   -0.027089   0.186744
    39  H   -0.146340   0.279111
    40  H    0.009542   0.134975
    41  H    0.314086  -0.033434
 Sum of Mulliken charges =  -1.00000   1.00000

 Dipole moment (field-independent basis, Debye):
    X=              3.8566    Y=             -3.3141    Z=             -3.1366  Tot=              5.9746
 Quadrupole moment (field-independent basis, Debye-Ang):
   XX=           -179.7393   YY=           -154.0948   ZZ=           -144.0160
   XY=             11.2042   XZ=              7.1309   YZ=             -5.0564

 Summary of Natural Population Analysis:

                                       Natural Population
                Natural  -----------------------------------------------
    Atom  No    Charge         Core      Valence    Rydberg      Total
 -----------------------------------------------------------------------
      C    1   -0.28805      0.99965     2.28241    0.00599     3.28805
      C    2   -0.12967      0.99959     2.12000    0.01009     3.12967
      C    3   -0.28331      0.99965     2.27882    0.00484     3.28331
      C    4    0.06371      0.99953     1.92179    0.01497     2.93629
      C    5   -0.09066      0.99959     2.08071    0.01037     3.09066
      N    6   -0.30053      0.99970     2.78813    0.01269     3.80053
      C    7   -0.07803      0.99960     2.06753    0.01090     3.07803
      C    8   -0.19517      0.99962     2.18425    0.01130     3.19517
      C    9   -0.21102      0.99957     2.19926    0.01219     3.21102
      C   10    0.12584      0.99948     1.85659    0.01809     2.87416
      C   11   -0.08670      0.99954     2.07478    0.01238     3.08670
      C   12   -0.02461      0.99949     2.01161    0.01351     3.02461
      O   13   -0.37133      0.99990     3.36490    0.00654     4.37133
      O   14   -0.30982      0.99987     3.29982    0.01013     4.30982
      C   15   -0.09807      0.99959     2.09036    0.00811     3.09807
      O   16   -0.37858      0.99990     3.37224    0.00643     4.37858
      H   17    0.09718      0.00000     0.40182    0.00100     0.40282
      H   18    0.09946      0.00000     0.39964    0.00089     0.40054
      H   19    0.10053      0.00000     0.39868    0.00079     0.39947
      H   20    0.09524      0.00000     0.40228    0.00248     0.40476
      H   21    0.09405      0.00000     0.40507    0.00088     0.40595
      H   22    0.10956      0.00000     0.38945    0.00098     0.39044
      H   23    0.09588      0.00000     0.40336    0.00076     0.40412
      H   24    0.08337      0.00000     0.41515    0.00148     0.41663
      H   25    0.10000      0.00000     0.39891    0.00108     0.40000
      H   26    0.09283      0.00000     0.40610    0.00107     0.40717
      H   27    0.08040      0.00000     0.41826    0.00134     0.41960
      H   28    0.10039      0.00000     0.39822    0.00138     0.39961
      H   29    0.10737      0.00000     0.38979    0.00283     0.39263
      H   30    0.09580      0.00000     0.40153    0.00267     0.40420
      H   31    0.10944      0.00000     0.38811    0.00246     0.39056
      H   32    0.10321      0.00000     0.39525    0.00153     0.39679
      H   33    0.10125      0.00000     0.39696    0.00179     0.39875
      H   34    0.09146      0.00000     0.40696    0.00158     0.40854
      H   35    0.09029      0.00000     0.40831    0.00140     0.40971
      H   36    0.08753      0.00000     0.41035    0.00212     0.41247
      H   37    0.23362      0.00000     0.26102    0.00536     0.26638
      H   38    0.08806      0.00000     0.41040    0.00154     0.41194
      H   39    0.08073      0.00000     0.41784    0.00144     0.41927
      H   40    0.08485      0.00000     0.41419    0.00095     0.41515
      H   41    0.23349      0.00000     0.26280    0.00371     0.26651
 =======================================================================
   * Total *   -0.00000     15.99428    47.79367    0.21205    64.00000

 Normal termination of Gaussian 16 at Thu Dec 10 23:04:07 2020.
