 Gaussian 16, Revision A.03,

 -----------------------------------------------------------
 # opt freq B3LYP/6-31G(d) empiricaldispersion=gd3bj scf=xqc
 -----------------------------------------------------------

 ------------------------------
 CID_82721079_JID_3566_neutraal
 ------------------------------
 Symbolic Z-matrix:
 Charge =  0 Multiplicity = 1

 SCF Done:  E(RB3LYP) =  -668.309222115     A.U. after   15 cycles
 SCF Done:  E(RB3LYP) =  -668.311780566     A.U. after   14 cycles
 SCF Done:  E(RB3LYP) =  -668.310019450     A.U. after   13 cycles
 SCF Done:  E(RB3LYP) =  -668.313131821     A.U. after   12 cycles
 SCF Done:  E(RB3LYP) =  -668.314506266     A.U. after   13 cycles
 SCF Done:  E(RB3LYP) =  -668.315095539     A.U. after   13 cycles
 SCF Done:  E(RB3LYP) =  -668.315563190     A.U. after   12 cycles
 SCF Done:  E(RB3LYP) =  -668.316087018     A.U. after   14 cycles
 SCF Done:  E(RB3LYP) =  -668.316513964     A.U. after   14 cycles
 SCF Done:  E(RB3LYP) =  -668.317211116     A.U. after   13 cycles
 SCF Done:  E(RB3LYP) =  -668.318052643     A.U. after   11 cycles
 SCF Done:  E(RB3LYP) =  -668.318056422     A.U. after    9 cycles
 SCF Done:  E(RB3LYP) =  -668.318057077     A.U. after    9 cycles
 SCF Done:  E(RB3LYP) =  -668.318057299     A.U. after    8 cycles
 SCF Done:  E(RB3LYP) =  -668.318057368     A.U. after    7 cycles
 SCF Done:  E(RB3LYP) =  -668.318057405     A.U. after    7 cycles
 Optimization completed.
    -- Stationary point found.
 Normal termination of Gaussian 16 at Wed Dec  9 23:43:40 2020.

 --------------------------------------------------------------------
 #N Geom=AllCheck Guess=TCheck SCRF=Check GenChk RB3LYP/6-31G(d) Freq
 --------------------------------------------------------------------

 Structure from the checkpoint file:  "JID_3566.chk"
 ------------------------------
 CID_82721079_JID_3566_neutraal
 ------------------------------
 Charge =  0 Multiplicity = 1

 SCF Done:  E(RB3LYP) =  -668.318057405     A.U. after    1 cycles

  Exact polarizability: 119.820   5.455 121.925  -4.765   6.812  72.301
 Approx polarizability: 147.787  11.170 209.063  -4.368  21.743 109.581

                      1                      2                      3
                      A                      A                      A
 Frequencies --     31.5947                41.1415                52.0221
 Red. masses --      5.9511                 3.4192                 4.7498
 Frc consts  --      0.0035                 0.0034                 0.0076
 IR Inten    --      1.2440                 0.7364                 0.7491

                      4                      5                      6
                      A                      A                      A
 Frequencies --     90.3888               128.7589               143.4679
 Red. masses --      5.2383                 5.3039                 2.8681
 Frc consts  --      0.0252                 0.0518                 0.0348
 IR Inten    --      0.8158                 1.2934                 1.2325

                      7                      8                      9
                      A                      A                      A
 Frequencies --    153.7386               196.4318               209.2372
 Red. masses --      5.0821                 2.2625                 1.3028
 Frc consts  --      0.0708                 0.0514                 0.0336
 IR Inten    --      0.9841                 2.8850                 0.4268

                     10                     11                     12
                      A                      A                      A
 Frequencies --    260.1967               265.8567               283.0352
 Red. masses --      1.1038                 1.1508                 2.7146
 Frc consts  --      0.0440                 0.0479                 0.1281
 IR Inten    --      0.1462                 0.2145                 1.9082

                     13                     14                     15
                      A                      A                      A
 Frequencies --    293.4427               342.2092               360.1414
 Red. masses --      4.1434                 2.9505                 2.8411
 Frc consts  --      0.2102                 0.2036                 0.2171
 IR Inten    --      1.4676                 1.5540                 7.9472

                     16                     17                     18
                      A                      A                      A
 Frequencies --    410.4574               418.3040               469.0472
 Red. masses --      2.7498                 5.8312                 2.9675
 Frc consts  --      0.2730                 0.6012                 0.3847
 IR Inten    --      2.1590                 2.1006                11.1939

                     19                     20                     21
                      A                      A                      A
 Frequencies --    495.3315               509.1756               587.9501
 Red. masses --      3.0695                 2.2008                 1.5952
 Frc consts  --      0.4437                 0.3362                 0.3249
 IR Inten    --      0.7381                48.7559               137.2889

                     22                     23                     24
                      A                      A                      A
 Frequencies --    606.4573               614.1463               668.0067
 Red. masses --      3.5146                 2.2530                 2.4398
 Frc consts  --      0.7616                 0.5007                 0.6415
 IR Inten    --     88.2110                60.2646                 9.5074

                     25                     26                     27
                      A                      A                      A
 Frequencies --    703.1596               762.3568               773.5145
 Red. masses --      4.0637                 4.2113                 7.3977
 Frc consts  --      1.1838                 1.4421                 2.6078
 IR Inten    --     52.1498                 7.5681                89.2295

                     28                     29                     30
                      A                      A                      A
 Frequencies --    869.4518               906.9792               918.3427
 Red. masses --      3.2851                 4.0551                 2.3351
 Frc consts  --      1.4632                 1.9654                 1.1603
 IR Inten    --     26.3064                13.7665                 0.6166

                     31                     32                     33
                      A                      A                      A
 Frequencies --    931.7508               937.6068               941.2272
 Red. masses --      1.8080                 2.9398                 1.5713
 Frc consts  --      0.9248                 1.5227                 0.8202
 IR Inten    --      2.5747                20.9005                 1.3601

                     34                     35                     36
                      A                      A                      A
 Frequencies --    977.1304              1042.7488              1056.3686
 Red. masses --      1.2031                 1.0910                 1.4100
 Frc consts  --      0.6768                 0.6989                 0.9270
 IR Inten    --      0.0466                55.5195                 3.4342

                     37                     38                     39
                      A                      A                      A
 Frequencies --   1067.2017              1118.2866              1199.6129
 Red. masses --      1.4323                 5.8596                 1.9056
 Frc consts  --      0.9611                 4.3174                 1.6157
 IR Inten    --      1.6199                33.0164               336.5449

                     40                     41                     42
                      A                      A                      A
 Frequencies --   1229.0761              1281.8305              1285.2104
 Red. masses --      2.1327                 1.2760                 2.6689
 Frc consts  --      1.8982                 1.2352                 2.5973
 IR Inten    --     60.5764                 2.1653                19.5627

                     43                     44                     45
                      A                      A                      A
 Frequencies --   1305.8364              1335.7111              1385.5601
 Red. masses --      2.9174                 1.3910                 3.2181
 Frc consts  --      2.9310                 1.4622                 3.6400
 IR Inten    --     15.7478                 0.6089               221.5869

                     46                     47                     48
                      A                      A                      A
 Frequencies --   1408.5728              1425.6231              1429.3939
 Red. masses --      2.9521                 1.3006                 1.2948
 Frc consts  --      3.4509                 1.5574                 1.5586
 IR Inten    --      6.7365                19.1931                15.1136

                     49                     50                     51
                      A                      A                      A
 Frequencies --   1443.6334              1453.7220              1502.7963
 Red. masses --      1.4891                 1.2342                 1.0475
 Frc consts  --      1.8285                 1.5367                 1.3938
 IR Inten    --     17.8541                10.3741                 0.2446

                     52                     53                     54
                      A                      A                      A
 Frequencies --   1516.3664              1518.9030              1528.7703
 Red. masses --      1.0467                 1.0486                 1.0594
 Frc consts  --      1.4181                 1.4254                 1.4588
 IR Inten    --      0.4909                 0.3420                 4.0407

                     55                     56                     57
                      A                      A                      A
 Frequencies --   1531.0563              1551.5985              1700.2219
 Red. masses --      1.0601                 1.0571                 7.5178
 Frc consts  --      1.4641                 1.4995                12.8042
 IR Inten    --      1.5779                10.2545                15.6469

                     58                     59                     60
                      A                      A                      A
 Frequencies --   1762.9537              1824.3248              3056.9055
 Red. masses --      8.3737                 9.3017                 1.0348
 Frc consts  --     15.3339                18.2396                 5.6975
 IR Inten    --    286.4264               285.9135                15.9377

                     61                     62                     63
                      A                      A                      A
 Frequencies --   3062.1715              3069.1232              3128.7689
 Red. masses --      1.0349                 1.0362                 1.1025
 Frc consts  --      5.7173                 5.7509                 6.3588
 IR Inten    --     13.3774                 6.6393                 5.7504

                     64                     65                     66
                      A                      A                      A
 Frequencies --   3131.4852              3133.7974              3137.9979
 Red. masses --      1.1028                 1.1026                 1.1026
 Frc consts  --      6.3714                 6.3798                 6.3970
 IR Inten    --      8.8595                 5.7383                35.4225

                     67                     68                     69
                      A                      A                      A
 Frequencies --   3140.8677              3150.0348              3219.9403
 Red. masses --      1.1021                 1.1032                 1.0903
 Frc consts  --      6.4057                 6.4495                 6.6604
 IR Inten    --     43.7890                18.3482                 0.0205

                     70                     71                     72
                      A                      A                      A
 Frequencies --   3278.6180              3539.2360              3702.2789
 Red. masses --      1.0908                 1.0770                 1.0643
 Frc consts  --      6.9083                 7.9483                 8.5949
 IR Inten    --      1.4756                19.0603                72.5154

 - Thermochemistry -
 -------------------
 Temperature   298.150 Kelvin.  Pressure   1.00000 Atm.
 Atom     1 has atomic number  6 and mass  12.00000

 Molecular mass:   187.08446 amu.
 Principal axes and moments of inertia in atomic units:
                           1         2         3
     Eigenvalues --  1751.632603594.196294820.94609
           X            0.99948  -0.03226   0.00092
           Y            0.03226   0.99948  -0.00092
           Z           -0.00089   0.00095   1.00000
 This molecule is an asymmetric top.
 Rotational symmetry number  1.
 Warning -- assumption of classical behavior for rotation
           may cause significant error
 Rotational temperatures (Kelvin)      0.04945     0.02410     0.01797
 Rotational constants (GHZ):           1.03032     0.50213     0.37435
 Zero-point vibrational energy     556315.4 (Joules/Mol)
                                  132.96256 (Kcal/Mol)
 Warning -- explicit consideration of  23 degrees of freedom as
           vibrations may cause significant error
 Vibrational temperatures:     45.46    59.19    74.85   130.05   185.26
          (Kelvin)            206.42   221.20   282.62   301.05   374.37
                              382.51   407.22   422.20   492.36   518.16
                              590.56   601.85   674.85   712.67   732.59
                              845.93   872.56   883.62   961.11  1011.69
                             1096.86  1112.91  1250.95  1304.94  1321.29
                             1340.58  1349.01  1354.22  1405.87  1500.28
                             1519.88  1535.47  1608.97  1725.98  1768.37
                             1844.27  1849.13  1878.81  1921.79  1993.51
                             2026.62  2051.15  2056.58  2077.07  2091.58
                             2162.19  2181.71  2185.36  2199.56  2202.85
                             2232.40  2446.24  2536.50  2624.80  4398.21
                             4405.78  4415.78  4501.60  4505.51  4508.84
                             4514.88  4519.01  4532.20  4632.78  4717.20
                             5092.17  5326.75

 Zero-point correction=                           0.211889 (Hartree/Particle)
 Thermal correction to Energy=                    0.226425
 Thermal correction to Enthalpy=                  0.227369
 Thermal correction to Gibbs Free Energy=         0.169554
 Sum of electronic and zero-point Energies=           -668.106168
 Sum of electronic and thermal Energies=              -668.091632
 Sum of electronic and thermal Enthalpies=            -668.090688
 Sum of electronic and thermal Free Energies=         -668.148503

                     E (Thermal)             CV                S
                      KCal/Mol        Cal/Mol-Kelvin    Cal/Mol-Kelvin
 Total                  142.084             52.732            121.683
 Electronic               0.000              0.000              0.000
 Translational            0.889              2.981             41.585
 Rotational               0.889              2.981             31.785
 Vibrational            140.306             46.770             48.313
 Vibration     1          0.594              1.983              5.727
 Vibration     2          0.594              1.981              5.203
 Vibration     3          0.596              1.977              4.739
 Vibration     4          0.602              1.956              3.652
 Vibration     5          0.611              1.924              2.965
 Vibration     6          0.616              1.910              2.757
 Vibration     7          0.619              1.899              2.625
 Vibration     8          0.636              1.845              2.166
 Vibration     9          0.642              1.827              2.050
 Vibration    10          0.668              1.745              1.660
 Vibration    11          0.672              1.736              1.623
 Vibration    12          0.682              1.705              1.515
 Vibration    13          0.688              1.686              1.454
 Vibration    14          0.721              1.591              1.202
 Vibration    15          0.735              1.554              1.121
 Vibration    16          0.775              1.448              0.925
 Vibration    17          0.781              1.430              0.898
 Vibration    18          0.826              1.319              0.740
 Vibration    19          0.851              1.260              0.670
 Vibration    20          0.864              1.230              0.636
 Vibration    21          0.945              1.057              0.471
 Vibration    22          0.965              1.018              0.439
 Vibration    23          0.974              1.002              0.426

                           ! Non-Optimized Parameters !
 Normal termination of Gaussian 16 at Wed Dec  9 23:49:42 2020.

 ----------------------------------------------------------------------
 # B3LYP/6-311++G(d,p) empiricaldispersion=gd3bj scf=xqc pop=npa geom=c
 heck
 ----------------------------------------------------------------------

 --------------------------------------
 CID_82721079_JID_3566_Energie_neutraal
 --------------------------------------
 Structure from the checkpoint file:  "JID_3566.chk"
 Charge =  0 Multiplicity = 1

 SCF Done:  E(RB3LYP) =  -668.529224499     A.U. after   15 cycles
 Normal termination of Gaussian 16 at Wed Dec  9 23:52:24 2020.

 ----------------------------------------------------------------------
 # B3LYP/6-311++G(d,p) empiricaldispersion=gd3bj scf=xqc pop=npa geom=c
 heck
 ----------------------------------------------------------------------

 ------------------------------------
 CID_82721079_JID_3566_Energie_kation
 ------------------------------------
 Structure from the checkpoint file:  "JID_3566.chk"
 Charge =  1 Multiplicity = 2

 SCF Done:  E(UB3LYP) =  -668.182123522     A.U. after   30 cycles
 Normal termination of Gaussian 16 at Thu Dec 10 00:00:02 2020.
 Gaussian 16:  ES64L-G16RevA.03 25-Dec-2016

 ----------------------------------------------------------------------
 # B3LYP/6-311++G(d,p) empiricaldispersion=gd3bj scf=xqc pop=npa geom=c
 heck
 ----------------------------------------------------------------------

 -----------------------------------
 CID_82721079_JID_3566_Energie_anion
 -----------------------------------
 Structure from the checkpoint file:  "JID_3566.chk"
 Charge = -1 Multiplicity = 2

                         Standard orientation:
 ---------------------------------------------------------------------
 Center     Atomic      Atomic             Coordinates (Angstroms)
 Number     Number       Type             X           Y           Z
 ---------------------------------------------------------------------
      1          6           0        3.519655   -0.207534    0.203724
      2          6           0        2.101227   -0.774143    0.129304
      3          6           0        2.077372   -2.131304   -0.569266
      4          6           0        1.448537   -0.838856    1.508535
      5          8           0        1.297796    0.056020   -0.782048
      6          7           0        1.173127    1.372519   -0.331463
      7          6           0       -0.069697    1.943092   -0.131127
      8          8           0       -0.162619    3.164673   -0.103791
      9          6           0       -1.271706    1.102654    0.130342
     10          6           0       -1.544771   -0.115332   -0.357302
     11          6           0       -2.820928   -0.821924   -0.109806
     12          8           0       -3.051806   -1.946849   -0.505544
     13          8           0       -3.715217   -0.103987    0.615110
     14          1           0        4.160566   -0.867935    0.796743
     15          1           0        3.524605    0.778075    0.679817
     16          1           0        3.951089   -0.119624   -0.799155
     17          1           0        2.670545   -2.855036   -0.001685
     18          1           0        1.053179   -2.510070   -0.644693
     19          1           0        2.495057   -2.053439   -1.577764
     20          1           0        1.374512    0.158955    1.949971
     21          1           0        0.445086   -1.268413    1.446251
     22          1           0        2.051593   -1.462829    2.176487
     23          1           0        1.838311    1.999303   -0.776668
     24          1           0       -2.022843    1.636668    0.704349
     25          1           0       -0.839221   -0.665401   -0.963623
     26          1           0       -4.497736   -0.676669    0.713976
 ---------------------------------------------------------------------

 SCF Done:  E(UB3LYP) =  -668.555934624     A.U. after   26 cycles

 The electronic state is 2-A.
 Alpha  occ. eigenvalues --  -19.03936 -19.00747 -18.93058 -18.92489 -14.23124
 Alpha  occ. eigenvalues --  -10.12887 -10.11483 -10.10218 -10.06843 -10.06379
 Alpha  occ. eigenvalues --  -10.04932  -9.99205  -9.98970  -0.96354  -0.94212
 Alpha  occ. eigenvalues --   -0.87418  -0.84756  -0.73788  -0.66749  -0.62006
 Alpha  occ. eigenvalues --   -0.59901  -0.58929  -0.51300  -0.47043  -0.44126
 Alpha  occ. eigenvalues --   -0.42157  -0.39531  -0.36612  -0.35071  -0.33164
 Alpha  occ. eigenvalues --   -0.32426  -0.32423  -0.30551  -0.29599  -0.29138
 Alpha  occ. eigenvalues --   -0.28632  -0.27374  -0.26989  -0.26333  -0.25117
 Alpha  occ. eigenvalues --   -0.24797  -0.23445  -0.23132  -0.20456  -0.16942
 Alpha  occ. eigenvalues --   -0.16707  -0.12572  -0.11805  -0.11575  -0.09771
 Alpha  occ. eigenvalues --    0.04210
 Alpha virt. eigenvalues --    0.07026   0.09223   0.09645   0.10210   0.10950
 Alpha virt. eigenvalues --    0.12095   0.12369   0.13309   0.13686   0.14555
 Alpha virt. eigenvalues --    0.15734   0.15863   0.16536   0.16903   0.17388

  Beta  occ. eigenvalues --  -19.03932 -19.00699 -18.92681 -18.92141 -14.23078
  Beta  occ. eigenvalues --  -10.12887 -10.11283 -10.10055 -10.06840 -10.06377
  Beta  occ. eigenvalues --  -10.04931  -9.98848  -9.98684  -0.96305  -0.93938
  Beta  occ. eigenvalues --   -0.86849  -0.84214  -0.73684  -0.66649  -0.61154
  Beta  occ. eigenvalues --   -0.59861  -0.58920  -0.50368  -0.46974  -0.43890
  Beta  occ. eigenvalues --   -0.41642  -0.39473  -0.36538  -0.35021  -0.32658
  Beta  occ. eigenvalues --   -0.32376  -0.32180  -0.30288  -0.29554  -0.28944
  Beta  occ. eigenvalues --   -0.27426  -0.27191  -0.26915  -0.26015  -0.25090
  Beta  occ. eigenvalues --   -0.24252  -0.23134  -0.22629  -0.19976  -0.16662
  Beta  occ. eigenvalues --   -0.15536  -0.11824  -0.11059  -0.09784  -0.08671
  Beta virt. eigenvalues --    0.06996   0.09189   0.09613   0.10205   0.10868
  Beta virt. eigenvalues --    0.11346   0.12069   0.12402   0.13300   0.13676
  Beta virt. eigenvalues --    0.14552   0.15719   0.15991   0.16632   0.16910

 Mulliken charges and spin densities:
               1          2
     1  C   -0.515154  -0.029124
     2  C    0.145875   0.043505
     3  C   -0.452040  -0.010349
     4  C   -0.528623  -0.012683
     5  O    0.115758  -0.004881
     6  N   -0.365754   0.015294
     7  C   -0.338514   0.115459
     8  O   -0.413567   0.114817
     9  C    0.003154   0.296782
    10  C    0.017835   0.193692
    11  C   -0.248458   0.163137
    12  O   -0.412687   0.119531
    13  O   -0.222336   0.011930
    14  H    0.117933   0.004433
    15  H    0.151315   0.010061
    16  H    0.134892   0.000368
    17  H    0.112096   0.003685
    18  H    0.177537  -0.001587
    19  H    0.140454   0.003531
    20  H    0.164323  -0.001456
    21  H    0.180819   0.004673
    22  H    0.129812  -0.007324
    23  H    0.269956   0.005783
    24  H    0.219559  -0.016499
    25  H    0.177633  -0.022295
    26  H    0.238177  -0.000483
 Sum of Mulliken charges =  -1.00000   1.00000

 Dipole moment (field-independent basis, Debye):
    X=              7.2860    Y=             -3.4237    Z=              1.4958  Tot=              8.1881
 Quadrupole moment (field-independent basis, Debye-Ang):
   XX=            -98.8089   YY=           -115.4398   ZZ=            -85.3381
   XY=             -6.0998   XZ=             -4.8091   YZ=             -3.8864

 Summary of Natural Population Analysis:

                                       Natural Population
                Natural  -----------------------------------------------
    Atom  No    Charge         Core      Valence    Rydberg      Total
 -----------------------------------------------------------------------
      C    1   -0.30086      0.99961     2.29593    0.00532     3.30086
      C    2    0.13681      0.99956     1.85188    0.01175     2.86319
      C    3   -0.29271      0.99960     2.28717    0.00594     3.29271
      C    4   -0.30350      0.99960     2.29784    0.00606     3.30350
      O    5   -0.23223      0.99987     3.21951    0.01285     4.23223
      N    6   -0.17738      0.99963     2.66109    0.01667     3.67738
      C    7    0.33897      0.99966     1.64009    0.02128     2.66103
      O    8   -0.29404      0.99988     3.28765    0.00651     4.29404
      C    9   -0.05440      0.99950     2.04493    0.00997     3.05440
      C   10   -0.09729      0.99948     2.08843    0.00939     3.09729
      C   11    0.40683      0.99969     1.56919    0.02429     2.59317
      O   12   -0.29909      0.99987     3.29236    0.00686     4.29909
      O   13   -0.35676      0.99988     3.34857    0.00831     4.35676
      H   14    0.09663      0.00000     0.40257    0.00080     0.40337
      H   15    0.10590      0.00000     0.39317    0.00093     0.39410
      H   16    0.09857      0.00000     0.40046    0.00097     0.40143
      H   17    0.09490      0.00000     0.40434    0.00075     0.40510
      H   18    0.11183      0.00000     0.38729    0.00088     0.38817
      H   19    0.10011      0.00000     0.39899    0.00090     0.39989
      H   20    0.11117      0.00000     0.38799    0.00084     0.38883
      H   21    0.11542      0.00000     0.38370    0.00089     0.38458
      H   22    0.09165      0.00000     0.40750    0.00085     0.40835
      H   23    0.17594      0.00000     0.32208    0.00197     0.32406
      H   24    0.09899      0.00000     0.39980    0.00121     0.40101
      H   25    0.09912      0.00000     0.39939    0.00149     0.40088
      H   26    0.22542      0.00000     0.26920    0.00538     0.27458
 =======================================================================
   * Total *    0.00000     12.99583    36.84114    0.16303    50.00000

 Normal termination of Gaussian 16 at Thu Dec 10 00:06:36 2020.
