 Gaussian 16, Revision A.03,

 -----------------------------------------------------------
 # opt freq B3LYP/6-31G(d) empiricaldispersion=gd3bj scf=xqc
 -----------------------------------------------------------

 ------------------------------
 CID_13439801_JID_1103_neutraal
 ------------------------------
 Symbolic Z-matrix:
 Charge =  0 Multiplicity = 1

 SCF Done:  E(RB3LYP) =  -940.882488236     A.U. after   15 cycles
 SCF Done:  E(RB3LYP) =  -940.891433676     A.U. after   13 cycles
 SCF Done:  E(RB3LYP) =  -940.892580667     A.U. after   11 cycles
 SCF Done:  E(RB3LYP) =  -940.892809754     A.U. after   11 cycles
 SCF Done:  E(RB3LYP) =  -940.892950133     A.U. after   11 cycles
 SCF Done:  E(RB3LYP) =  -940.893077615     A.U. after   12 cycles
 SCF Done:  E(RB3LYP) =  -940.893195616     A.U. after   12 cycles
 SCF Done:  E(RB3LYP) =  -940.893218716     A.U. after   10 cycles
 SCF Done:  E(RB3LYP) =  -940.893221328     A.U. after    9 cycles
 SCF Done:  E(RB3LYP) =  -940.893221709     A.U. after    8 cycles
 Optimization completed.
    -- Stationary point found.
 Normal termination of Gaussian 16 at Tue Dec  8 19:11:19 2020.

 --------------------------------------------------------------------
 #N Geom=AllCheck Guess=TCheck SCRF=Check GenChk RB3LYP/6-31G(d) Freq
 --------------------------------------------------------------------

 Structure from the checkpoint file:  "JID_1103.chk"
 ------------------------------
 CID_13439801_JID_1103_neutraal
 ------------------------------
 Charge =  0 Multiplicity = 1

 SCF Done:  E(RB3LYP) =  -940.893221709     A.U. after    1 cycles

  Exact polarizability: 110.356   0.001  87.760  -0.154   0.000  53.613
 Approx polarizability: 175.019   0.002 128.474   4.029  -0.000  90.774

                      1                      2                      3
                      A                      A                      A
 Frequencies --     63.6616               137.2870               142.9050
 Red. masses --      5.1982                 5.2886                 4.7790
 Frc consts  --      0.0124                 0.0587                 0.0575
 IR Inten    --      0.5538                 0.5628                 1.2037

                      4                      5                      6
                      A                      A                      A
 Frequencies --    196.8929               197.4167               315.3167
 Red. masses --      1.1524                 3.9511                 7.6251
 Frc consts  --      0.0263                 0.0907                 0.4467
 IR Inten    --      0.0477                 4.3526                 0.7723

                      7                      8                      9
                      A                      A                      A
 Frequencies --    347.7288               356.2787               371.1556
 Red. masses --     10.0641                 3.7386                 2.2316
 Frc consts  --      0.7170                 0.2796                 0.1811
 IR Inten    --      7.9656                 0.6707                 6.5624

                     10                     11                     12
                      A                      A                      A
 Frequencies --    396.7865               432.6479               444.6574
 Red. masses --      4.6200                 1.3409                 1.0919
 Frc consts  --      0.4286                 0.1479                 0.1272
 IR Inten    --      5.7068                 4.8380               151.2098

                     13                     14                     15
                      A                      A                      A
 Frequencies --    492.3906               501.6798               526.8761
 Red. masses --      8.2076                 5.8111                 9.3713
 Frc consts  --      1.1724                 0.8617                 1.5327
 IR Inten    --     23.6849                31.4790                26.7059

                     16                     17                     18
                      A                      A                      A
 Frequencies --    556.9591               626.4851               626.5810
 Red. masses --      4.8621                 9.8426                 1.9869
 Frc consts  --      0.8886                 2.2760                 0.4596
 IR Inten    --      5.3324               100.8276                71.9728

                     19                     20                     21
                      A                      A                      A
 Frequencies --    654.6706               708.4892               710.2422
 Red. masses --      1.6659                 2.5427                 6.5694
 Frc consts  --      0.4207                 0.7520                 1.9525
 IR Inten    --    158.6995               239.5374                27.0304

                     22                     23                     24
                      A                      A                      A
 Frequencies --    766.9056               821.3495               849.5404
 Red. masses --      3.3533                 5.5254                 4.5720
 Frc consts  --      1.1620                 2.1962                 1.9441
 IR Inten    --    133.8996                36.1034                14.5680

                     25                     26                     27
                      A                      A                      A
 Frequencies --   1037.5786              1144.2254              1159.2493
 Red. masses --      2.2371                 4.3670                 1.3871
 Frc consts  --      1.4190                 3.3686                 1.0982
 IR Inten    --     66.1761               156.7985                34.6228

                     28                     29                     30
                      A                      A                      A
 Frequencies --   1169.7977              1177.3457              1238.8948
 Red. masses --      1.9250                 2.0941                 1.8288
 Frc consts  --      1.5521                 1.7102                 1.6538
 IR Inten    --     13.4044               170.6915                15.6294

                     31                     32                     33
                      A                      A                      A
 Frequencies --   1262.0849              1357.0783              1412.6234
 Red. masses --      8.2791                18.6029                 2.4232
 Frc consts  --      7.7698                20.1855                 2.8489
 IR Inten    --     13.5316               207.2875                12.0881

                     34                     35                     36
                      A                      A                      A
 Frequencies --   1434.6660              1502.1173              1529.9984
 Red. masses --      4.7532                 1.4756                 1.0600
 Frc consts  --      5.7642                 1.9617                 1.4620
 IR Inten    --    346.8943                13.0284                19.1503

                     37                     38                     39
                      A                      A                      A
 Frequencies --   1548.3531              1600.0651              1658.2810
 Red. masses --      1.0978                 3.0533                 1.3215
 Frc consts  --      1.5506                 4.6057                 2.1411
 IR Inten    --     33.9214                16.9446                82.5493

                     40                     41                     42
                      A                      A                      A
 Frequencies --   1685.0627              1748.5597              3038.0787
 Red. masses --      1.4639                 4.8409                 1.0526
 Frc consts  --      2.4489                 8.7204                 5.7242
 IR Inten    --    199.0385               702.9344                46.3867

                     43                     44                     45
                      A                      A                      A
 Frequencies --   3145.8485              3190.7615              3549.9639
 Red. masses --      1.0827                 1.1062                 1.0477
 Frc consts  --      6.3127                 6.6353                 7.7793
 IR Inten    --      6.4598                 0.2574                59.3163

                     46                     47                     48
                      A                      A                      A
 Frequencies --   3550.7768              3656.9072              3657.0935
 Red. masses --      1.0478                 1.0996                 1.0994
 Frc consts  --      7.7835                 8.6636                 8.6635
 IR Inten    --     19.6535                45.8488                25.0128

 - Thermochemistry -
 -------------------
 Temperature   298.150 Kelvin.  Pressure   1.00000 Atm.
 Atom     1 has atomic number  6 and mass  12.00000

 Molecular mass:   177.03205 amu.
 Principal axes and moments of inertia in atomic units:
                           1         2         3
     Eigenvalues --  1170.914051942.098902677.48573
           X            1.00000   0.00001   0.00220
           Y           -0.00001   1.00000   0.00000
           Z           -0.00220  -0.00000   1.00000
 This molecule is an asymmetric top.
 Rotational symmetry number  1.
 Warning -- assumption of classical behavior for rotation
           may cause significant error
 Rotational temperatures (Kelvin)      0.07397     0.04460     0.03235
 Rotational constants (GHZ):           1.54131     0.92927     0.67404
 Zero-point vibrational energy     351105.9 (Joules/Mol)
                                   83.91631 (Kcal/Mol)
 Warning -- explicit consideration of  16 degrees of freedom as
           vibrations may cause significant error
 Vibrational temperatures:     91.59   197.53   205.61   283.28   284.04
          (Kelvin)            453.67   500.30   512.61   534.01   570.89
                              622.48   639.76   708.44   721.81   758.06
                              801.34   901.37   901.51   941.92  1019.36
                             1021.88  1103.41  1181.74  1222.30  1492.84
                             1646.29  1667.90  1683.08  1693.94  1782.49
                             1815.86  1952.53  2032.45  2064.16  2161.21
                             2201.33  2227.73  2302.14  2385.90  2424.43
                             2515.79  4371.12  4526.17  4590.79  5107.61
                             5108.78  5261.47  5261.74

 Zero-point correction=                           0.133729 (Hartree/Particle)
 Thermal correction to Energy=                    0.144032
 Thermal correction to Enthalpy=                  0.144976
 Thermal correction to Gibbs Free Energy=         0.098173
 Sum of electronic and zero-point Energies=           -940.759493
 Sum of electronic and thermal Energies=              -940.749190
 Sum of electronic and thermal Enthalpies=            -940.748246
 Sum of electronic and thermal Free Energies=         -940.795049

                     E (Thermal)             CV                S
                      KCal/Mol        Cal/Mol-Kelvin    Cal/Mol-Kelvin
 Total                   90.381             39.528             98.504
 Electronic               0.000              0.000              0.000
 Translational            0.889              2.981             41.421
 Rotational               0.889              2.981             30.188
 Vibrational             88.604             33.567             26.896
 Vibration     1          0.597              1.972              4.340
 Vibration     2          0.614              1.916              2.841
 Vibration     3          0.616              1.910              2.765
 Vibration     4          0.636              1.844              2.162
 Vibration     5          0.637              1.843              2.157
 Vibration     6          0.703              1.644              1.334
 Vibration     7          0.725              1.580              1.176
 Vibration     8          0.732              1.562              1.138
 Vibration     9          0.743              1.531              1.075
 Vibration    10          0.763              1.477              0.975
 Vibration    11          0.794              1.399              0.850
 Vibration    12          0.804              1.373              0.812
 Vibration    13          0.848              1.267              0.677
 Vibration    14          0.857              1.246              0.654
 Vibration    15          0.882              1.191              0.594
 Vibration    16          0.912              1.124              0.530

 Optimization completed.
    -- Stationary point found.
 Normal termination of Gaussian 16 at Tue Dec  8 19:14:35 2020.

 ----------------------------------------------------------------------
 # B3LYP/6-311++G(d,p) empiricaldispersion=gd3bj scf=xqc pop=npa geom=c
 heck
 ----------------------------------------------------------------------

 --------------------------------------
 CID_13439801_JID_1103_Energie_neutraal
 --------------------------------------
 Structure from the checkpoint file:  "JID_1103.chk"
 Charge =  0 Multiplicity = 1

 SCF Done:  E(RB3LYP) =  -941.088503072     A.U. after   14 cycles
 Normal termination of Gaussian 16 at Tue Dec  8 19:15:29 2020.

 ----------------------------------------------------------------------
 # B3LYP/6-311++G(d,p) empiricaldispersion=gd3bj scf=xqc pop=npa geom=c
 heck
 ----------------------------------------------------------------------

 ------------------------------------
 CID_13439801_JID_1103_Energie_kation
 ------------------------------------
 Structure from the checkpoint file:  "JID_1103.chk"
 Charge =  1 Multiplicity = 2

 SCF Done:  E(UB3LYP) =  -940.750216632     A.U. after   22 cycles
 Normal termination of Gaussian 16 at Tue Dec  8 19:17:33 2020.
 Gaussian 16:  ES64L-G16RevA.03 25-Dec-2016

 ----------------------------------------------------------------------
 # B3LYP/6-311++G(d,p) empiricaldispersion=gd3bj scf=xqc pop=npa geom=c
 heck
 ----------------------------------------------------------------------

 -----------------------------------
 CID_13439801_JID_1103_Energie_anion
 -----------------------------------
 Structure from the checkpoint file:  "JID_1103.chk"
 Charge = -1 Multiplicity = 2

                         Standard orientation:
 ---------------------------------------------------------------------
 Center     Atomic      Atomic             Coordinates (Angstroms)
 Number     Number       Type             X           Y           Z
 ---------------------------------------------------------------------
      1          6           0        2.732153    0.000023    0.506938
      2          7           0        1.341641   -0.000033    0.042452
      3          6           0        0.660636   -1.200127   -0.181552
      4          7           0       -0.617340   -1.323744   -0.317464
      5         16           0       -1.574724    0.000031    0.085268
      6          8           0       -1.780823    0.000106    1.532722
      7          8           0       -2.711549   -0.000002   -0.818412
      8          7           0       -0.617289    1.323739   -0.317607
      9          6           0        0.660681    1.200075   -0.181643
     10          7           0        1.455420    2.324636   -0.233981
     11          7           0        1.455326   -2.324744   -0.233967
     12          1           0        2.894991   -0.888865    1.116458
     13          1           0        2.894736    0.888546    1.117070
     14          1           0        3.448749    0.000410   -0.325599
     15          1           0        0.909767    3.151723   -0.447493
     16          1           0        2.315958    2.260863   -0.765000
     17          1           0        0.909555   -3.151780   -0.447394
     18          1           0        2.315683   -2.261018   -0.765294
 ---------------------------------------------------------------------

 SCF Done:  E(UB3LYP) =  -941.099120766     A.U. after   24 cycles

 The electronic state is 2-A.
 Alpha  occ. eigenvalues --  -88.96399 -19.00583 -19.00293 -14.29174 -14.24780
 Alpha  occ. eigenvalues --  -14.24779 -14.21613 -14.21613 -10.21431 -10.21431
 Alpha  occ. eigenvalues --  -10.11833  -8.02332  -5.98651  -5.98531  -5.98513
 Alpha  occ. eigenvalues --   -1.01914  -0.94566  -0.89861  -0.88246  -0.81975
 Alpha  occ. eigenvalues --   -0.81023  -0.77908  -0.63853  -0.58966  -0.57503
 Alpha  occ. eigenvalues --   -0.50764  -0.46696  -0.43899  -0.42716  -0.41154
 Alpha  occ. eigenvalues --   -0.39273  -0.39073  -0.37501  -0.35174  -0.33373
 Alpha  occ. eigenvalues --   -0.31164  -0.29704  -0.26723  -0.24111  -0.23082
 Alpha  occ. eigenvalues --   -0.21572  -0.21487  -0.20036  -0.17924  -0.16591
 Alpha  occ. eigenvalues --   -0.15894   0.02972
 Alpha virt. eigenvalues --    0.06362   0.07377   0.08341   0.09061   0.10533
 Alpha virt. eigenvalues --    0.11282   0.11983   0.12133   0.13236   0.14468
 Alpha virt. eigenvalues --    0.15326   0.16008   0.16562   0.17836   0.18244

  Beta  occ. eigenvalues --  -88.96396 -19.00582 -19.00290 -14.29172 -14.24703
  Beta  occ. eigenvalues --  -14.24702 -14.21609 -14.21608 -10.21424 -10.21423
  Beta  occ. eigenvalues --  -10.11733  -8.02328  -5.98648  -5.98526  -5.98508
  Beta  occ. eigenvalues --   -1.01904  -0.94534  -0.89855  -0.88183  -0.81948
  Beta  occ. eigenvalues --   -0.80924  -0.77844  -0.63734  -0.58907  -0.57435
  Beta  occ. eigenvalues --   -0.50721  -0.46586  -0.43811  -0.42622  -0.41078
  Beta  occ. eigenvalues --   -0.39205  -0.39010  -0.37469  -0.35139  -0.33299
  Beta  occ. eigenvalues --   -0.31092  -0.29661  -0.26696  -0.24097  -0.23060
  Beta  occ. eigenvalues --   -0.21560  -0.21465  -0.19971  -0.17912  -0.16552
  Beta  occ. eigenvalues --   -0.15881
  Beta virt. eigenvalues --    0.06451   0.07406   0.07694   0.08992   0.10264
  Beta virt. eigenvalues --    0.11382   0.11549   0.12424   0.12663   0.13987
  Beta virt. eigenvalues --    0.14834   0.15378   0.16225   0.17063   0.18074

 Mulliken charges and spin densities:
               1          2
     1  C    1.666329  -2.160619
     2  N   -0.369569   0.289814
     3  C    0.179212  -0.240320
     4  N   -0.286819  -0.020757
     5  S    0.540489  -0.049731
     6  O   -0.206637  -0.002886
     7  O   -0.187000   0.003077
     8  N   -0.286838  -0.020760
     9  C    0.179017  -0.240104
    10  N   -0.225144  -0.061654
    11  N   -0.225019  -0.061778
    12  H   -0.041657   0.224413
    13  H   -0.041988   0.224768
    14  H   -1.080481   1.329137
    15  H    0.098707   0.207037
    16  H   -0.405629   0.686632
    17  H    0.098814   0.206924
    18  H   -0.405786   0.686806
 Sum of Mulliken charges =  -1.00000   1.00000

 Dipole moment (field-independent basis, Debye):
    X=             -2.8517    Y=             -0.0006    Z=              2.1717  Tot=              3.5845
 Quadrupole moment (field-independent basis, Debye-Ang):
   XX=           -141.6278   YY=            -98.0654   ZZ=            -99.0522
   XY=             -0.0020   XZ=             10.2041   YZ=             -0.0014

 Summary of Natural Population Analysis:

                                       Natural Population
                Natural  -----------------------------------------------
    Atom  No    Charge         Core      Valence    Rydberg      Total
 -----------------------------------------------------------------------
      C    1   -0.18475      0.99963     2.17674    0.00838     3.18475
      N    2   -0.25390      0.99960     2.74242    0.01188     3.75390
      C    3    0.32310      0.99961     1.65922    0.01808     2.67690
      N    4   -0.39511      0.99962     2.88481    0.01067     3.89511
      S    5    1.15001      4.99933     1.73976    0.11089     6.84999
      O    6   -0.46046      0.99990     3.45556    0.00500     4.46046
      O    7   -0.45383      0.99990     3.44848    0.00545     4.45383
      N    8   -0.39511      0.99962     2.88481    0.01067     3.89511
      C    9    0.32309      0.99961     1.65922    0.01808     2.67691
      N   10   -0.39265      0.99970     2.88415    0.00879     3.89265
      N   11   -0.39266      0.99970     2.88416    0.00879     3.89266
      H   12    0.11046      0.00000     0.38788    0.00166     0.38954
      H   13    0.11045      0.00000     0.38788    0.00166     0.38955
      H   14    0.10827      0.00000     0.37801    0.01372     0.39173
      H   15    0.19845      0.00000     0.29974    0.00181     0.30155
      H   16    0.20309      0.00000     0.28741    0.00950     0.29691
      H   17    0.19845      0.00000     0.29974    0.00181     0.30155
      H   18    0.20309      0.00000     0.28741    0.00950     0.29691
 =======================================================================
   * Total *    0.00000     14.99623    30.74741    0.25636    46.00000

 Normal termination of Gaussian 16 at Tue Dec  8 19:19:50 2020.
