 Gaussian 16, Revision A.03,

 -----------------------------------------------------------
 # opt freq B3LYP/6-31G(d) empiricaldispersion=gd3bj scf=xqc
 -----------------------------------------------------------

 ------------------------------
 CID_62371975_JID_3842_neutraal
 ------------------------------
 Symbolic Z-matrix:
 Charge =  0 Multiplicity = 1

 SCF Done:  E(RB3LYP) =  -930.502108984     A.U. after   14 cycles
 SCF Done:  E(RB3LYP) =  -930.505924642     A.U. after   12 cycles
 SCF Done:  E(RB3LYP) =  -930.506072958     A.U. after   12 cycles
 SCF Done:  E(RB3LYP) =  -930.505596945     A.U. after   12 cycles
 SCF Done:  E(RB3LYP) =  -930.506423930     A.U. after   11 cycles
 SCF Done:  E(RB3LYP) =  -930.506502080     A.U. after   11 cycles
 SCF Done:  E(RB3LYP) =  -930.506555493     A.U. after   11 cycles
 SCF Done:  E(RB3LYP) =  -930.506614995     A.U. after   11 cycles
 SCF Done:  E(RB3LYP) =  -930.506629529     A.U. after   11 cycles
 SCF Done:  E(RB3LYP) =  -930.506679719     A.U. after   11 cycles
 SCF Done:  E(RB3LYP) =  -930.507066858     A.U. after    9 cycles
 SCF Done:  E(RB3LYP) =  -930.507068106     A.U. after    9 cycles
 SCF Done:  E(RB3LYP) =  -930.507068615     A.U. after    7 cycles
 SCF Done:  E(RB3LYP) =  -930.507068687     A.U. after    7 cycles
 SCF Done:  E(RB3LYP) =  -930.507068717     A.U. after    7 cycles
 SCF Done:  E(RB3LYP) =  -930.507068713     A.U. after    6 cycles
 Optimization completed.
    -- Stationary point found.
 Normal termination of Gaussian 16 at Sun Dec 13 20:15:22 2020.

 --------------------------------------------------------------------
 #N Geom=AllCheck Guess=TCheck SCRF=Check GenChk RB3LYP/6-31G(d) Freq
 --------------------------------------------------------------------

 Structure from the checkpoint file:  "JID_3842.chk"
 ------------------------------
 CID_62371975_JID_3842_neutraal
 ------------------------------
 Charge =  0 Multiplicity = 1

 SCF Done:  E(RB3LYP) =  -930.507068713     A.U. after    1 cycles

  Exact polarizability: 154.284   6.935 120.502   9.244  -3.912  91.824
 Approx polarizability: 200.635   6.446 188.786  24.050 -10.875 144.435

                      1                      2                      3
                      A                      A                      A
 Frequencies --     26.9628                29.2310                38.6696
 Red. masses --      1.2151                 2.9989                 3.3144
 Frc consts  --      0.0005                 0.0015                 0.0029
 IR Inten    --      0.0700                 0.8666                 0.4220

                      4                      5                      6
                      A                      A                      A
 Frequencies --     49.1556                62.9784               158.0537
 Red. masses --      2.8863                 3.5178                 3.9020
 Frc consts  --      0.0041                 0.0082                 0.0574
 IR Inten    --      0.2026                 0.6609                 3.6554

                      7                      8                      9
                      A                      A                      A
 Frequencies --    178.8408               200.2860               229.9744
 Red. masses --      3.8701                 4.1103                 3.2318
 Frc consts  --      0.0729                 0.0971                 0.1007
 IR Inten    --      4.4658                 2.5576                 0.4847

                     10                     11                     12
                      A                      A                      A
 Frequencies --    311.8322               320.3809               363.5769
 Red. masses --      3.7878                 2.8967                 2.6469
 Frc consts  --      0.2170                 0.1752                 0.2061
 IR Inten    --      2.2275                 4.6234                 1.3030

                     13                     14                     15
                      A                      A                      A
 Frequencies --    406.1757               438.7494               473.9198
 Red. masses --      2.1094                 6.1596                 7.2334
 Frc consts  --      0.2050                 0.6986                 0.9572
 IR Inten    --      2.6706                 4.1052                 1.2095

                     16                     17                     18
                      A                      A                      A
 Frequencies --    507.4217               590.0012               666.7759
 Red. masses --      1.4593                 2.2602                 3.2476
 Frc consts  --      0.2214                 0.4636                 0.8507
 IR Inten    --     74.3436                46.8387                 6.4103

                     19                     20                     21
                      A                      A                      A
 Frequencies --    682.2989               712.2680               733.4629
 Red. masses --      2.6083                 4.6687                 9.9245
 Frc consts  --      0.7154                 1.3955                 3.1457
 IR Inten    --     19.6729                 2.9362                 4.8762

                     22                     23                     24
                      A                      A                      A
 Frequencies --    745.0150               811.6188               840.1721
 Red. masses --      3.9323                 1.7493                 2.1342
 Frc consts  --      1.2860                 0.6789                 0.8876
 IR Inten    --     14.5148                 8.6781                17.1882

                     25                     26                     27
                      A                      A                      A
 Frequencies --    889.9189               924.0018               953.8354
 Red. masses --      2.1952                 2.0251                 1.8224
 Frc consts  --      1.0243                 1.0187                 0.9769
 IR Inten    --     50.4253                 9.3516                 6.2623

                     28                     29                     30
                      A                      A                      A
 Frequencies --    959.9278               992.5195               996.9030
 Red. masses --      2.4312                 2.1841                 3.5299
 Frc consts  --      1.3199                 1.2677                 2.0669
 IR Inten    --      3.4630                 4.7772                 6.7361

                     31                     32                     33
                      A                      A                      A
 Frequencies --   1016.9451              1043.3531              1074.0579
 Red. masses --      2.0163                 1.5773                 1.5318
 Frc consts  --      1.2286                 1.0116                 1.0412
 IR Inten    --      1.0829                 9.1391                 6.0044

                     34                     35                     36
                      A                      A                      A
 Frequencies --   1083.0616              1100.0058              1122.1453
 Red. masses --      5.0518                 1.8528                 2.2115
 Frc consts  --      3.4914                 1.3209                 1.6407
 IR Inten    --     11.3575                 1.4758                 2.7383

                     37                     38                     39
                      A                      A                      A
 Frequencies --   1146.0417              1149.0305              1184.4468
 Red. masses --      2.0353                 4.3378                 1.1423
 Frc consts  --      1.5750                 3.3743                 0.9442
 IR Inten    --     15.1021                21.9436                 2.8368

                     40                     41                     42
                      A                      A                      A
 Frequencies --   1221.5876              1260.5254              1262.2612
 Red. masses --      1.2578                 1.4092                 1.6781
 Frc consts  --      1.1058                 1.3192                 1.5753
 IR Inten    --      1.8452                26.2998                32.0845

                     43                     44                     45
                      A                      A                      A
 Frequencies --   1276.7284              1288.3894              1312.4518
 Red. masses --      1.8495                 1.3105                 1.3321
 Frc consts  --      1.7763                 1.2817                 1.3520
 IR Inten    --     41.7352                 3.1957                37.2497

                     46                     47                     48
                      A                      A                      A
 Frequencies --   1329.4711              1337.5092              1343.8932
 Red. masses --      1.4627                 1.4104                 2.0413
 Frc consts  --      1.5233                 1.4865                 2.1721
 IR Inten    --     27.6210                 2.1064                42.4371

                     49                     50                     51
                      A                      A                      A
 Frequencies --   1392.0061              1416.1122              1418.2568
 Red. masses --      1.3641                 3.2438                 1.4616
 Frc consts  --      1.5573                 3.8326                 1.7322
 IR Inten    --      0.8327                 7.9139                 5.0211

                     52                     53                     54
                      A                      A                      A
 Frequencies --   1447.4460              1452.9895              1477.8232
 Red. masses --      1.3786                 1.3849                 2.6958
 Frc consts  --      1.7017                 1.7226                 3.4689
 IR Inten    --      2.7822                 6.0232               110.8533

                     55                     56                     57
                      A                      A                      A
 Frequencies --   1485.0275              1504.7242              1527.5102
 Red. masses --      1.1020                 1.0641                 1.0852
 Frc consts  --      1.4319                 1.4195                 1.4918
 IR Inten    --      5.9742                 9.5661                 3.0750

                     58                     59                     60
                      A                      A                      A
 Frequencies --   1537.8185              1538.6573              1556.8778
 Red. masses --      1.3694                 1.0904                 1.1037
 Frc consts  --      1.9080                 1.5210                 1.5762
 IR Inten    --      5.5152                 2.5149                 1.4721

                     61                     62                     63
                      A                      A                      A
 Frequencies --   1592.4802              2935.4284              2942.5790
 Red. masses --      4.7252                 1.0743                 1.0741
 Frc consts  --      7.0602                 5.4541                 5.4799
 IR Inten    --     70.4359                48.0811               146.7055

                     64                     65                     66
                      A                      A                      A
 Frequencies --   3061.3835              3080.5231              3081.1617
 Red. masses --      1.0381                 1.0834                 1.0699
 Frc consts  --      5.7321                 6.0576                 5.9846
 IR Inten    --     17.2951                27.9226                21.6421

                     67                     68                     69
                      A                      A                      A
 Frequencies --   3087.2757              3091.2893              3113.4361
 Red. masses --      1.0690                 1.0750                 1.0902
 Frc consts  --      6.0030                 6.0527                 6.2265
 IR Inten    --     38.5607                22.4156                 3.2733

                     70                     71                     72
                      A                      A                      A
 Frequencies --   3123.1766              3127.6628              3148.5822
 Red. masses --      1.1000                 1.1014                 1.1061
 Frc consts  --      6.3220                 6.3482                 6.4605
 IR Inten    --     11.5996                32.3452                 7.9186

                     73                     74                     75
                      A                      A                      A
 Frequencies --   3149.7313              3507.5774              3654.8787
 Red. masses --      1.1022                 1.0749                 1.0817
 Frc consts  --      6.4426                 7.7916                 8.5134
 IR Inten    --      7.0198                 2.3810                71.0335

 - Thermochemistry -
 -------------------
 Temperature   298.150 Kelvin.  Pressure   1.00000 Atm.
 Atom     1 has atomic number  6 and mass  12.00000

 Molecular mass:   198.09392 amu.
 Principal axes and moments of inertia in atomic units:
                           1         2         3
     Eigenvalues --  1287.140264957.950765627.95876
           X            0.99991   0.01313  -0.00395
           Y           -0.01318   0.99982  -0.01388
           Z            0.00376   0.01394   0.99990
 This molecule is an asymmetric top.
 Rotational symmetry number  1.
 Warning -- assumption of classical behavior for rotation
           may cause significant error
 Rotational temperatures (Kelvin)      0.06729     0.01747     0.01539
 Rotational constants (GHZ):           1.40213     0.36401     0.32067
 Zero-point vibrational energy     599922.7 (Joules/Mol)
                                  143.38497 (Kcal/Mol)
 Warning -- explicit consideration of  17 degrees of freedom as
           vibrations may cause significant error
 Vibrational temperatures:     38.79    42.06    55.64    70.72    90.61
          (Kelvin)            227.40   257.31   288.17   330.88   448.66
                              460.96   523.11   584.40   631.26   681.86
                              730.07   848.88   959.34   981.68  1024.79
                             1055.29  1071.91  1167.74  1208.82  1280.39
                             1329.43  1372.36  1381.12  1428.01  1434.32
                             1463.16  1501.15  1545.33  1558.28  1582.66
                             1614.52  1648.90  1653.20  1704.15  1757.59
                             1813.61  1816.11  1836.93  1853.70  1888.33
                             1912.81  1924.38  1933.56  2002.79  2037.47
                             2040.56  2082.55  2090.53  2126.26  2136.62
                             2164.96  2197.75  2212.58  2213.78  2240.00
                             2291.22  4223.43  4233.71  4404.65  4432.19
                             4433.10  4441.90  4447.68  4479.54  4493.55
                             4500.01  4530.11  4531.76  5046.62  5258.56

 Zero-point correction=                           0.228499 (Hartree/Particle)
 Thermal correction to Energy=                    0.241612
 Thermal correction to Enthalpy=                  0.242556
 Thermal correction to Gibbs Free Energy=         0.185536
 Sum of electronic and zero-point Energies=           -930.278570
 Sum of electronic and thermal Energies=              -930.265457
 Sum of electronic and thermal Enthalpies=            -930.264513
 Sum of electronic and thermal Free Energies=         -930.321533

                     E (Thermal)             CV                S
                      KCal/Mol        Cal/Mol-Kelvin    Cal/Mol-Kelvin
 Total                  151.614             47.365            120.008
 Electronic               0.000              0.000              0.000
 Translational            0.889              2.981             41.756
 Rotational               0.889              2.981             31.952
 Vibrational            149.836             41.404             46.301
 Vibration     1          0.593              1.984              6.041
 Vibration     2          0.593              1.984              5.881
 Vibration     3          0.594              1.981              5.326
 Vibration     4          0.595              1.978              4.851
 Vibration     5          0.597              1.972              4.362
 Vibration     6          0.621              1.894              2.573
 Vibration     7          0.629              1.868              2.340
 Vibration     8          0.638              1.839              2.130
 Vibration     9          0.652              1.795              1.879
 Vibration    10          0.700              1.651              1.353
 Vibration    11          0.706              1.635              1.308
 Vibration    12          0.737              1.547              1.107
 Vibration    13          0.771              1.457              0.940
 Vibration    14          0.799              1.386              0.831
 Vibration    15          0.831              1.308              0.727
 Vibration    16          0.863              1.234              0.640
 Vibration    17          0.947              1.053              0.467

 Optimization completed.
    -- Stationary point found.
 Normal termination of Gaussian 16 at Sun Dec 13 20:21:31 2020.

 ----------------------------------------------------------------------
 # B3LYP/6-311++G(d,p) empiricaldispersion=gd3bj scf=xqc pop=npa geom=c
 heck
 ----------------------------------------------------------------------

 --------------------------------------
 CID_62371975_JID_3842_Energie_neutraal
 --------------------------------------
 Structure from the checkpoint file:  "JID_3842.chk"
 Charge =  0 Multiplicity = 1

 SCF Done:  E(RB3LYP) =  -930.683908064     A.U. after   15 cycles
 Normal termination of Gaussian 16 at Sun Dec 13 20:24:28 2020.

 ----------------------------------------------------------------------
 # B3LYP/6-311++G(d,p) empiricaldispersion=gd3bj scf=xqc pop=npa geom=c
 heck
 ----------------------------------------------------------------------

 ------------------------------------
 CID_62371975_JID_3842_Energie_kation
 ------------------------------------
 Structure from the checkpoint file:  "JID_3842.chk"
 Charge =  1 Multiplicity = 2

 SCF Done:  E(UB3LYP) =  -930.402396379     A.U. after   24 cycles
 Normal termination of Gaussian 16 at Sun Dec 13 20:31:20 2020.
 Gaussian 16:  ES64L-G16RevA.03 25-Dec-2016

 ----------------------------------------------------------------------
 # B3LYP/6-311++G(d,p) empiricaldispersion=gd3bj scf=xqc pop=npa geom=c
 heck
 ----------------------------------------------------------------------

 -----------------------------------
 CID_62371975_JID_3842_Energie_anion
 -----------------------------------
 Structure from the checkpoint file:  "JID_3842.chk"
 Charge = -1 Multiplicity = 2

                         Standard orientation:
 ---------------------------------------------------------------------
 Center     Atomic      Atomic             Coordinates (Angstroms)
 Number     Number       Type             X           Y           Z
 ---------------------------------------------------------------------
      1          6           0        3.569178    2.164764    0.004845
      2          6           0        2.905131    0.830056    0.054861
      3          7           0        1.702093    0.527429   -0.417256
      4          6           0        1.559143   -0.795776   -0.093302
      5          7           0        2.591340   -1.333254    0.548333
      6          7           0        3.444002   -0.270487    0.623931
      7         16           0        0.153424   -1.774687   -0.515216
      8          6           0       -1.000080   -0.450097   -1.049082
      9          6           0       -1.549567    0.425384    0.081048
     10          6           0       -2.375613   -0.378134    1.127273
     11          6           0       -3.826580    0.124521    0.963074
     12          7           0       -3.832841    0.672566   -0.396425
     13          6           0       -2.580234    1.423981   -0.489862
     14          1           0        3.149302    2.838315    0.760743
     15          1           0        4.646130    2.081903    0.180794
     16          1           0        3.408382    2.622372   -0.974666
     17          1           0        4.341442   -0.385163    1.072251
     18          1           0       -0.479791    0.159790   -1.790731
     19          1           0       -1.819939   -0.981164   -1.542743
     20          1           0       -0.712966    0.956392    0.540293
     21          1           0       -2.010176   -0.221816    2.145769
     22          1           0       -2.303820   -1.450594    0.925313
     23          1           0       -4.570615   -0.672688    1.063760
     24          1           0       -4.047101    0.889394    1.731333
     25          1           0       -4.645935    1.259882   -0.568100
     26          1           0       -2.578883    2.345706    0.122894
     27          1           0       -2.371245    1.710698   -1.526674
 ---------------------------------------------------------------------

 SCF Done:  E(UB3LYP) =  -930.676060332     A.U. after   32 cycles

 The electronic state is 2-A.
 Alpha  occ. eigenvalues --  -88.75584 -14.29137 -14.23656 -14.20739 -14.20608
 Alpha  occ. eigenvalues --  -10.15163 -10.14718 -10.10271 -10.10092 -10.09867
 Alpha  occ. eigenvalues --  -10.08144 -10.08141 -10.07331  -7.84220  -5.80618
 Alpha  occ. eigenvalues --   -5.80218  -5.79611  -0.97756  -0.83050  -0.80034
 Alpha  occ. eigenvalues --   -0.75380  -0.71033  -0.65582  -0.63743  -0.63049
 Alpha  occ. eigenvalues --   -0.56287  -0.52495  -0.50228  -0.48747  -0.46172
 Alpha  occ. eigenvalues --   -0.43766  -0.42914  -0.38495  -0.37592  -0.36089
 Alpha  occ. eigenvalues --   -0.34118  -0.33515  -0.31784  -0.31477  -0.31012
 Alpha  occ. eigenvalues --   -0.30047  -0.28278  -0.27298  -0.26102  -0.24684
 Alpha  occ. eigenvalues --   -0.24097  -0.23237  -0.21872  -0.21242  -0.18667
 Alpha  occ. eigenvalues --   -0.18334  -0.14185  -0.12292   0.03934
 Alpha virt. eigenvalues --    0.05351   0.07645   0.07931   0.08226   0.08899
 Alpha virt. eigenvalues --    0.09336   0.10223   0.10551   0.10733   0.11139
 Alpha virt. eigenvalues --    0.11384   0.12194   0.12715   0.13295   0.13479

  Beta  occ. eigenvalues --  -88.75583 -14.29076 -14.23652 -14.20720 -14.20597
  Beta  occ. eigenvalues --  -10.15165 -10.14718 -10.10266 -10.10076 -10.09850
  Beta  occ. eigenvalues --  -10.08141 -10.08069 -10.07327  -7.84219  -5.80617
  Beta  occ. eigenvalues --   -5.80216  -5.79610  -0.97724  -0.83026  -0.79988
  Beta  occ. eigenvalues --   -0.75346  -0.71009  -0.65553  -0.63689  -0.62979
  Beta  occ. eigenvalues --   -0.56256  -0.52404  -0.50179  -0.48724  -0.46150
  Beta  occ. eigenvalues --   -0.43688  -0.42861  -0.38479  -0.37556  -0.36055
  Beta  occ. eigenvalues --   -0.34078  -0.33471  -0.31739  -0.31409  -0.30979
  Beta  occ. eigenvalues --   -0.30010  -0.28254  -0.27275  -0.26087  -0.24668
  Beta  occ. eigenvalues --   -0.24077  -0.23213  -0.21855  -0.21217  -0.18658
  Beta  occ. eigenvalues --   -0.18320  -0.14145  -0.12279
  Beta virt. eigenvalues --    0.05985   0.07197   0.08065   0.08254   0.08893
  Beta virt. eigenvalues --    0.09422   0.09568   0.10352   0.10732   0.10973
  Beta virt. eigenvalues --    0.11491   0.11597   0.12329   0.13179   0.13397

 Mulliken charges and spin densities:
               1          2
     1  C    2.853080  -3.456199
     2  C   -1.218659   1.654627
     3  N    0.006106  -0.023472
     4  C   -0.651216   0.267131
     5  N   -0.057566   0.025042
     6  N    0.086040  -0.260566
     7  S   -0.101019  -0.031560
     8  C   -0.484918  -0.253322
     9  C    0.081167   0.569174
    10  C   -0.660972   0.093555
    11  C    0.202528  -0.626519
    12  N   -0.260447   0.142721
    13  C    0.398325  -0.951188
    14  H   -0.437509   0.615624
    15  H   -0.719048   0.880944
    16  H   -0.190964   0.357685
    17  H   -0.410765   0.777040
    18  H    0.198774   0.013077
    19  H    0.229963   0.000205
    20  H    0.413576  -0.162520
    21  H    0.002735   0.146494
    22  H    0.131160  -0.016055
    23  H   -0.000948   0.151165
    24  H   -0.128619   0.254593
    25  H   -0.018506   0.260873
    26  H   -0.296028   0.438866
    27  H    0.033730   0.132589
 Sum of Mulliken charges =  -1.00000   1.00000

 Dipole moment (field-independent basis, Debye):
    X=             -6.7702    Y=             -3.3602    Z=             -2.0780  Tot=              7.8387
 Quadrupole moment (field-independent basis, Debye-Ang):
   XX=           -188.0350   YY=           -128.0201   ZZ=           -112.1220
   XY=             -3.7522   XZ=             -8.3695   YZ=             -2.4383

 Summary of Natural Population Analysis:

                                       Natural Population
                Natural  -----------------------------------------------
    Atom  No    Charge         Core      Valence    Rydberg      Total
 -----------------------------------------------------------------------
      C    1   -0.30720      0.99963     2.30134    0.00622     3.30720
      C    2    0.20386      0.99963     1.78064    0.01588     2.79614
      N    3   -0.28633      0.99966     2.77636    0.01031     3.78633
      C    4    0.09148      0.99960     1.88623    0.02269     2.90852
      N    5   -0.17660      0.99968     2.66416    0.01276     3.67660
      N    6   -0.17516      0.99964     2.66204    0.01348     3.67516
      S    7    0.12241      4.99952     2.85930    0.01877     7.87759
      C    8   -0.24273      0.99955     2.23311    0.01007     3.24273
      C    9   -0.12672      0.99958     2.11500    0.01214     3.12672
      C   10   -0.19538      0.99962     2.18686    0.00890     3.19538
      C   11   -0.08985      0.99964     2.07905    0.01116     3.08985
      N   12   -0.34540      0.99975     2.83385    0.01179     3.84540
      C   13   -0.08643      0.99961     2.07450    0.01231     3.08643
      H   14    0.11424      0.00000     0.38391    0.00185     0.38576
      H   15    0.11385      0.00000     0.38057    0.00558     0.38615
      H   16    0.11320      0.00000     0.38557    0.00122     0.38680
      H   17    0.21054      0.00000     0.27988    0.00959     0.28946
      H   18    0.11319      0.00000     0.38527    0.00155     0.38681
      H   19    0.10868      0.00000     0.39009    0.00123     0.39132
      H   20    0.11216      0.00000     0.38605    0.00179     0.38784
      H   21    0.10249      0.00000     0.39659    0.00092     0.39751
      H   22    0.10071      0.00000     0.39799    0.00130     0.39929
      H   23    0.09181      0.00000     0.40724    0.00095     0.40819
      H   24    0.07858      0.00000     0.41969    0.00173     0.42142
      H   25    0.17593      0.00000     0.32109    0.00299     0.32407
      H   26    0.08345      0.00000     0.41489    0.00166     0.41655
      H   27    0.09522      0.00000     0.40359    0.00118     0.40478
 =======================================================================
   * Total *   -0.00000     16.99511    35.80488    0.20001    53.00000

 Normal termination of Gaussian 16 at Sun Dec 13 20:40:00 2020.
