 Gaussian 16, Revision A.03,

 -----------------------------------------------------------
 # opt freq B3LYP/6-31G(d) empiricaldispersion=gd3bj scf=xqc
 -----------------------------------------------------------

 -------------------------------
 CID_151223387_JID_8901_neutraal
 -------------------------------
 Symbolic Z-matrix:
 Charge =  0 Multiplicity = 1

 SCF Done:  E(RB3LYP) =  -895.782784059     A.U. after   15 cycles
 SCF Done:  E(RB3LYP) =  -895.787432459     A.U. after   15 cycles
 SCF Done:  E(RB3LYP) =  -895.790204087     A.U. after   14 cycles
 SCF Done:  E(RB3LYP) =  -895.790504325     A.U. after   14 cycles
 SCF Done:  E(RB3LYP) =  -895.792170344     A.U. after   14 cycles
 SCF Done:  E(RB3LYP) =  -895.791994917     A.U. after   15 cycles
 SCF Done:  E(RB3LYP) =  -895.793298082     A.U. after   13 cycles
 SCF Done:  E(RB3LYP) =  -895.793838293     A.U. after   13 cycles
 SCF Done:  E(RB3LYP) =  -895.793930641     A.U. after   13 cycles
 SCF Done:  E(RB3LYP) =  -895.794157338     A.U. after   12 cycles
 SCF Done:  E(RB3LYP) =  -895.794595888     A.U. after   11 cycles
 SCF Done:  E(RB3LYP) =  -895.794600489     A.U. after   11 cycles
 SCF Done:  E(RB3LYP) =  -895.794601575     A.U. after    9 cycles
 SCF Done:  E(RB3LYP) =  -895.794602096     A.U. after    8 cycles
 SCF Done:  E(RB3LYP) =  -895.794602117     A.U. after    8 cycles
 Optimization completed.
    -- Stationary point found.
 Normal termination of Gaussian 16 at Fri Dec 11 23:08:15 2020.

 --------------------------------------------------------------------
 #N Geom=AllCheck Guess=TCheck SCRF=Check GenChk RB3LYP/6-31G(d) Freq
 --------------------------------------------------------------------

 Structure from the checkpoint file:  "JID_8901.chk"
 -------------------------------
 CID_151223387_JID_8901_neutraal
 -------------------------------
 Charge =  0 Multiplicity = 1

 SCF Done:  E(RB3LYP) =  -895.794602117     A.U. after    1 cycles

  Exact polarizability: 166.499  -3.546 125.418 -20.023   0.611 134.406
 Approx polarizability: 220.191  -3.180 181.202 -51.081   3.938 242.091

                      1                      2                      3
                      A                      A                      A
 Frequencies --     15.8535                29.5640                40.1638
 Red. masses --      4.3923                 5.8030                 4.7748
 Frc consts  --      0.0007                 0.0030                 0.0045
 IR Inten    --      0.8899                 0.6057                 1.1369

                      4                      5                      6
                      A                      A                      A
 Frequencies --     44.5861                57.7914                66.5961
 Red. masses --      3.9228                 3.4329                 4.3047
 Frc consts  --      0.0046                 0.0068                 0.0112
 IR Inten    --      0.1885                 0.3834                 2.6360

                      7                      8                      9
                      A                      A                      A
 Frequencies --     78.9166                95.9531               107.2890
 Red. masses --      8.6998                 4.2575                 5.4364
 Frc consts  --      0.0319                 0.0231                 0.0369
 IR Inten    --      0.1860                 1.7151                 0.1229

                     10                     11                     12
                      A                      A                      A
 Frequencies --    122.5067               130.0315               152.2036
 Red. masses --      4.0684                 3.6440                 4.5201
 Frc consts  --      0.0360                 0.0363                 0.0617
 IR Inten    --      0.8413                 0.7727                 1.0388

                     13                     14                     15
                      A                      A                      A
 Frequencies --    156.3086               221.1189               229.8456
 Red. masses --      4.3665                 1.9609                 1.3704
 Frc consts  --      0.0629                 0.0565                 0.0427
 IR Inten    --      2.3281                 4.0815                 1.7121

                     16                     17                     18
                      A                      A                      A
 Frequencies --    241.6936               253.2415               300.0417
 Red. masses --      1.7678                 3.2537                 2.2023
 Frc consts  --      0.0608                 0.1229                 0.1168
 IR Inten    --      1.1234                 5.3127                 0.8358

                     19                     20                     21
                      A                      A                      A
 Frequencies --    323.6212               328.7469               356.6509
 Red. masses --      2.5414                 2.1929                 3.1252
 Frc consts  --      0.1568                 0.1396                 0.2342
 IR Inten    --     14.5947                 1.8831                 5.8552

                     22                     23                     24
                      A                      A                      A
 Frequencies --    375.7233               407.0762               441.8303
 Red. masses --      3.0074                 3.3116                 3.9958
 Frc consts  --      0.2501                 0.3233                 0.4596
 IR Inten    --      5.7832                 6.3369                10.3323

                     25                     26                     27
                      A                      A                      A
 Frequencies --    463.8872               489.2625               554.3335
 Red. masses --      2.7704                 3.5554                 2.7068
 Frc consts  --      0.3513                 0.5014                 0.4901
 IR Inten    --      5.6630                 3.0242                 4.0995

                     28                     29                     30
                      A                      A                      A
 Frequencies --    560.8871               626.7452               640.3377
 Red. masses --     13.6566                 3.5810                 4.2571
 Frc consts  --      2.5313                 0.8288                 1.0284
 IR Inten    --     12.2326                 0.5308                 8.1355

                     31                     32                     33
                      A                      A                      A
 Frequencies --    649.4203               723.0128               753.5007
 Red. masses --      4.9565                 2.3786                 3.2339
 Frc consts  --      1.2316                 0.7326                 1.0818
 IR Inten    --      2.8598                 4.3632                13.0020

                     34                     35                     36
                      A                      A                      A
 Frequencies --    784.0325               802.0257               823.3620
 Red. masses --      1.8715                 1.3726                 1.8395
 Frc consts  --      0.6778                 0.5202                 0.7347
 IR Inten    --     12.7169                 2.4427                 5.0383

                     37                     38                     39
                      A                      A                      A
 Frequencies --    849.4839               866.4275               874.0072
 Red. masses --      2.8036                 2.4597                 2.7274
 Frc consts  --      1.1920                 1.0879                 1.2275
 IR Inten    --     10.9515                10.5400                 9.0089

                     40                     41                     42
                      A                      A                      A
 Frequencies --    904.1377               916.6113               935.1359
 Red. masses --      2.8407                 2.3715                 2.5269
 Frc consts  --      1.3682                 1.1739                 1.3019
 IR Inten    --      2.7433                 1.8474                 1.3472

                     43                     44                     45
                      A                      A                      A
 Frequencies --    976.2307              1002.2637              1023.0148
 Red. masses --      2.0642                 2.6072                 2.1011
 Frc consts  --      1.1591                 1.5431                 1.2956
 IR Inten    --      0.8759                10.8991                 8.1330

                     46                     47                     48
                      A                      A                      A
 Frequencies --   1034.1093              1060.2452              1066.3753
 Red. masses --      2.4181                 3.4310                 3.4592
 Frc consts  --      1.5236                 2.2724                 2.3176
 IR Inten    --     13.5078                63.3910                29.0184

                     49                     50                     51
                      A                      A                      A
 Frequencies --   1114.7297              1131.5573              1133.3625
 Red. masses --      2.3335                 1.9728                 1.9810
 Frc consts  --      1.7084                 1.4883                 1.4992
 IR Inten    --     81.2375                42.8735                34.7821

                     52                     53                     54
                      A                      A                      A
 Frequencies --   1146.5735              1175.5243              1208.6615
 Red. masses --      2.3197                 1.5937                 1.6958
 Frc consts  --      1.7968                 1.2975                 1.4596
 IR Inten    --      1.8038                45.6757                 4.5114

                     55                     56                     57
                      A                      A                      A
 Frequencies --   1210.8418              1220.6977              1252.9563
 Red. masses --      1.7186                 1.4778                 2.0814
 Frc consts  --      1.4846                 1.2975                 1.9252
 IR Inten    --      1.0585                17.1849               360.9701

                     58                     59                     60
                      A                      A                      A
 Frequencies --   1268.6620              1277.0473              1301.5087
 Red. masses --      1.3643                 1.6155                 1.7197
 Frc consts  --      1.2938                 1.5523                 1.7163
 IR Inten    --     10.6157                94.7275                61.7506

                     61                     62                     63
                      A                      A                      A
 Frequencies --   1331.7295              1342.3861              1343.8507
 Red. masses --      1.5303                 1.1289                 1.1478
 Frc consts  --      1.5990                 1.1985                 1.2213
 IR Inten    --     19.9968                14.6686                27.9233

                     64                     65                     66
                      A                      A                      A
 Frequencies --   1356.2614              1376.2735              1390.5476
 Red. masses --      1.3173                 3.1563                 1.4146
 Frc consts  --      1.4277                 3.5224                 1.6116
 IR Inten    --      4.8327                95.1340                52.4378

                     67                     68                     69
                      A                      A                      A
 Frequencies --   1404.2770              1405.9875              1420.2781
 Red. masses --      1.3615                 1.4002                 1.2928
 Frc consts  --      1.5819                 1.6308                 1.5364
 IR Inten    --     11.9067                17.7746                 9.7621

                     70                     71                     72
                      A                      A                      A
 Frequencies --   1421.2248              1426.6125              1443.5479
 Red. masses --      1.3428                 1.4661                 1.3271
 Frc consts  --      1.5981                 1.7581                 1.6293
 IR Inten    --     21.5922                 0.5164                 9.2816

                     73                     74                     75
                      A                      A                      A
 Frequencies --   1444.4644              1505.3646              1513.7637
 Red. masses --      1.3325                 1.0926                 1.0905
 Frc consts  --      1.6381                 1.4589                 1.4723
 IR Inten    --     10.2580                 9.5437                 7.0183

                     76                     77                     78
                      A                      A                      A
 Frequencies --   1516.4367              1516.7816              1519.3209
 Red. masses --      1.0449                 1.0588                 1.0797
 Frc consts  --      1.4156                 1.4352                 1.4684
 IR Inten    --      8.7291                 4.0853                 7.4563

                     79                     80                     81
                      A                      A                      A
 Frequencies --   1521.1879              1525.1022              1532.2557
 Red. masses --      1.0862                 1.0816                 1.0876
 Frc consts  --      1.4809                 1.4822                 1.5044
 IR Inten    --      3.3120                 7.3534                12.9992

                     82                     83                     84
                      A                      A                      A
 Frequencies --   1536.9375              1538.3788              1815.4996
 Red. masses --      1.0602                 1.0582                11.2506
 Frc consts  --      1.4756                 1.4755                21.8483
 IR Inten    --     14.1666                 6.4427               171.6779

                     85                     86                     87
                      A                      A                      A
 Frequencies --   1822.2733              2265.7007              3054.6691
 Red. masses --     10.7756                13.6144                 1.0776
 Frc consts  --     21.0823                41.1770                 5.9241
 IR Inten    --    173.6227               434.6380                13.1221

                     88                     89                     90
                      A                      A                      A
 Frequencies --   3056.2024              3061.7815              3062.1849
 Red. masses --      1.0641                 1.0362                 1.0361
 Frc consts  --      5.8557                 5.7231                 5.7243
 IR Inten    --     23.0031                17.3565                12.1575

                     91                     92                     93
                      A                      A                      A
 Frequencies --   3077.3943              3081.3555              3088.2520
 Red. masses --      1.0627                 1.0622                 1.0610
 Frc consts  --      5.9296                 5.9420                 5.9619
 IR Inten    --      9.6473                13.3326                11.9494

                     94                     95                     96
                      A                      A                      A
 Frequencies --   3097.7624              3099.3248              3105.7185
 Red. masses --      1.0592                 1.0598                 1.1039
 Frc consts  --      5.9884                 5.9983                 6.2736
 IR Inten    --     28.1689                13.9395                24.1547

                     97                     98                     99
                      A                      A                      A
 Frequencies --   3122.9167              3124.0633              3128.2684
 Red. masses --      1.1042                 1.1039                 1.1017
 Frc consts  --      6.3450                 6.3475                 6.3519
 IR Inten    --     12.6949                10.8668                34.6740

                    100                    101                    102
                      A                      A                      A
 Frequencies --   3128.5379              3138.3884              3140.8800
 Red. masses --      1.1003                 1.1029                 1.1034
 Frc consts  --      6.3451                 6.4003                 6.4132
 IR Inten    --     21.3707                21.8852                10.7857

                    103                    104                    105
                      A                      A                      A
 Frequencies --   3142.5857              3160.7051              3163.5176
 Red. masses --      1.1042                 1.1086                 1.1083
 Frc consts  --      6.4249                 6.5250                 6.5351
 IR Inten    --      5.0427                25.6589                20.8366

 - Thermochemistry -
 -------------------
 Temperature   298.150 Kelvin.  Pressure   1.00000 Atm.
 Atom     1 has atomic number  6 and mass  12.00000

 Molecular mass:   257.13756 amu.
 Principal axes and moments of inertia in atomic units:
                           1         2         3
     Eigenvalues --  2934.514647386.354348338.32172
           X            0.99962  -0.02271  -0.01564
           Y            0.02275   0.99974   0.00244
           Z            0.01558  -0.00280   0.99987
 This molecule is an asymmetric top.
 Rotational symmetry number  1.
 Warning -- assumption of classical behavior for rotation
           may cause significant error
 Rotational temperatures (Kelvin)      0.02952     0.01173     0.01039
 Rotational constants (GHZ):           0.61501     0.24433     0.21644
 Zero-point vibrational energy     817463.8 (Joules/Mol)
                                  195.37854 (Kcal/Mol)
 Warning -- explicit consideration of  28 degrees of freedom as
           vibrations may cause significant error
 Vibrational temperatures:     22.81    42.54    57.79    64.15    83.15
          (Kelvin)             95.82   113.54   138.06   154.36   176.26
                              187.09   218.99   224.89   318.14   330.70
                              347.74   364.36   431.69   465.62   472.99
                              513.14   540.58   585.69   635.70   667.43
                              703.94   797.56   806.99   901.75   921.30
                              934.37  1040.25  1084.12  1128.05  1153.94
                             1184.63  1222.22  1246.60  1257.50  1300.85
                             1318.80  1345.45  1404.58  1442.03  1471.89
                             1487.85  1525.46  1534.28  1603.85  1628.06
                             1630.66  1649.66  1691.32  1738.99  1742.13
                             1756.31  1802.72  1825.32  1837.39  1872.58
                             1916.06  1931.39  1933.50  1951.36  1980.15
                             2000.69  2020.44  2022.90  2043.46  2044.83
                             2052.58  2076.94  2078.26  2165.88  2177.97
                             2181.81  2182.31  2185.96  2188.65  2194.28
                             2204.57  2211.31  2213.38  2612.10  2621.84
                             3259.84  4394.99  4397.19  4405.22  4405.80
                             4427.68  4433.38  4443.31  4456.99  4459.24
                             4468.44  4493.18  4494.83  4500.88  4501.27
                             4515.44  4519.03  4521.48  4547.55  4551.60

 Zero-point correction=                           0.311356 (Hartree/Particle)
 Thermal correction to Energy=                    0.331253
 Thermal correction to Enthalpy=                  0.332198
 Thermal correction to Gibbs Free Energy=         0.259769
 Sum of electronic and zero-point Energies=           -895.483247
 Sum of electronic and thermal Energies=              -895.463349
 Sum of electronic and thermal Enthalpies=            -895.462404
 Sum of electronic and thermal Free Energies=         -895.534833

                     E (Thermal)             CV                S
                      KCal/Mol        Cal/Mol-Kelvin    Cal/Mol-Kelvin
 Total                  207.865             70.295            152.439
 Electronic               0.000              0.000              0.000
 Translational            0.889              2.981             42.533
 Rotational               0.889              2.981             33.557
 Vibrational            206.087             64.334             76.348
 Vibration     1          0.593              1.986              7.096
 Vibration     2          0.593              1.984              5.858
 Vibration     3          0.594              1.981              5.251
 Vibration     4          0.595              1.980              5.044
 Vibration     5          0.596              1.974              4.531
 Vibration     6          0.598              1.970              4.252
 Vibration     7          0.600              1.963              3.918
 Vibration     8          0.603              1.952              3.535
 Vibration     9          0.606              1.943              3.317
 Vibration    10          0.610              1.930              3.060
 Vibration    11          0.612              1.923              2.946
 Vibration    12          0.619              1.900              2.644
 Vibration    13          0.620              1.896              2.594
 Vibration    14          0.648              1.809              1.950
 Vibration    15          0.652              1.795              1.880
 Vibration    16          0.658              1.776              1.790
 Vibration    17          0.664              1.757              1.708
 Vibration    18          0.693              1.674              1.417
 Vibration    19          0.708              1.628              1.292
 Vibration    20          0.712              1.618              1.266
 Vibration    21          0.732              1.562              1.137
 Vibration    22          0.747              1.522              1.056
 Vibration    23          0.772              1.455              0.937
 Vibration    24          0.802              1.379              0.821
 Vibration    25          0.821              1.330              0.755
 Vibration    26          0.845              1.274              0.686
 Vibration    27          0.910              1.130              0.535
 Vibration    28          0.917              1.116              0.522

 Optimization completed.
    -- Stationary point found.
 Normal termination of Gaussian 16 at Fri Dec 11 23:26:46 2020.

 ----------------------------------------------------------------------
 # B3LYP/6-311++G(d,p) empiricaldispersion=gd3bj scf=xqc pop=npa geom=c
 heck
 ----------------------------------------------------------------------

 ---------------------------------------
 CID_151223387_JID_8901_Energie_neutraal
 ---------------------------------------
 Structure from the checkpoint file:  "JID_8901.chk"
 Charge =  0 Multiplicity = 1

 SCF Done:  E(RB3LYP) =  -896.053787417     A.U. after   16 cycles
 Normal termination of Gaussian 16 at Fri Dec 11 23:35:26 2020.

 ----------------------------------------------------------------------
 # B3LYP/6-311++G(d,p) empiricaldispersion=gd3bj scf=xqc pop=npa geom=c
 heck
 ----------------------------------------------------------------------

 -------------------------------------
 CID_151223387_JID_8901_Energie_kation
 -------------------------------------
 Structure from the checkpoint file:  "JID_8901.chk"
 Charge =  1 Multiplicity = 2

 SCF Done:  E(UB3LYP) =  -895.718635915     A.U. after   29 cycles
 Normal termination of Gaussian 16 at Fri Dec 11 23:57:45 2020.
 Gaussian 16:  ES64L-G16RevA.03 25-Dec-2016

 ----------------------------------------------------------------------
 # B3LYP/6-311++G(d,p) empiricaldispersion=gd3bj scf=xqc pop=npa geom=c
 heck
 ----------------------------------------------------------------------

 ------------------------------------
 CID_151223387_JID_8901_Energie_anion
 ------------------------------------
 Structure from the checkpoint file:  "JID_8901.chk"
 Charge = -1 Multiplicity = 2

                         Standard orientation:
 ---------------------------------------------------------------------
 Center     Atomic      Atomic             Coordinates (Angstroms)
 Number     Number       Type             X           Y           Z
 ---------------------------------------------------------------------
      1          6           0        3.951800    1.089166   -1.529972
      2          6           0        4.488601    0.141896   -0.469147
      3          8           0        3.414776   -0.615664    0.141345
      4          6           0        2.731514    0.005700    1.130942
      5          8           0        2.992533    1.116370    1.541406
      6          6           0        1.570325   -0.834958    1.615950
      7          6           0        0.230580   -0.162171    1.259657
      8          6           0        0.060733    0.112880   -0.243706
      9          6           0        0.218713   -1.126522   -1.154455
     10          6           0       -0.670872   -2.316008   -0.792598
     11          7           0       -2.108829   -1.979836   -0.936034
     12          7           0       -2.776410   -1.980078    0.098359
     13          7           0       -3.497879   -1.944143    0.984269
     14          6           0       -1.236405    0.834593   -0.599380
     15          8           0       -1.446396    1.320259   -1.690448
     16          8           0       -2.111447    0.867226    0.425475
     17          6           0       -3.391805    1.491654    0.162448
     18          6           0       -3.309629    2.999451    0.328806
     19          1           0        3.370957    0.543288   -2.280627
     20          1           0        4.782720    1.592065   -2.037062
     21          1           0        3.316341    1.853527   -1.074789
     22          1           0        5.143253   -0.618827   -0.899926
     23          1           0        5.023698    0.684002    0.313777
     24          1           0        1.642407   -1.841880    1.197855
     25          1           0        1.646673   -0.912185    2.705527
     26          1           0       -0.589633   -0.781088    1.634719
     27          1           0        0.167025    0.787714    1.798147
     28          1           0        0.844381    0.814419   -0.556898
     29          1           0        0.004506   -0.818619   -2.182566
     30          1           0        1.261290   -1.460952   -1.124942
     31          1           0       -0.470492   -3.139234   -1.485813
     32          1           0       -0.461765   -2.678630    0.220680
     33          1           0       -3.707898    1.218060   -0.846900
     34          1           0       -4.062715    1.034490    0.892311
     35          1           0       -2.640588    3.430093   -0.420776
     36          1           0       -4.303538    3.442892    0.200997
     37          1           0       -2.941850    3.259653    1.326633
 ---------------------------------------------------------------------

 SCF Done:  E(UB3LYP) =  -896.047486458     A.U. after   33 cycles
 SCF Done:  E(UB3LYP) =  -896.047486458     a.u. after    1 cycles

 The electronic state is 2-A.
 Alpha  occ. eigenvalues --  -19.07968 -19.07266 -19.02466 -19.01119 -14.34702
 Alpha  occ. eigenvalues --  -14.24787 -14.23905 -10.21405 -10.20310 -10.13750
 Alpha  occ. eigenvalues --  -10.13708 -10.10964 -10.09741 -10.09519 -10.08766
 Alpha  occ. eigenvalues --  -10.08431 -10.07698 -10.07637  -1.01869  -1.01642
 Alpha  occ. eigenvalues --   -1.01094  -0.93371  -0.92394  -0.85926  -0.74102
 Alpha  occ. eigenvalues --   -0.69787  -0.68497  -0.67168  -0.63485  -0.58016
 Alpha  occ. eigenvalues --   -0.57327  -0.54412  -0.50940  -0.46731  -0.46188
 Alpha  occ. eigenvalues --   -0.43470  -0.42858  -0.41609  -0.41012  -0.39976
 Alpha  occ. eigenvalues --   -0.39312  -0.38468  -0.37972  -0.37290  -0.36574
 Alpha  occ. eigenvalues --   -0.35788  -0.35035  -0.33650  -0.32835  -0.32227
 Alpha  occ. eigenvalues --   -0.32014  -0.31125  -0.30527  -0.30046  -0.29352
 Alpha  occ. eigenvalues --   -0.28674  -0.28302  -0.27474  -0.26908  -0.25587
 Alpha  occ. eigenvalues --   -0.25220  -0.24572  -0.23815  -0.22003  -0.21212
 Alpha  occ. eigenvalues --   -0.19292  -0.18843  -0.18123  -0.13885   0.04104
 Alpha virt. eigenvalues --    0.05779   0.06314   0.06992   0.07986   0.08319
 Alpha virt. eigenvalues --    0.08672   0.09130   0.09384   0.09563   0.09924
 Alpha virt. eigenvalues --    0.09946   0.10823   0.11270   0.12068   0.12163

  Beta  occ. eigenvalues --  -19.07963 -19.07265 -19.02461 -19.01097 -14.34474
  Beta  occ. eigenvalues --  -14.24459 -14.23960 -10.21405 -10.20290 -10.13741
  Beta  occ. eigenvalues --  -10.13682 -10.10867 -10.09742 -10.09502 -10.08762
  Beta  occ. eigenvalues --  -10.08422 -10.07680 -10.07612  -1.01859  -1.01344
  Beta  occ. eigenvalues --   -1.00920  -0.93360  -0.92366  -0.85695  -0.74072
  Beta  occ. eigenvalues --   -0.69749  -0.68462  -0.67106  -0.63399  -0.57968
  Beta  occ. eigenvalues --   -0.57257  -0.54331  -0.50862  -0.46695  -0.46154
  Beta  occ. eigenvalues --   -0.43393  -0.42791  -0.41534  -0.40884  -0.39878
  Beta  occ. eigenvalues --   -0.38901  -0.38103  -0.37894  -0.37183  -0.36503
  Beta  occ. eigenvalues --   -0.35753  -0.34982  -0.33104  -0.32765  -0.32170
  Beta  occ. eigenvalues --   -0.31872  -0.31052  -0.30444  -0.29897  -0.29319
  Beta  occ. eigenvalues --   -0.28629  -0.28200  -0.27450  -0.26871  -0.25565
  Beta  occ. eigenvalues --   -0.25181  -0.24528  -0.23758  -0.21986  -0.21154
  Beta  occ. eigenvalues --   -0.19278  -0.18333  -0.18089  -0.13779
  Beta virt. eigenvalues --    0.06152   0.06658   0.07074   0.07899   0.08598
  Beta virt. eigenvalues --    0.08832   0.09062   0.09495   0.09543   0.09702
  Beta virt. eigenvalues --    0.10131   0.10421   0.10933   0.11511   0.12173

 Mulliken charges and spin densities:
               1          2
     1  C    0.014475  -0.485457
     2  C    0.580052  -0.704556
     3  O    0.018456   0.052690
     4  C   -0.870189   0.478003
     5  O   -0.206810   0.006324
     6  C    0.905301  -1.328597
     7  C   -1.024954   0.442737
     8  C    0.991108  -0.046887
     9  C   -0.837523   0.568316
    10  C    1.050182  -1.663831
    11  N    0.132437  -0.348935
    12  N    0.260136   0.252435
    13  N   -0.689016   0.499215
    14  C   -1.110339   0.137801
    15  O   -0.166204   0.007239
    16  O    0.115322   0.006567
    17  C   -0.011813  -0.057016
    18  C   -0.229125  -0.210237
    19  H    0.082636   0.080211
    20  H   -0.430564   0.587533
    21  H    0.028449   0.141329
    22  H   -0.619146   0.801387
    23  H    0.060160   0.099229
    24  H   -0.167712   0.361222
    25  H    0.037306   0.157655
    26  H    0.218504  -0.038400
    27  H    0.196261   0.006672
    28  H    0.412114  -0.114525
    29  H    0.048571   0.175040
    30  H    0.285732  -0.087968
    31  H   -0.557052   0.767412
    32  H    0.113913   0.023434
    33  H    0.133685   0.048675
    34  H    0.017131   0.156342
    35  H    0.094649   0.078683
    36  H    0.019537   0.119620
    37  H    0.104330   0.030638
 Sum of Mulliken charges =  -1.00000   1.00000

 Dipole moment (field-independent basis, Debye):
    X=             -3.0191    Y=              3.1074    Z=              3.3035  Tot=              5.4483
 Quadrupole moment (field-independent basis, Debye-Ang):
   XX=           -194.7942   YY=           -150.8513   ZZ=           -143.8117
   XY=             -7.4296   XZ=              8.1137   YZ=             -2.9827

 Summary of Natural Population Analysis:

                                       Natural Population
                Natural  -----------------------------------------------
    Atom  No    Charge         Core      Valence    Rydberg      Total
 -----------------------------------------------------------------------
      C    1   -0.30007      0.99966     2.29514    0.00527     3.30007
      C    2   -0.01710      0.99957     2.00579    0.01174     3.01710
      O    3   -0.28196      0.99986     3.27188    0.01022     4.28196
      C    4    0.40920      0.99968     1.56441    0.02671     2.59080
      O    5   -0.31145      0.99987     3.30627    0.00532     4.31145
      C    6   -0.23583      0.99958     2.22771    0.00854     3.23583
      C    7   -0.18799      0.99961     2.18044    0.00794     3.18799
      C    8   -0.15794      0.99953     2.14737    0.01104     3.15794
      C    9   -0.19524      0.99960     2.18517    0.01046     3.19524
      C   10   -0.08971      0.99958     2.07806    0.01207     3.08971
      N   11   -0.20669      0.99970     2.69267    0.01432     3.70669
      N   12    0.13422      0.99970     2.35079    0.01530     3.36578
      N   13   -0.02442      0.99982     2.51124    0.01337     3.52442
      C   14    0.42193      0.99965     1.55194    0.02648     2.57807
      O   15   -0.31142      0.99987     3.30617    0.00538     4.31142
      O   16   -0.28385      0.99986     3.27450    0.00949     4.28385
      C   17   -0.01818      0.99958     2.00775    0.01084     3.01818
      C   18   -0.29904      0.99966     2.29557    0.00381     3.29904
      H   19    0.10273      0.00000     0.39619    0.00108     0.39727
      H   20    0.10409      0.00000     0.39470    0.00121     0.39591
      H   21    0.10414      0.00000     0.39481    0.00106     0.39586
      H   22    0.09430      0.00000     0.40348    0.00222     0.40570
      H   23    0.09366      0.00000     0.40513    0.00121     0.40634
      H   24    0.11045      0.00000     0.38808    0.00147     0.38955
      H   25    0.11185      0.00000     0.38735    0.00080     0.38815
      H   26    0.10795      0.00000     0.39079    0.00126     0.39205
      H   27    0.10737      0.00000     0.39148    0.00115     0.39263
      H   28    0.11368      0.00000     0.38448    0.00184     0.38632
      H   29    0.11092      0.00000     0.38772    0.00135     0.38908
      H   30    0.10901      0.00000     0.38938    0.00161     0.39099
      H   31    0.10102      0.00000     0.39716    0.00183     0.39898
      H   32    0.08940      0.00000     0.40900    0.00160     0.41060
      H   33    0.09636      0.00000     0.40191    0.00173     0.40364
      H   34    0.09475      0.00000     0.40371    0.00154     0.40525
      H   35    0.10629      0.00000     0.39255    0.00117     0.39371
      H   36    0.09919      0.00000     0.39981    0.00100     0.40081
      H   37    0.09839      0.00000     0.40043    0.00118     0.40161
 =======================================================================
   * Total *    0.00000     17.99437    50.77103    0.23460    69.00000

 Normal termination of Gaussian 16 at Sat Dec 12 00:23:29 2020.
