 Gaussian 16, Revision A.03,

 -----------------------------------------------------------
 # opt freq B3LYP/6-31G(d) empiricaldispersion=gd3bj scf=xqc
 -----------------------------------------------------------

 ------------------------------
 CID_66263077_JID_4428_neutraal
 ------------------------------
 Symbolic Z-matrix:
 Charge =  0 Multiplicity = 1

 SCF Done:  E(RB3LYP) =  -617.134933231     A.U. after   13 cycles
 SCF Done:  E(RB3LYP) =  -617.140801665     A.U. after   11 cycles
 SCF Done:  E(RB3LYP) =  -617.142418120     A.U. after   11 cycles
 SCF Done:  E(RB3LYP) =  -617.143553676     A.U. after   11 cycles
 SCF Done:  E(RB3LYP) =  -617.143863610     A.U. after   11 cycles
 SCF Done:  E(RB3LYP) =  -617.144005681     A.U. after   10 cycles
 SCF Done:  E(RB3LYP) =  -617.144049991     A.U. after    9 cycles
 SCF Done:  E(RB3LYP) =  -617.144062730     A.U. after    9 cycles
 SCF Done:  E(RB3LYP) =  -617.144069235     A.U. after    9 cycles
 SCF Done:  E(RB3LYP) =  -617.144074573     A.U. after    8 cycles
 SCF Done:  E(RB3LYP) =  -617.144880178     A.U. after   10 cycles
 SCF Done:  E(RB3LYP) =  -617.144921214     A.U. after   10 cycles
 SCF Done:  E(RB3LYP) =  -617.144924510     A.U. after    8 cycles
 SCF Done:  E(RB3LYP) =  -617.144925702     A.U. after    7 cycles
 SCF Done:  E(RB3LYP) =  -617.144926561     A.U. after    7 cycles
 SCF Done:  E(RB3LYP) =  -617.144926651     A.U. after    6 cycles
 Optimization completed.
    -- Stationary point found.
 Normal termination of Gaussian 16 at Thu Dec 10 09:57:15 2020.

 --------------------------------------------------------------------
 #N Geom=AllCheck Guess=TCheck SCRF=Check GenChk RB3LYP/6-31G(d) Freq
 --------------------------------------------------------------------

 Structure from the checkpoint file:  "JID_4428.chk"
 ------------------------------
 CID_66263077_JID_4428_neutraal
 ------------------------------
 Charge =  0 Multiplicity = 1

 SCF Done:  E(RB3LYP) =  -617.144926651     A.U. after    1 cycles

  Exact polarizability: 155.553   2.683 120.873   4.892  -0.021 111.181
 Approx polarizability: 182.849   3.300 175.570   4.255   0.500 170.826

                      1                      2                      3
                      A                      A                      A
 Frequencies --     28.4883                40.2712                70.6397
 Red. masses --      3.1213                 3.6923                 3.1626
 Frc consts  --      0.0015                 0.0035                 0.0093
 IR Inten    --      0.0966                 0.2209                 0.3794

                      4                      5                      6
                      A                      A                      A
 Frequencies --     75.8301               119.4455               165.5453
 Red. masses --      3.0983                 2.7880                 2.2878
 Frc consts  --      0.0105                 0.0234                 0.0369
 IR Inten    --      0.8872                 1.3223                 0.3136

                      7                      8                      9
                      A                      A                      A
 Frequencies --    199.3278               200.6195               212.8020
 Red. masses --      3.7042                 1.3456                 3.2558
 Frc consts  --      0.0867                 0.0319                 0.0869
 IR Inten    --      7.3921                 0.3062                 2.4878

                     10                     11                     12
                      A                      A                      A
 Frequencies --    242.2632               253.4277               283.3263
 Red. masses --      1.2611                 1.8150                 1.0747
 Frc consts  --      0.0436                 0.0687                 0.0508
 IR Inten    --      0.1328                 1.4546                 0.7498

                     13                     14                     15
                      A                      A                      A
 Frequencies --    306.2325               326.8593               351.8913
 Red. masses --      1.4426                 1.6536                 2.2867
 Frc consts  --      0.0797                 0.1041                 0.1668
 IR Inten    --     21.3105                19.0252                15.3266

                     16                     17                     18
                      A                      A                      A
 Frequencies --    360.1109               363.1959               379.3307
 Red. masses --      2.4494                 2.3139                 2.2960
 Frc consts  --      0.1871                 0.1798                 0.1947
 IR Inten    --      0.7081                 0.5290                 2.6157

                     19                     20                     21
                      A                      A                      A
 Frequencies --    403.5572               466.6531               475.8610
 Red. masses --      2.1973                 2.2616                 2.5370
 Frc consts  --      0.2108                 0.2902                 0.3385
 IR Inten    --      1.0813                 9.1528                 4.2874

                     22                     23                     24
                      A                      A                      A
 Frequencies --    509.4713               534.4458               640.8796
 Red. masses --      2.2858                 2.9513                 3.8410
 Frc consts  --      0.3496                 0.4967                 0.9295
 IR Inten    --      2.9446                 5.3606                 4.1479

                     25                     26                     27
                      A                      A                      A
 Frequencies --    699.4343               732.6369               748.9231
 Red. masses --      3.0725                 2.6815                 1.6451
 Frc consts  --      0.8856                 0.8480                 0.5436
 IR Inten    --      5.5975                23.2196                32.8993

                     28                     29                     30
                      A                      A                      A
 Frequencies --    799.2705               861.9400               872.1452
 Red. masses --      3.1743                 2.1738                 2.6366
 Frc consts  --      1.1948                 0.9515                 1.1816
 IR Inten    --      5.3385                 4.6431                34.8997

                     31                     32                     33
                      A                      A                      A
 Frequencies --    892.5679               918.8398               930.3465
 Red. masses --      2.0657                 1.9165                 1.3258
 Frc consts  --      0.9696                 0.9533                 0.6761
 IR Inten    --      5.8196                 6.8469                 2.2516

                     34                     35                     36
                      A                      A                      A
 Frequencies --    950.3204               954.7852               968.0582
 Red. masses --      3.8087                 1.4680                 1.8007
 Frc consts  --      2.0266                 0.7885                 0.9942
 IR Inten    --     36.2361                93.1323                 1.1101

                     37                     38                     39
                      A                      A                      A
 Frequencies --    974.9627               981.2507               984.0543
 Red. masses --      1.6353                 1.6596                 1.5014
 Frc consts  --      0.9159                 0.9415                 0.8566
 IR Inten    --     12.6168                 1.0319                 2.7717

                     40                     41                     42
                      A                      A                      A
 Frequencies --   1011.9365              1026.6394              1032.3095
 Red. masses --      1.7962                 1.9874                 1.4855
 Frc consts  --      1.0837                 1.2342                 0.9327
 IR Inten    --     21.3853                13.8590                 8.7520

                     43                     44                     45
                      A                      A                      A
 Frequencies --   1042.4392              1079.9032              1087.2752
 Red. masses --      1.4414                 1.4904                 2.7596
 Frc consts  --      0.9228                 1.0240                 1.9221
 IR Inten    --      1.0663                 7.4406                38.9163

                     46                     47                     48
                      A                      A                      A
 Frequencies --   1104.7529              1124.1366              1136.8265
 Red. masses --      3.6546                 1.4165                 1.6709
 Frc consts  --      2.6280                 1.0546                 1.2723
 IR Inten    --     57.5937                 7.7524                 4.1078

                     49                     50                     51
                      A                      A                      A
 Frequencies --   1172.0752              1180.6894              1192.2201
 Red. masses --      2.0392                 2.4264                 1.6283
 Frc consts  --      1.6505                 1.9929                 1.3636
 IR Inten    --     21.3201                10.6831                 3.4854

                     52                     53                     54
                      A                      A                      A
 Frequencies --   1212.8468              1225.6788              1243.6423
 Red. masses --      1.9922                 1.6063                 1.9524
 Frc consts  --      1.7266                 1.4218                 1.7791
 IR Inten    --     46.1596                22.7213                12.6823

                     55                     56                     57
                      A                      A                      A
 Frequencies --   1272.4483              1279.4893              1302.7861
 Red. masses --      1.4833                 1.3745                 1.9436
 Frc consts  --      1.4150                 1.3258                 1.9436
 IR Inten    --      2.5600                 6.4965                 0.2392

                     58                     59                     60
                      A                      A                      A
 Frequencies --   1308.7598              1328.7868              1356.2982
 Red. masses --      2.0974                 1.4963                 1.6558
 Frc consts  --      2.1166                 1.5566                 1.7946
 IR Inten    --      2.9352                 4.5145                 6.2072

                     61                     62                     63
                      A                      A                      A
 Frequencies --   1365.2365              1382.3641              1409.2037
 Red. masses --      1.3918                 1.5715                 1.3631
 Frc consts  --      1.5284                 1.7693                 1.5949
 IR Inten    --      1.7621                 5.3300                 5.3863

                     64                     65                     66
                      A                      A                      A
 Frequencies --   1429.2089              1434.3287              1441.8092
 Red. masses --      1.4000                 1.2988                 1.3932
 Frc consts  --      1.6848                 1.5743                 1.7065
 IR Inten    --      2.3527                 4.7730                 1.3416

                     67                     68                     69
                      A                      A                      A
 Frequencies --   1446.4561              1451.0692              1500.6179
 Red. masses --      1.2962                 1.2272                 1.1429
 Frc consts  --      1.5978                 1.5225                 1.5163
 IR Inten    --     11.3506                 0.7427                18.7402

                     70                     71                     72
                      A                      A                      A
 Frequencies --   1516.1149              1520.0165              1521.7069
 Red. masses --      1.0658                 1.1636                 1.0664
 Frc consts  --      1.4434                 1.5840                 1.4549
 IR Inten    --      0.2881                 8.6059                 3.2239

                     73                     74                     75
                      A                      A                      A
 Frequencies --   1525.8728              1530.2515              1534.3570
 Red. masses --      1.0863                 1.0763                 1.0736
 Frc consts  --      1.4902                 1.4850                 1.4892
 IR Inten    --     25.2099                 3.8434                 1.3940

                     76                     77                     78
                      A                      A                      A
 Frequencies --   1535.4920              1544.3450              1551.5067
 Red. masses --      1.0671                 1.1007                 1.1056
 Frc consts  --      1.4823                 1.5468                 1.5681
 IR Inten    --      8.3994                 9.1862                 0.9889

                     79                     80                     81
                      A                      A                      A
 Frequencies --   1557.3165              1697.4891              2975.2142
 Red. masses --      1.1900                 1.0878                 1.0738
 Frc consts  --      1.7005                 1.8467                 5.6003
 IR Inten    --     17.2645                32.9521                48.6903

                     82                     83                     84
                      A                      A                      A
 Frequencies --   2978.4112              3017.8710              3033.6187
 Red. masses --      1.0713                 1.0718                 1.0356
 Frc consts  --      5.5994                 5.7515                 5.6150
 IR Inten    --     69.8972                54.8250                37.9312

                     85                     86                     87
                      A                      A                      A
 Frequencies --   3039.2075              3043.2578              3083.3638
 Red. masses --      1.0359                 1.0366                 1.0868
 Frc consts  --      5.6377                 5.6563                 6.0875
 IR Inten    --     35.8477                27.5683                31.8978

                     88                     89                     90
                      A                      A                      A
 Frequencies --   3092.8606              3098.5894              3104.8205
 Red. masses --      1.1023                 1.1018                 1.0927
 Frc consts  --      6.2124                 6.2327                 6.2063
 IR Inten    --     14.2833                48.1230                50.5717

                     91                     92                     93
                      A                      A                      A
 Frequencies --   3106.4528              3108.4122              3110.0615
 Red. masses --      1.1010                 1.0912                 1.0986
 Frc consts  --      6.2601                 6.2118                 6.2610
 IR Inten    --     33.9638                24.6601                32.2332

                     94                     95                     96
                      A                      A                      A
 Frequencies --   3111.8653              3113.1302              3127.3743
 Red. masses --      1.1008                 1.1008                 1.0944
 Frc consts  --      6.2805                 6.2855                 6.3065
 IR Inten    --     30.4010                28.5802                25.4018

                     97                     98                     99
                      A                      A                      A
 Frequencies --   3131.3577              3133.7955              3213.8446
 Red. masses --      1.0813                 1.0609                 1.1174
 Frc consts  --      6.2470                 6.1387                 6.8001
 IR Inten    --     29.6939                15.2866                18.8363

                    100                    101                    102
                      A                      A                      A
 Frequencies --   3450.0421              3536.1711              3538.3679
 Red. masses --      1.0496                 1.0919                 1.0725
 Frc consts  --      7.3607                 8.0445                 7.9114
 IR Inten    --      1.2136                 1.4852                 0.2179

 - Thermochemistry -
 -------------------
 Temperature   298.150 Kelvin.  Pressure   1.00000 Atm.
 Atom     1 has atomic number  6 and mass  12.00000

 Molecular mass:   198.17321 amu.
 Principal axes and moments of inertia in atomic units:
                           1         2         3
     Eigenvalues --  1163.951306066.463706251.59652
           X            0.99996   0.00165   0.00836
           Y           -0.00081   0.99510  -0.09888
           Z           -0.00848   0.09887   0.99506
 This molecule is an asymmetric top.
 Rotational symmetry number  1.
 Warning -- assumption of classical behavior for rotation
           may cause significant error
 Rotational temperatures (Kelvin)      0.07441     0.01428     0.01385
 Rotational constants (GHZ):           1.55053     0.29749     0.28868
 Zero-point vibrational energy     861579.3 (Joules/Mol)
                                  205.92239 (Kcal/Mol)
 Warning -- explicit consideration of  23 degrees of freedom as
           vibrations may cause significant error
 Vibrational temperatures:     40.99    57.94   101.63   109.10   171.86
          (Kelvin)            238.18   286.79   288.65   306.17   348.56
                              364.63   407.64   440.60   470.28   506.29
                              518.12   522.56   545.77   580.63   671.41
                              684.66   733.02   768.95   922.08  1006.33
                             1054.10  1077.53  1149.97  1240.14  1254.82
                             1284.21  1322.01  1338.56  1367.30  1373.72
                             1392.82  1402.75  1411.80  1415.83  1455.95
                             1477.11  1485.26  1499.84  1553.74  1564.35
                             1589.49  1617.38  1635.64  1686.35  1698.75
                             1715.34  1745.02  1763.48  1789.32  1830.77
                             1840.90  1874.42  1883.01  1911.83  1951.41
                             1964.27  1988.91  2027.53  2056.31  2063.68
                             2074.44  2081.13  2087.76  2159.05  2181.35
                             2186.96  2189.40  2195.39  2201.69  2207.60
                             2209.23  2221.97  2232.27  2240.63  2442.31
                             4280.67  4285.27  4342.04  4364.70  4372.74
                             4378.57  4436.27  4449.94  4458.18  4467.14
                             4469.49  4472.31  4474.68  4477.28  4479.10
                             4499.59  4505.33  4508.83  4624.01  4963.84
                             5087.76  5090.92

 Zero-point correction=                           0.328158 (Hartree/Particle)
 Thermal correction to Energy=                    0.343675
 Thermal correction to Enthalpy=                  0.344620
 Thermal correction to Gibbs Free Energy=         0.285277
 Sum of electronic and zero-point Energies=           -616.816768
 Sum of electronic and thermal Energies=              -616.801251
 Sum of electronic and thermal Enthalpies=            -616.800307
 Sum of electronic and thermal Free Energies=         -616.859650

                     E (Thermal)             CV                S
                      KCal/Mol        Cal/Mol-Kelvin    Cal/Mol-Kelvin
 Total                  215.660             59.753            124.897
 Electronic               0.000              0.000              0.000
 Translational            0.889              2.981             41.757
 Rotational               0.889              2.981             32.157
 Vibrational            213.882             53.792             50.984
 Vibration     1          0.593              1.984              5.932
 Vibration     2          0.594              1.981              5.246
 Vibration     3          0.598              1.968              4.135
 Vibration     4          0.599              1.965              3.996
 Vibration     5          0.609              1.933              3.109
 Vibration     6          0.624              1.885              2.485
 Vibration     7          0.637              1.841              2.139
 Vibration     8          0.638              1.839              2.127
 Vibration     9          0.644              1.821              2.020
 Vibration    10          0.658              1.776              1.786
 Vibration    11          0.665              1.757              1.707
 Vibration    12          0.682              1.705              1.514
 Vibration    13          0.697              1.662              1.383
 Vibration    14          0.711              1.622              1.276
 Vibration    15          0.728              1.571              1.158
 Vibration    16          0.735              1.554              1.122
 Vibration    17          0.737              1.548              1.108
 Vibration    18          0.749              1.514              1.042
 Vibration    19          0.769              1.462              0.950
 Vibration    20          0.824              1.324              0.747
 Vibration    21          0.833              1.304              0.721
 Vibration    22          0.865              1.229              0.635
 Vibration    23          0.889              1.174              0.577

 Optimization completed.
    -- Stationary point found.
 Normal termination of Gaussian 16 at Thu Dec 10 10:07:18 2020.

 ----------------------------------------------------------------------
 # B3LYP/6-311++G(d,p) empiricaldispersion=gd3bj scf=xqc pop=npa geom=c
 heck
 ----------------------------------------------------------------------

 --------------------------------------
 CID_66263077_JID_4428_Energie_neutraal
 --------------------------------------
 Structure from the checkpoint file:  "JID_4428.chk"
 Charge =  0 Multiplicity = 1

 SCF Done:  E(RB3LYP) =  -617.328656718     A.U. after   14 cycles
 Normal termination of Gaussian 16 at Thu Dec 10 10:13:26 2020.

 ----------------------------------------------------------------------
 # B3LYP/6-311++G(d,p) empiricaldispersion=gd3bj scf=xqc pop=npa geom=c
 heck
 ----------------------------------------------------------------------

 ------------------------------------
 CID_66263077_JID_4428_Energie_kation
 ------------------------------------
 Structure from the checkpoint file:  "JID_4428.chk"
 Charge =  1 Multiplicity = 2

 SCF Done:  E(UB3LYP) =  -617.040788064     A.U. after   22 cycles
 Normal termination of Gaussian 16 at Thu Dec 10 10:23:52 2020.
 Gaussian 16:  ES64L-G16RevA.03 25-Dec-2016

 ----------------------------------------------------------------------
 # B3LYP/6-311++G(d,p) empiricaldispersion=gd3bj scf=xqc pop=npa geom=c
 heck
 ----------------------------------------------------------------------

 -----------------------------------
 CID_66263077_JID_4428_Energie_anion
 -----------------------------------
 Structure from the checkpoint file:  "JID_4428.chk"
 Charge = -1 Multiplicity = 2

                         Standard orientation:
 ---------------------------------------------------------------------
 Center     Atomic      Atomic             Coordinates (Angstroms)
 Number     Number       Type             X           Y           Z
 ---------------------------------------------------------------------
      1          6           0       -3.622288   -1.379696    0.455699
      2          6           0       -3.454188    0.038027   -0.061470
      3          6           0       -2.862398    1.077270    0.873399
      4          6           0       -2.074504    0.581482   -0.332751
      5          7           0       -0.891775   -0.232435   -0.225893
      6          6           0        0.251133    0.487594    0.337259
      7          6           0        1.528237   -0.358858    0.254607
      8          6           0        1.888694   -0.705766   -1.222792
      9          8           0        3.220327   -0.229843   -1.463082
     10          6           0        3.863688   -0.198920   -0.195346
     11          6           0        2.799668    0.414566    0.728487
     12          7           0        2.660179    1.865211    0.557733
     13          6           0        1.371672   -1.639892    1.092550
     14          6           0       -4.565965    0.475317   -0.997546
     15          1           0       -2.871182   -1.645655    1.207579
     16          1           0       -4.603218   -1.493954    0.933016
     17          1           0       -3.560341   -2.111065   -0.360040
     18          1           0       -3.266584    2.086725    0.861556
     19          1           0       -2.536009    0.738373    1.854115
     20          1           0       -2.004936    1.283245   -1.163684
     21          1           0       -1.088187   -1.059827    0.328499
     22          1           0        0.380994    1.404801   -0.243316
     23          1           0        0.086734    0.813162    1.379231
     24          1           0        1.844614   -1.791016   -1.395983
     25          1           0        1.221861   -0.221665   -1.939751
     26          1           0        4.766359    0.413328   -0.285336
     27          1           0        4.157825   -1.212700    0.127297
     28          1           0        3.000734    0.220514    1.787428
     29          1           0        3.484706    2.324385    0.942965
     30          1           0        2.670580    2.069156   -0.442451
     31          1           0        1.065386   -1.402229    2.118538
     32          1           0        0.625418   -2.313514    0.656249
     33          1           0        2.311054   -2.201246    1.144394
     34          1           0       -5.538937    0.446145   -0.490371
     35          1           0       -4.407033    1.497926   -1.356520
     36          1           0       -4.623783   -0.182327   -1.874215
 ---------------------------------------------------------------------

 SCF Done:  E(UB3LYP) =  -617.315003268     A.U. after   27 cycles

 The electronic state is 2-A.
 Alpha  occ. eigenvalues --  -19.02740 -14.20235 -14.19764 -10.11493 -10.11204
 Alpha  occ. eigenvalues --  -10.10353 -10.10275 -10.09269 -10.08830 -10.08751
 Alpha  occ. eigenvalues --  -10.07104 -10.07056 -10.06842 -10.06563  -0.94559
 Alpha  occ. eigenvalues --   -0.82617  -0.79320  -0.75321  -0.69628  -0.63331
 Alpha  occ. eigenvalues --   -0.62910  -0.60139  -0.58383  -0.56587  -0.50600
 Alpha  occ. eigenvalues --   -0.49488  -0.46392  -0.45019  -0.40772  -0.40089
 Alpha  occ. eigenvalues --   -0.39196  -0.38170  -0.36709  -0.36167  -0.34654
 Alpha  occ. eigenvalues --   -0.33859  -0.33098  -0.32476  -0.31381  -0.31038
 Alpha  occ. eigenvalues --   -0.30088  -0.29773  -0.28943  -0.28182  -0.27227
 Alpha  occ. eigenvalues --   -0.25656  -0.25067  -0.24038  -0.23320  -0.22186
 Alpha  occ. eigenvalues --   -0.20603  -0.17904  -0.17314  -0.14430  -0.12405
 Alpha  occ. eigenvalues --    0.04190
 Alpha virt. eigenvalues --    0.05726   0.06725   0.07824   0.08039   0.08207
 Alpha virt. eigenvalues --    0.08891   0.09814   0.09920   0.10089   0.10200
 Alpha virt. eigenvalues --    0.10975   0.11491   0.12239   0.12894   0.13008

  Beta  occ. eigenvalues --  -19.02736 -14.20227 -14.19739 -10.11470 -10.11193
  Beta  occ. eigenvalues --  -10.10337 -10.10268 -10.09267 -10.08820 -10.08751
  Beta  occ. eigenvalues --  -10.07079 -10.07021 -10.06827 -10.06532  -0.94548
  Beta  occ. eigenvalues --   -0.82603  -0.79274  -0.75308  -0.69603  -0.63291
  Beta  occ. eigenvalues --   -0.62872  -0.60086  -0.58327  -0.56561  -0.50552
  Beta  occ. eigenvalues --   -0.49445  -0.46354  -0.44980  -0.40724  -0.40057
  Beta  occ. eigenvalues --   -0.39164  -0.38143  -0.36676  -0.36136  -0.34623
  Beta  occ. eigenvalues --   -0.33833  -0.33068  -0.32447  -0.31350  -0.31007
  Beta  occ. eigenvalues --   -0.30050  -0.29740  -0.28909  -0.28159  -0.27202
  Beta  occ. eigenvalues --   -0.25623  -0.25035  -0.24017  -0.23288  -0.22166
  Beta  occ. eigenvalues --   -0.20581  -0.17887  -0.17289  -0.14400  -0.12392
  Beta virt. eigenvalues --    0.06181   0.06813   0.07393   0.08289   0.08504
  Beta virt. eigenvalues --    0.08604   0.09319   0.10214   0.10318   0.10338
  Beta virt. eigenvalues --    0.10560   0.11217   0.11800   0.12368   0.13100

 Mulliken charges and spin densities:
               1          2
     1  C    0.021870  -0.637258
     2  C   -0.692582   1.497851
     3  C    0.269092  -0.972078
     4  C   -0.173407  -0.076070
     5  N    0.235199  -0.059498
     6  C   -0.283335  -0.551372
     7  C   -0.063643   0.286203
     8  C   -0.243707  -0.074427
     9  O   -0.126949   0.025868
    10  C    0.948352  -1.488416
    11  C   -1.055551   1.035163
    12  N   -0.165499  -0.174095
    13  C    1.155613  -1.780806
    14  C    0.437295  -1.024592
    15  H   -0.382738   0.510236
    16  H   -0.261801   0.407368
    17  H   -0.058690   0.216872
    18  H   -0.061798   0.210296
    19  H    0.026312   0.137392
    20  H    0.090698   0.112527
    21  H    0.691237  -0.494281
    22  H    0.076725   0.044240
    23  H    0.132727   0.061349
    24  H    0.015470   0.163800
    25  H    0.118564   0.097204
    26  H   -0.349199   0.558677
    27  H    0.056944   0.062132
    28  H   -0.694437   0.919149
    29  H   -0.068192   0.317849
    30  H    0.233618  -0.010216
    31  H   -0.169983   0.337017
    32  H   -0.128709   0.257204
    33  H   -0.192650   0.339707
    34  H   -0.154709   0.296532
    35  H   -0.220363   0.342096
    36  H    0.038226   0.106378
 Sum of Mulliken charges =  -1.00000   1.00000

 Dipole moment (field-independent basis, Debye):
    X=             -0.4245    Y=              0.7481    Z=             -2.6157  Tot=              2.7535
 Quadrupole moment (field-independent basis, Debye-Ang):
   XX=           -186.6656   YY=           -127.9988   ZZ=           -128.8093
   XY=             -5.0015   XZ=             -4.3567   YZ=              0.6725

 Summary of Natural Population Analysis:

                                       Natural Population
                Natural  -----------------------------------------------
    Atom  No    Charge         Core      Valence    Rydberg      Total
 -----------------------------------------------------------------------
      C    1   -0.28388      0.99962     2.27792    0.00634     3.28388
      C    2   -0.05146      0.99956     2.04013    0.01178     3.05146
      C    3   -0.20879      0.99958     2.20001    0.00921     3.20879
      C    4   -0.00241      0.99952     1.99105    0.01183     3.00241
      N    5   -0.34109      0.99972     2.83059    0.01078     3.84109
      C    6   -0.08035      0.99956     2.07007    0.01072     3.08035
      C    7   -0.05975      0.99955     2.04618    0.01402     3.05975
      C    8   -0.00565      0.99954     1.99468    0.01143     3.00565
      O    9   -0.30569      0.99990     3.29727    0.00852     4.30569
      C   10   -0.01887      0.99957     2.00496    0.01434     3.01887
      C   11   -0.02124      0.99955     2.00609    0.01560     3.02124
      N   12   -0.42080      0.99977     2.91039    0.01063     3.92080
      C   13   -0.28755      0.99962     2.28011    0.00781     3.28755
      C   14   -0.27595      0.99962     2.27127    0.00506     3.27595
      H   15    0.09958      0.00000     0.39886    0.00156     0.40042
      H   16    0.10280      0.00000     0.39602    0.00118     0.39720
      H   17    0.10084      0.00000     0.39816    0.00100     0.39916
      H   18    0.10109      0.00000     0.39796    0.00095     0.39891
      H   19    0.10340      0.00000     0.39548    0.00112     0.39660
      H   20    0.09437      0.00000     0.40444    0.00119     0.40563
      H   21    0.17576      0.00000     0.32002    0.00421     0.32424
      H   22    0.09926      0.00000     0.39915    0.00159     0.40074
      H   23    0.08891      0.00000     0.40953    0.00155     0.41109
      H   24    0.08069      0.00000     0.41796    0.00134     0.41931
      H   25    0.09476      0.00000     0.40387    0.00137     0.40524
      H   26    0.09167      0.00000     0.40656    0.00177     0.40833
      H   27    0.07980      0.00000     0.41865    0.00155     0.42020
      H   28    0.09968      0.00000     0.39830    0.00202     0.40032
      H   29    0.17700      0.00000     0.32111    0.00189     0.32300
      H   30    0.17299      0.00000     0.32476    0.00225     0.32701
      H   31    0.10259      0.00000     0.39603    0.00138     0.39741
      H   32    0.09935      0.00000     0.39952    0.00113     0.40065
      H   33    0.10231      0.00000     0.39622    0.00147     0.39769
      H   34    0.09845      0.00000     0.40036    0.00119     0.40155
      H   35    0.09919      0.00000     0.39969    0.00112     0.40081
      H   36    0.09900      0.00000     0.39994    0.00106     0.40100
 =======================================================================
   * Total *    0.00000     13.99468    40.82334    0.18198    55.00000

 Normal termination of Gaussian 16 at Thu Dec 10 10:36:41 2020.
