 Gaussian 16, Revision A.03,

 -----------------------------------------------------------
 # opt freq B3LYP/6-31G(d) empiricaldispersion=gd3bj scf=xqc
 -----------------------------------------------------------

 -------------------------------
 CID_107713647_JID_8322_neutraal
 -------------------------------
 Symbolic Z-matrix:
 Charge =  0 Multiplicity = 1

 SCF Done:  E(RB3LYP) =  -1161.95847349     A.U. after   15 cycles
 SCF Done:  E(RB3LYP) =  -1161.96425755     A.U. after   12 cycles
 SCF Done:  E(RB3LYP) =  -1161.96517588     A.U. after   12 cycles
 SCF Done:  E(RB3LYP) =  -1161.96541789     A.U. after   12 cycles
 SCF Done:  E(RB3LYP) =  -1161.96549205     A.U. after   11 cycles
 SCF Done:  E(RB3LYP) =  -1161.96555438     A.U. after   11 cycles
 SCF Done:  E(RB3LYP) =  -1161.96563165     A.U. after   11 cycles
 SCF Done:  E(RB3LYP) =  -1161.96566887     A.U. after   11 cycles
 SCF Done:  E(RB3LYP) =  -1161.96568418     A.U. after   11 cycles
 SCF Done:  E(RB3LYP) =  -1161.96569020     A.U. after   11 cycles
 SCF Done:  E(RB3LYP) =  -1161.96569211     A.U. after   10 cycles
 SCF Done:  E(RB3LYP) =  -1161.96569288     A.U. after    9 cycles
 SCF Done:  E(RB3LYP) =  -1161.96569302     A.U. after    8 cycles
 SCF Done:  E(RB3LYP) =  -1161.96569319     A.U. after    8 cycles
 Optimization completed.
    -- Stationary point found.
 Normal termination of Gaussian 16 at Fri Dec 11 20:01:30 2020.

 --------------------------------------------------------------------
 #N Geom=AllCheck Guess=TCheck SCRF=Check GenChk RB3LYP/6-31G(d) Freq
 --------------------------------------------------------------------

 Structure from the checkpoint file:  "JID_8322.chk"
 -------------------------------
 CID_107713647_JID_8322_neutraal
 -------------------------------
 Charge =  0 Multiplicity = 1

 SCF Done:  E(RB3LYP) =  -1161.96569319     A.U. after    1 cycles

  Exact polarizability: 189.137  20.838 158.486   2.896   1.116 144.998
 Approx polarizability: 257.407  41.245 254.229  14.790  12.489 244.999

                      1                      2                      3
                      A                      A                      A
 Frequencies --     19.4514                25.9218                32.5623
 Red. masses --      4.8911                 6.0511                 3.4882
 Frc consts  --      0.0011                 0.0024                 0.0022
 IR Inten    --      0.0567                 0.2466                 0.3474

                      4                      5                      6
                      A                      A                      A
 Frequencies --     48.2333                57.4401                88.5618
 Red. masses --      4.9426                 5.2610                 5.2504
 Frc consts  --      0.0068                 0.0102                 0.0243
 IR Inten    --      0.3867                 0.7159                 0.9593

                      7                      8                      9
                      A                      A                      A
 Frequencies --    140.3159               151.3789               166.2720
 Red. masses --      3.2519                 3.5948                 3.3447
 Frc consts  --      0.0377                 0.0485                 0.0545
 IR Inten    --      0.9217                 0.9457                 2.0712

                     10                     11                     12
                      A                      A                      A
 Frequencies --    197.0294               243.6912               262.5043
 Red. masses --      3.9816                 5.9148                 8.0534
 Frc consts  --      0.0911                 0.2070                 0.3270
 IR Inten    --      0.5931                 0.6326                 1.2119

                     13                     14                     15
                      A                      A                      A
 Frequencies --    297.0189               347.8329               369.4619
 Red. masses --      5.7744                 2.2309                 4.0653
 Frc consts  --      0.3001                 0.1590                 0.3270
 IR Inten    --      4.0759                33.5136                 3.0245

                     16                     17                     18
                      A                      A                      A
 Frequencies --    377.1021               391.6484               433.3020
 Red. masses --      1.3641                 5.1875                 4.2402
 Frc consts  --      0.1143                 0.4688                 0.4690
 IR Inten    --     99.2629                13.6360                18.1145

                     19                     20                     21
                      A                      A                      A
 Frequencies --    453.6475               496.9879               538.6572
 Red. masses --      2.9900                 3.3315                 4.9981
 Frc consts  --      0.3625                 0.4848                 0.8544
 IR Inten    --      2.1003                 4.8510                 2.8411

                     22                     23                     24
                      A                      A                      A
 Frequencies --    573.3534               592.9058               606.2187
 Red. masses --      4.4384                 4.0020                 9.9154
 Frc consts  --      0.8597                 0.8289                 2.1469
 IR Inten    --      0.9471                 1.2879                 1.6215

                     25                     26                     27
                      A                      A                      A
 Frequencies --    612.0053               640.7660               734.8843
 Red. masses --      5.8124                 5.9433                 5.1501
 Frc consts  --      1.2827                 1.4377                 1.6387
 IR Inten    --      1.0837                 6.2192                 5.8496

                     28                     29                     30
                      A                      A                      A
 Frequencies --    742.8815               757.2100               765.6928
 Red. masses --      5.2955                 3.5257                 1.3583
 Frc consts  --      1.7218                 1.1910                 0.4692
 IR Inten    --      5.6901                 2.4968                31.6404

                     31                     32                     33
                      A                      A                      A
 Frequencies --    792.9220               817.7878               832.8162
 Red. masses --      1.6441                 2.2567                 1.7473
 Frc consts  --      0.6090                 0.8892                 0.7140
 IR Inten    --      6.8447                 7.5580                 7.0321

                     34                     35                     36
                      A                      A                      A
 Frequencies --    835.3834               847.9853               871.7874
 Red. masses --      3.2560                 4.8300                 1.6994
 Frc consts  --      1.3388                 2.0463                 0.7610
 IR Inten    --      9.0925                 6.7567                 1.2197

                     37                     38                     39
                      A                      A                      A
 Frequencies --    896.7876               902.2145               921.7091
 Red. masses --      2.0658                 3.7014                 2.5873
 Frc consts  --      0.9789                 1.7752                 1.2950
 IR Inten    --      4.0218                 4.2425                 0.2203

                     40                     41                     42
                      A                      A                      A
 Frequencies --    945.7749               958.3223               984.3887
 Red. masses --      1.4806                 1.8647                 1.2598
 Frc consts  --      0.7803                 1.0090                 0.7193
 IR Inten    --      4.6658                13.5649                 0.0355

                     43                     44                     45
                      A                      A                      A
 Frequencies --   1014.9001              1049.9107              1072.5126
 Red. masses --      4.2602                 1.8893                 1.2673
 Frc consts  --      2.5854                 1.2271                 0.8589
 IR Inten    --     42.0261                 9.5420                11.2558

                     46                     47                     48
                      A                      A                      A
 Frequencies --   1074.9918              1083.3093              1094.7333
 Red. masses --      2.0639                 3.8827                 1.3358
 Frc consts  --      1.4052                 2.6847                 0.9432
 IR Inten    --      8.2952                94.8308                 2.7223

                     49                     50                     51
                      A                      A                      A
 Frequencies --   1125.9030              1131.6055              1137.6924
 Red. masses --      1.6582                 2.2464                 1.0948
 Frc consts  --      1.2385                 1.6949                 0.8349
 IR Inten    --      8.3685                40.4349                 1.5218

                     52                     53                     54
                      A                      A                      A
 Frequencies --   1191.0458              1197.5440              1206.1121
 Red. masses --      1.1943                 1.8382                 1.2706
 Frc consts  --      0.9982                 1.5532                 1.0891
 IR Inten    --      5.5982                29.0118                34.9650

                     55                     56                     57
                      A                      A                      A
 Frequencies --   1221.1043              1232.1789              1234.5940
 Red. masses --      1.3721                 2.3278                 1.3850
 Frc consts  --      1.2055                 2.0823                 1.2438
 IR Inten    --      0.4025                12.8456                 0.3125

                     58                     59                     60
                      A                      A                      A
 Frequencies --   1244.7036              1269.2130              1281.9786
 Red. masses --      2.6161                 4.7479                 3.6812
 Frc consts  --      2.3880                 4.5063                 3.5645
 IR Inten    --     27.1370               572.2504                46.3339

                     61                     62                     63
                      A                      A                      A
 Frequencies --   1319.9963              1359.8933              1375.8779
 Red. masses --      1.4362                 3.6979                 1.6150
 Frc consts  --      1.4744                 4.0292                 1.8012
 IR Inten    --      0.4234                 0.9407                 2.9094

                     64                     65                     66
                      A                      A                      A
 Frequencies --   1406.1561              1435.8808              1447.6116
 Red. masses --      1.2290                 1.2452                 2.3023
 Frc consts  --      1.4318                 1.5126                 2.8427
 IR Inten    --     10.1143                75.1218               197.4065

                     67                     68                     69
                      A                      A                      A
 Frequencies --   1485.3115              1498.7733              1518.5152
 Red. masses --      1.0887                 2.2015                 1.3487
 Frc consts  --      1.4151                 2.9137                 1.8323
 IR Inten    --      1.9777                21.8696                 8.0445

                     70                     71                     72
                      A                      A                      A
 Frequencies --   1519.7534              1524.9453              1537.5848
 Red. masses --      2.1046                 2.2203                 1.7503
 Frc consts  --      2.8639                 3.0421                 2.4380
 IR Inten    --     48.5550               101.6867                27.0978

                     73                     74                     75
                      A                      A                      A
 Frequencies --   1539.5064              1580.6032              1641.9417
 Red. masses --      1.3698                 8.2127                 6.0042
 Frc consts  --      1.9128                12.0888                 9.5371
 IR Inten    --     12.0330               273.3060                 3.8108

                     76                     77                     78
                      A                      A                      A
 Frequencies --   1670.3405              3015.5629              3073.1680
 Red. masses --      6.6550                 1.0699                 1.0605
 Frc consts  --     10.9397                 5.7323                 5.9010
 IR Inten    --      1.1493                41.4664                12.9185

                     79                     80                     81
                      A                      A                      A
 Frequencies --   3110.7708              3119.2198              3155.0073
 Red. masses --      1.0943                 1.1048                 1.0503
 Frc consts  --      6.2392                 6.3334                 6.1599
 IR Inten    --     45.1173                20.1033                15.9367

                     82                     83                     84
                      A                      A                      A
 Frequencies --   3157.3474              3191.0078              3201.9676
 Red. masses --      1.0582                 1.0865                 1.0898
 Frc consts  --      6.2153                 6.5185                 6.5828
 IR Inten    --     12.5604                 1.5665                 8.3172

                     85                     86                     87
                      A                      A                      A
 Frequencies --   3207.7036              3213.4266              3224.5297
 Red. masses --      1.0906                 1.0938                 1.0963
 Frc consts  --      6.6118                 6.6547                 6.7162
 IR Inten    --      2.5745                20.5408                 7.3374

                     88                     89                     90
                      A                      A                      A
 Frequencies --   3237.7948              3251.4950              3724.6277
 Red. masses --      1.1203                 1.1164                 1.0656
 Frc consts  --      6.9197                 6.9537                 8.7098
 IR Inten    --      0.4731                11.5318                13.1286

 - Thermochemistry -
 -------------------
 Temperature   298.150 Kelvin.  Pressure   1.00000 Atm.
 Atom     1 has atomic number  6 and mass  12.00000

 Molecular mass:   262.07760 amu.
 Principal axes and moments of inertia in atomic units:
                           1         2         3
     Eigenvalues --  2902.292688254.078298909.43432
           X            0.99992  -0.00852  -0.00931
           Y            0.00811   0.99902  -0.04355
           Z            0.00967   0.04347   0.99901
 This molecule is an asymmetric top.
 Rotational symmetry number  1.
 Warning -- assumption of classical behavior for rotation
           may cause significant error
 Rotational temperatures (Kelvin)      0.02984     0.01049     0.00972
 Rotational constants (GHZ):           0.62183     0.21865     0.20257
 Zero-point vibrational energy     666219.3 (Joules/Mol)
                                  159.23024 (Kcal/Mol)
 Warning -- explicit consideration of  25 degrees of freedom as
           vibrations may cause significant error
 Vibrational temperatures:     27.99    37.30    46.85    69.40    82.64
          (Kelvin)            127.42   201.88   217.80   239.23   283.48
                              350.62   377.69   427.34   500.45   531.57
                              542.57   563.49   623.42   652.70   715.05
                              775.01   824.93   853.06   872.21   880.54
                              921.92  1057.33  1068.84  1089.46  1101.66
                             1140.84  1176.61  1198.24  1201.93  1220.06
                             1254.31  1290.28  1298.09  1326.13  1360.76
                             1378.81  1416.32  1460.21  1510.59  1543.11
                             1546.67  1558.64  1575.08  1619.92  1628.13
                             1636.89  1713.65  1723.00  1735.33  1756.90
                             1772.83  1776.31  1790.85  1826.11  1844.48
                             1899.18  1956.58  1979.58  2023.14  2065.91
                             2082.79  2137.03  2156.40  2184.80  2186.59
                             2194.06  2212.24  2215.01  2274.14  2362.39
                             2403.25  4338.72  4421.60  4475.71  4487.86
                             4539.35  4542.72  4591.15  4606.92  4615.17
                             4623.40  4639.38  4658.46  4678.18  5358.91

 Zero-point correction=                           0.253750 (Hartree/Particle)
 Thermal correction to Energy=                    0.270171
 Thermal correction to Enthalpy=                  0.271115
 Thermal correction to Gibbs Free Energy=         0.206393
 Sum of electronic and zero-point Energies=          -1161.711944
 Sum of electronic and thermal Energies=             -1161.695522
 Sum of electronic and thermal Enthalpies=           -1161.694578
 Sum of electronic and thermal Free Energies=        -1161.759300

                     E (Thermal)             CV                S
                      KCal/Mol        Cal/Mol-Kelvin    Cal/Mol-Kelvin
 Total                  169.535             61.842            136.219
 Electronic               0.000              0.000              0.000
 Translational            0.889              2.981             42.590
 Rotational               0.889              2.981             33.723
 Vibrational            167.757             55.880             59.907
 Vibration     1          0.593              1.986              6.689
 Vibration     2          0.593              1.985              6.119
 Vibration     3          0.594              1.983              5.667
 Vibration     4          0.595              1.978              4.889
 Vibration     5          0.596              1.975              4.543
 Vibration     6          0.601              1.957              3.692
 Vibration     7          0.615              1.913              2.800
 Vibration     8          0.619              1.901              2.655
 Vibration     9          0.624              1.884              2.477
 Vibration    10          0.636              1.844              2.161
 Vibration    11          0.659              1.773              1.776
 Vibration    12          0.670              1.742              1.645
 Vibration    13          0.691              1.679              1.434
 Vibration    14          0.725              1.580              1.176
 Vibration    15          0.742              1.535              1.082
 Vibration    16          0.748              1.519              1.051
 Vibration    17          0.759              1.488              0.994
 Vibration    18          0.794              1.398              0.848
 Vibration    19          0.812              1.353              0.785
 Vibration    20          0.853              1.257              0.666
 Vibration    21          0.894              1.165              0.568
 Vibration    22          0.930              1.089              0.498
 Vibration    23          0.950              1.047              0.462
 Vibration    24          0.965              1.019              0.439
 Vibration    25          0.971              1.006              0.429

                           ! Non-Optimized Parameters !
 Normal termination of Gaussian 16 at Fri Dec 11 20:13:55 2020.

 ----------------------------------------------------------------------
 # B3LYP/6-311++G(d,p) empiricaldispersion=gd3bj scf=xqc pop=npa geom=c
 heck
 ----------------------------------------------------------------------

 ---------------------------------------
 CID_107713647_JID_8322_Energie_neutraal
 ---------------------------------------
 Structure from the checkpoint file:  "JID_8322.chk"
 Charge =  0 Multiplicity = 1

 SCF Done:  E(RB3LYP) =  -1162.20469890     A.U. after   16 cycles
 Normal termination of Gaussian 16 at Fri Dec 11 20:19:24 2020.

 ----------------------------------------------------------------------
 # B3LYP/6-311++G(d,p) empiricaldispersion=gd3bj scf=xqc pop=npa geom=c
 heck
 ----------------------------------------------------------------------

 -------------------------------------
 CID_107713647_JID_8322_Energie_kation
 -------------------------------------
 Structure from the checkpoint file:  "JID_8322.chk"
 Charge =  1 Multiplicity = 2

 SCF Done:  E(UB3LYP) =  -1161.89471034     A.U. after   28 cycles
 Normal termination of Gaussian 16 at Fri Dec 11 20:32:24 2020.
 Gaussian 16:  ES64L-G16RevA.03 25-Dec-2016

 ----------------------------------------------------------------------
 # B3LYP/6-311++G(d,p) empiricaldispersion=gd3bj scf=xqc pop=npa geom=c
 heck
 ----------------------------------------------------------------------

 ------------------------------------
 CID_107713647_JID_8322_Energie_anion
 ------------------------------------
 Structure from the checkpoint file:  "JID_8322.chk"
 Charge = -1 Multiplicity = 2

                         Standard orientation:
 ---------------------------------------------------------------------
 Center     Atomic      Atomic             Coordinates (Angstroms)
 Number     Number       Type             X           Y           Z
 ---------------------------------------------------------------------
      1          6           0       -4.776228    1.248904    0.693056
      2          6           0       -4.462746    0.269632    1.779505
      3          6           0       -3.327057    0.949721    1.034333
      4          6           0       -2.507553    0.163068    0.089719
      5          7           0       -3.033620   -0.799332   -0.638063
      6         16           0       -1.803734   -1.470581   -1.586358
      7          6           0       -0.642973   -0.357398   -0.901450
      8          7           0       -1.158711    0.450410   -0.023095
      9          8           0        0.635052   -0.409441   -1.292218
     10          6           0        1.539843    0.493198   -0.693692
     11          6           0        1.903841    1.612982   -1.427177
     12          6           0        2.867604    2.478661   -0.908996
     13          6           0        3.445051    2.205864    0.330406
     14          6           0        3.056381    1.073872    1.048901
     15          6           0        2.085479    0.191004    0.557518
     16          6           0        1.723343   -1.067304    1.305846
     17          6           0        2.514585   -2.278802    0.782401
     18          8           0        3.915151   -2.117035    0.943407
     19          1           0       -5.158868    2.228531    0.964084
     20          1           0       -5.134264    0.855301   -0.252988
     21          1           0       -4.625357    0.562193    2.812728
     22          1           0       -4.609478   -0.784500    1.566262
     23          1           0       -2.762454    1.712202    1.559216
     24          1           0        1.437075    1.790502   -2.390219
     25          1           0        3.162362    3.358098   -1.473132
     26          1           0        4.197641    2.872693    0.740307
     27          1           0        3.504049    0.864379    2.016446
     28          1           0        1.957108   -0.933929    2.367226
     29          1           0        0.650252   -1.270917    1.231896
     30          1           0        2.247204   -3.169624    1.358616
     31          1           0        2.248785   -2.465430   -0.269301
     32          1           0        4.172967   -1.336361    0.426965
 ---------------------------------------------------------------------

 SCF Done:  E(UB3LYP) =  -1162.19718846     A.U. after   33 cycles
 SCF Done:  E(UB3LYP) =  -1162.19724776     a.u. after    4 cycles

 The electronic state is 2-A.
 Alpha  occ. eigenvalues --  -88.77615 -19.07199 -19.02550 -14.19478 -14.19419
 Alpha  occ. eigenvalues --  -10.16654 -10.13060 -10.11891 -10.11730 -10.08321
 Alpha  occ. eigenvalues --  -10.07794 -10.07768 -10.07646 -10.07051 -10.06995
 Alpha  occ. eigenvalues --  -10.06981 -10.06694 -10.06539  -7.86078  -5.82466
 Alpha  occ. eigenvalues --   -5.82036  -5.81566  -0.99837  -0.92725  -0.87952
 Alpha  occ. eigenvalues --   -0.76812  -0.75800  -0.74825  -0.68411  -0.66653
 Alpha  occ. eigenvalues --   -0.63428  -0.61869  -0.54879  -0.53853  -0.52587
 Alpha  occ. eigenvalues --   -0.50636  -0.49915  -0.46510  -0.44878  -0.41685
 Alpha  occ. eigenvalues --   -0.41267  -0.39882  -0.39176  -0.38319  -0.36976
 Alpha  occ. eigenvalues --   -0.35432  -0.33835  -0.33404  -0.33029  -0.32097
 Alpha  occ. eigenvalues --   -0.30269  -0.29823  -0.28510  -0.28047  -0.26745
 Alpha  occ. eigenvalues --   -0.25908  -0.25360  -0.25144  -0.24602  -0.23027
 Alpha  occ. eigenvalues --   -0.21450  -0.20829  -0.19672  -0.18421  -0.17300
 Alpha  occ. eigenvalues --   -0.16526  -0.15359  -0.14328  -0.12862   0.04779
 Alpha virt. eigenvalues --    0.06558   0.07047   0.07601   0.08172   0.08351
 Alpha virt. eigenvalues --    0.09149   0.09236   0.09569   0.09751   0.10043
 Alpha virt. eigenvalues --    0.10306   0.10660   0.11783   0.12418   0.12606

  Beta  occ. eigenvalues --  -88.77595 -19.07158 -19.02550 -14.19470 -14.19234
  Beta  occ. eigenvalues --  -10.16344 -10.13079 -10.11786 -10.11715 -10.08336
  Beta  occ. eigenvalues --  -10.07746 -10.07745 -10.07615 -10.07053 -10.06991
  Beta  occ. eigenvalues --  -10.06922 -10.06577 -10.06412  -7.86060  -5.82461
  Beta  occ. eigenvalues --   -5.82034  -5.81490  -0.99679  -0.92723  -0.87730
  Beta  occ. eigenvalues --   -0.76717  -0.75656  -0.74604  -0.68293  -0.66420
  Beta  occ. eigenvalues --   -0.63221  -0.61761  -0.54778  -0.53694  -0.52393
  Beta  occ. eigenvalues --   -0.50572  -0.49729  -0.46367  -0.44761  -0.41577
  Beta  occ. eigenvalues --   -0.41225  -0.39767  -0.39084  -0.38113  -0.36892
  Beta  occ. eigenvalues --   -0.35350  -0.33753  -0.32989  -0.32825  -0.31936
  Beta  occ. eigenvalues --   -0.30162  -0.29750  -0.28439  -0.27815  -0.26535
  Beta  occ. eigenvalues --   -0.25663  -0.25211  -0.24993  -0.24425  -0.22924
  Beta  occ. eigenvalues --   -0.21342  -0.20541  -0.19498  -0.18371  -0.16912
  Beta  occ. eigenvalues --   -0.16400  -0.14682  -0.14055  -0.11965
  Beta virt. eigenvalues --    0.06944   0.07172   0.07795   0.08427   0.08698
  Beta virt. eigenvalues --    0.09003   0.09278   0.09528   0.09614   0.10137
  Beta virt. eigenvalues --    0.10248   0.10427   0.10721   0.11894   0.12481

 Mulliken charges and spin densities:
               1          2
     1  C   -0.483326  -0.019623
     2  C   -0.164707  -0.315220
     3  C    0.296196   0.311538
     4  C   -0.870352  -0.110689
     5  N   -0.070300   0.089910
     6  S    0.142714   0.015203
     7  C    0.027777  -0.010373
     8  N    0.141243   0.020744
     9  O    0.039943   0.018253
    10  C   -1.346432   0.431634
    11  C    0.157352   0.161317
    12  C    0.503587  -0.723205
    13  C    0.271892  -0.589280
    14  C   -0.163084  -0.033138
    15  C    0.328858   0.755376
    16  C    0.132529  -0.592263
    17  C   -0.080282  -0.395394
    18  O   -0.284222   0.002910
    19  H    0.139561  -0.014747
    20  H    0.128455   0.014204
    21  H   -0.077001   0.210523
    22  H    0.135481   0.007321
    23  H    0.144166   0.112265
    24  H    0.158322  -0.015803
    25  H   -0.180175   0.325698
    26  H   -0.424886   0.581826
    27  H    0.058046   0.096552
    28  H   -0.126515   0.332105
    29  H    0.078750   0.112639
    30  H   -0.011434   0.178693
    31  H    0.139334   0.044350
    32  H    0.258512  -0.003325
 Sum of Mulliken charges =  -1.00000   1.00000

 Dipole moment (field-independent basis, Debye):
    X=             -2.2716    Y=             -0.2718    Z=             -1.8668  Tot=              2.9528
 Quadrupole moment (field-independent basis, Debye-Ang):
   XX=           -181.6348   YY=           -147.5346   ZZ=           -137.6690
   XY=             -9.7794   XZ=             -4.7330   YZ=              1.4882

 Summary of Natural Population Analysis:

                                       Natural Population
                Natural  -----------------------------------------------
    Atom  No    Charge         Core      Valence    Rydberg      Total
 -----------------------------------------------------------------------
      C    1   -0.18952      0.99963     2.18328    0.00661     3.18952
      C    2   -0.18972      0.99963     2.18234    0.00775     3.18972
      C    3   -0.13265      0.99955     2.12101    0.01209     3.13265
      C    4    0.21037      0.99961     1.76993    0.02010     2.78963
      N    5   -0.31236      0.99968     2.80131    0.01137     3.81236
      S    6    0.24591      4.99945     2.72938    0.02526     7.75409
      C    7    0.24097      0.99954     1.73637    0.02313     2.75903
      N    8   -0.29488      0.99961     2.78546    0.00981     3.79488
      O    9   -0.26764      0.99982     3.25773    0.01009     4.26764
      C   10    0.14941      0.99927     1.83717    0.01415     2.85059
      C   11   -0.09467      0.99950     2.08546    0.00972     3.09467
      C   12   -0.09152      0.99957     2.08173    0.01021     3.09152
      C   13   -0.10896      0.99957     2.09919    0.01021     3.10896
      C   14   -0.08218      0.99952     2.07270    0.00995     3.08218
      C   15   -0.02888      0.99944     2.01844    0.01100     3.02888
      C   16   -0.21340      0.99959     2.20386    0.00994     3.21340
      C   17   -0.00658      0.99960     1.99356    0.01342     3.00658
      O   18   -0.37264      0.99990     3.36632    0.00641     4.37264
      H   19    0.09643      0.00000     0.40270    0.00086     0.40357
      H   20    0.10813      0.00000     0.39066    0.00122     0.39187
      H   21    0.09850      0.00000     0.40062    0.00089     0.40150
      H   22    0.10875      0.00000     0.38986    0.00139     0.39125
      H   23    0.11368      0.00000     0.38539    0.00093     0.38632
      H   24    0.10367      0.00000     0.39542    0.00091     0.39633
      H   25    0.09874      0.00000     0.40033    0.00093     0.40126
      H   26    0.09992      0.00000     0.39899    0.00109     0.40008
      H   27    0.10022      0.00000     0.39875    0.00103     0.39978
      H   28    0.10354      0.00000     0.39519    0.00127     0.39646
      H   29    0.11295      0.00000     0.38534    0.00171     0.38705
      H   30    0.08514      0.00000     0.41369    0.00117     0.41486
      H   31    0.07893      0.00000     0.41981    0.00125     0.42107
      H   32    0.23032      0.00000     0.26676    0.00292     0.26968
 =======================================================================
   * Total *   -0.00000     21.99249    46.76871    0.23880    69.00000

 Normal termination of Gaussian 16 at Fri Dec 11 21:33:59 2020.
