 Gaussian 16, Revision A.03,

 -----------------------------------------------------------
 # opt freq B3LYP/6-31G(d) empiricaldispersion=gd3bj scf=xqc
 -----------------------------------------------------------

 ------------------------------
 CID_67685696_JID_1390_neutraal
 ------------------------------
 Symbolic Z-matrix:
 Charge =  0 Multiplicity = 1

 SCF Done:  E(RB3LYP) =  -578.364841088     A.U. after   18 cycles
 SCF Done:  E(RB3LYP) =  -578.369408591     A.U. after   13 cycles
 SCF Done:  E(RB3LYP) =  -578.369695624     A.U. after   12 cycles
 SCF Done:  E(RB3LYP) =  -578.369717768     A.U. after   10 cycles
 SCF Done:  E(RB3LYP) =  -578.369726381     A.U. after   10 cycles
 SCF Done:  E(RB3LYP) =  -578.369732758     A.U. after   10 cycles
 SCF Done:  E(RB3LYP) =  -578.369746625     A.U. after    9 cycles
 SCF Done:  E(RB3LYP) =  -578.314456780     A.U. after   14 cycles
 SCF Done:  E(RB3LYP) =  -578.370974004     A.U. after   13 cycles
 SCF Done:  E(RB3LYP) =  -578.363996419     A.U. after   15 cycles
 SCF Done:  E(RB3LYP) =  -578.375899482     A.U. after   12 cycles
 SCF Done:  E(RB3LYP) =  -578.375923951     A.U. after   12 cycles
 SCF Done:  E(RB3LYP) =  -578.375927633     A.U. after   11 cycles
 SCF Done:  E(RB3LYP) =  -578.375931970     A.U. after    9 cycles
 SCF Done:  E(RB3LYP) =  -578.375933075     A.U. after    9 cycles
 SCF Done:  E(RB3LYP) =  -578.375933898     A.U. after    9 cycles
 Optimization completed.
    -- Stationary point found.
 Normal termination of Gaussian 16 at Tue Dec  8 19:56:10 2020.

 --------------------------------------------------------------------
 #N Geom=AllCheck Guess=TCheck SCRF=Check GenChk RB3LYP/6-31G(d) Freq
 --------------------------------------------------------------------

 Structure from the checkpoint file:  "JID_1390.chk"
 ------------------------------
 CID_67685696_JID_1390_neutraal
 ------------------------------
 Charge =  0 Multiplicity = 1

 SCF Done:  E(RB3LYP) =  -578.375933898     A.U. after    1 cycles

  Exact polarizability: 105.314   6.522  85.714  -1.543  -0.725  31.676
 Approx polarizability: 179.462  32.161 169.337  -3.763  -0.920  50.649

                      1                      2                      3
                      A                      A                      A
 Frequencies --     74.6134               151.3173               203.1457
 Red. masses --      9.2955                 8.2325                 6.0903
 Frc consts  --      0.0305                 0.1111                 0.1481
 IR Inten    --      0.7305                 0.5566                 1.2207

                      4                      5                      6
                      A                      A                      A
 Frequencies --    305.3355               313.5673               360.6207
 Red. masses --      9.2130                 4.4810                12.5720
 Frc consts  --      0.5061                 0.2596                 0.9633
 IR Inten    --      5.1468                12.0546                 1.0407

                      7                      8                      9
                      A                      A                      A
 Frequencies --    402.7632               446.4010               498.2496
 Red. masses --      4.8991                 8.0693                10.7073
 Frc consts  --      0.4682                 0.9474                 1.5661
 IR Inten    --      8.6046                 4.2746                 7.1067

                     10                     11                     12
                      A                      A                      A
 Frequencies --    565.7116               602.1005               620.2947
 Red. masses --      1.9795                 2.3115                 5.8230
 Frc consts  --      0.3733                 0.4937                 1.3201
 IR Inten    --     34.3374               106.6478                54.0783

                     13                     14                     15
                      A                      A                      A
 Frequencies --    671.8418               699.3949               725.9544
 Red. masses --      4.4868                 2.1648                 2.4962
 Frc consts  --      1.1932                 0.6239                 0.7751
 IR Inten    --     65.5108                99.4689                40.7417

                     16                     17                     18
                      A                      A                      A
 Frequencies --    746.3228               807.2479               876.8070
 Red. masses --      4.0368                10.0704                 2.7670
 Frc consts  --      1.3248                 3.8664                 1.2533
 IR Inten    --     74.8704                 4.1225                69.1778

                     19                     20                     21
                      A                      A                      A
 Frequencies --    989.8025              1011.1713              1130.6491
 Red. masses --      8.3034                 9.3923                 4.2351
 Frc consts  --      4.7929                 5.6581                 3.1898
 IR Inten    --     10.4461                50.0936                21.7347

                     22                     23                     24
                      A                      A                      A
 Frequencies --   1177.5531              1231.3933              1269.8096
 Red. masses --      4.9695                 3.7136                 5.0783
 Frc consts  --      4.0600                 3.3177                 4.8245
 IR Inten    --     51.2438                20.6617                21.5292

                     25                     26                     27
                      A                      A                      A
 Frequencies --   1303.8556              1391.7856              1432.0225
 Red. masses --     10.7590                 2.2827                 2.4750
 Frc consts  --     10.7766                 2.6052                 2.9904
 IR Inten    --      1.0973                27.2088                31.1853

                     28                     29                     30
                      A                      A                      A
 Frequencies --   1473.8768              1503.5254              1567.9902
 Red. masses --      1.7525                 1.5205                 4.1908
 Frc consts  --      2.2430                 2.0252                 6.0706
 IR Inten    --     17.6742                14.2454                14.6902

                     31                     32                     33
                      A                      A                      A
 Frequencies --   1621.5068              1802.5801              1815.6336
 Red. masses --      6.5935                10.6926                12.2323
 Frc consts  --     10.2141                20.4702                23.7582
 IR Inten    --    150.8770               454.9005                91.0708

                     34                     35                     36
                      A                      A                      A
 Frequencies --   3511.8576              3575.5243              3651.9176
 Red. masses --      1.0762                 1.0776                 1.0828
 Frc consts  --      7.8202                 8.1165                 8.5082
 IR Inten    --     30.0335                38.6464               153.9556

 - Thermochemistry -
 -------------------
 Temperature   298.150 Kelvin.  Pressure   1.00000 Atm.
 Atom     1 has atomic number  6 and mass  12.00000

 Molecular mass:   153.02867 amu.
 Principal axes and moments of inertia in atomic units:
                           1         2         3
     Eigenvalues --   808.099471724.438132525.38960
           X            0.99976  -0.02183  -0.00099
           Y            0.02183   0.99975  -0.00472
           Z            0.00109   0.00470   0.99999
 This molecule is an asymmetric top.
 Rotational symmetry number  1.
 Warning -- assumption of classical behavior for rotation
           may cause significant error
 Rotational temperatures (Kelvin)      0.10718     0.05023     0.03430
 Rotational constants (GHZ):           2.23332     1.04657     0.71464
 Zero-point vibrational energy     242448.0 (Joules/Mol)
                                   57.94647 (Kcal/Mol)
 Warning -- explicit consideration of  12 degrees of freedom as
           vibrations may cause significant error
 Vibrational temperatures:    107.35   217.71   292.28   439.31   451.15
          (Kelvin)            518.85   579.49   642.27   716.87   813.93
                              866.29   892.47   966.63  1006.27  1044.49
                             1073.79  1161.45  1261.53  1424.11  1454.85
                             1626.75  1694.24  1771.70  1826.97  1875.96
                             2002.47  2060.36  2120.58  2163.24  2255.99
                             2332.99  2593.51  2612.29  5052.78  5144.38
                             5254.29

 Zero-point correction=                           0.092344 (Hartree/Particle)
 Thermal correction to Energy=                    0.100368
 Thermal correction to Enthalpy=                  0.101312
 Thermal correction to Gibbs Free Energy=         0.058996
 Sum of electronic and zero-point Energies=           -578.283590
 Sum of electronic and thermal Energies=              -578.275566
 Sum of electronic and thermal Enthalpies=            -578.274622
 Sum of electronic and thermal Free Energies=         -578.316938

                     E (Thermal)             CV                S
                      KCal/Mol        Cal/Mol-Kelvin    Cal/Mol-Kelvin
 Total                   62.982             30.387             89.062
 Electronic               0.000              0.000              0.000
 Translational            0.889              2.981             40.986
 Rotational               0.889              2.981             29.644
 Vibrational             61.204             24.425             18.432
 Vibration     1          0.599              1.966              4.028
 Vibration     2          0.619              1.901              2.656
 Vibration     3          0.639              1.835              2.104
 Vibration     4          0.696              1.664              1.387
 Vibration     5          0.701              1.648              1.343
 Vibration     6          0.735              1.553              1.119
 Vibration     7          0.768              1.464              0.953
 Vibration     8          0.806              1.369              0.807
 Vibration     9          0.854              1.254              0.663
 Vibration    10          0.922              1.105              0.513
 Vibration    11          0.960              1.027              0.446
 Vibration    12          0.980              0.989              0.416

                           ! Non-Optimized Parameters !
 Normal termination of Gaussian 16 at Tue Dec  8 19:58:37 2020.

 ----------------------------------------------------------------------
 # B3LYP/6-311++G(d,p) empiricaldispersion=gd3bj scf=xqc pop=npa geom=c
 heck
 ----------------------------------------------------------------------

 --------------------------------------
 CID_67685696_JID_1390_Energie_neutraal
 --------------------------------------
 Structure from the checkpoint file:  "JID_1390.chk"
 Charge =  0 Multiplicity = 1

 SCF Done:  E(RB3LYP) =  -578.545933641     A.U. after   17 cycles
 Normal termination of Gaussian 16 at Tue Dec  8 20:00:24 2020.

 ----------------------------------------------------------------------
 # B3LYP/6-311++G(d,p) empiricaldispersion=gd3bj scf=xqc pop=npa geom=c
 heck
 ----------------------------------------------------------------------

 ------------------------------------
 CID_67685696_JID_1390_Energie_kation
 ------------------------------------
 Structure from the checkpoint file:  "JID_1390.chk"
 Charge =  1 Multiplicity = 2

 SCF Done:  E(UB3LYP) =  -578.211804033     A.U. after   27 cycles
 Normal termination of Gaussian 16 at Tue Dec  8 20:03:07 2020.
 Gaussian 16:  ES64L-G16RevA.03 25-Dec-2016

 ----------------------------------------------------------------------
 # B3LYP/6-311++G(d,p) empiricaldispersion=gd3bj scf=xqc pop=npa geom=c
 heck
 ----------------------------------------------------------------------

 -----------------------------------
 CID_67685696_JID_1390_Energie_anion
 -----------------------------------
 Structure from the checkpoint file:  "JID_1390.chk"
 Charge = -1 Multiplicity = 2

                         Standard orientation:
 ---------------------------------------------------------------------
 Center     Atomic      Atomic             Coordinates (Angstroms)
 Number     Number       Type             X           Y           Z
 ---------------------------------------------------------------------
      1          6           0       -0.584409    0.581755   -0.026399
      2          7           0       -1.716718    1.314586   -0.016021
      3          7           0       -2.655221    0.394850   -0.007563
      4          7           0       -2.280526   -0.896233   -0.016858
      5          6           0       -0.950313   -0.782097   -0.037221
      6          7           0       -0.064112   -1.838140   -0.084432
      7          7           0        1.285004   -1.446132    0.139634
      8          6           0        1.800493   -0.157306    0.003049
      9          8           0        2.999062    0.009165   -0.105927
     10          6           0        0.802892    1.023383    0.027931
     11          8           0        1.203141    2.167203    0.069796
     12          1           0       -3.635030    0.644543   -0.000129
     13          1           0       -0.312221   -2.594003    0.550544
     14          1           0        1.938654   -2.158404   -0.168843
 ---------------------------------------------------------------------

 SCF Done:  E(UB3LYP) =  -578.582794648     A.U. after   25 cycles

 The electronic state is 2-A.
 Alpha  occ. eigenvalues --  -18.93562 -18.91019 -14.26652 -14.24586 -14.22730
 Alpha  occ. eigenvalues --  -14.20357 -14.18971 -10.11100 -10.10129 -10.06134
 Alpha  occ. eigenvalues --  -10.04811  -0.96453  -0.90684  -0.86823  -0.84880
 Alpha  occ. eigenvalues --   -0.75851  -0.70906  -0.66619  -0.56545  -0.49848
 Alpha  occ. eigenvalues --   -0.45969  -0.43285  -0.40432  -0.38521  -0.35528
 Alpha  occ. eigenvalues --   -0.33821  -0.32611  -0.28911  -0.26841  -0.25424
 Alpha  occ. eigenvalues --   -0.24456  -0.20892  -0.19635  -0.16110  -0.15951
 Alpha  occ. eigenvalues --   -0.13284  -0.12281  -0.08558  -0.07353   0.03359
 Alpha virt. eigenvalues --    0.08738   0.09333   0.11737   0.13073   0.15367
 Alpha virt. eigenvalues --    0.15703   0.17135   0.17346   0.18531   0.19331
 Alpha virt. eigenvalues --    0.19840   0.20257   0.20378   0.21421   0.22875

  Beta  occ. eigenvalues --  -18.93374 -18.90318 -14.26270 -14.24573 -14.22623
  Beta  occ. eigenvalues --  -14.20324 -14.18452 -10.10998 -10.10144 -10.05847
  Beta  occ. eigenvalues --  -10.04904  -0.95938  -0.90417  -0.86511  -0.83765
  Beta  occ. eigenvalues --   -0.75386  -0.70586  -0.66296  -0.55799  -0.49651
  Beta  occ. eigenvalues --   -0.45570  -0.43113  -0.40056  -0.38275  -0.35124
  Beta  occ. eigenvalues --   -0.33090  -0.31966  -0.28063  -0.26529  -0.24663
  Beta  occ. eigenvalues --   -0.23193  -0.19430  -0.18724  -0.15589  -0.14618
  Beta  occ. eigenvalues --   -0.11976  -0.11424  -0.07534  -0.06769
  Beta virt. eigenvalues --    0.08721   0.09355   0.10549   0.11858   0.14796
  Beta virt. eigenvalues --    0.15586   0.15840   0.17222   0.18204   0.18554
  Beta virt. eigenvalues --    0.19418   0.19887   0.20280   0.20454   0.21530

 Mulliken charges and spin densities:
               1          2
     1  C    0.394055  -0.021015
     2  N   -0.315865   0.249757
     3  N    0.060827   0.134879
     4  N   -0.289405   0.010190
     5  C   -0.396720  -0.047404
     6  N   -0.111959   0.026857
     7  N   -0.204385   0.028264
     8  C    0.004723   0.123953
     9  O   -0.405116   0.066369
    10  C   -0.087911   0.170366
    11  O   -0.433334   0.260549
    12  H    0.285839  -0.007970
    13  H    0.247941   0.006993
    14  H    0.251311  -0.001789
 Sum of Mulliken charges =  -1.00000   1.00000

 Dipole moment (field-independent basis, Debye):
    X=             -4.9285    Y=             -6.2049    Z=              0.5452  Tot=              7.9428
 Quadrupole moment (field-independent basis, Debye-Ang):
   XX=            -88.4141   YY=            -79.0636   ZZ=            -65.9340
   XY=            -10.7715   XZ=             -0.8153   YZ=             -2.0963

 Summary of Natural Population Analysis:

                                       Natural Population
                Natural  -----------------------------------------------
    Atom  No    Charge         Core      Valence    Rydberg      Total
 -----------------------------------------------------------------------
      C    1   -0.03001      0.99948     2.01389    0.01664     3.03001
      N    2   -0.04511      0.99972     2.53189    0.01350     3.54511
      N    3   -0.02612      0.99975     2.50993    0.01644     3.52612
      N    4   -0.18647      0.99970     2.67339    0.01338     3.68647
      C    5    0.13904      0.99952     1.84285    0.01860     2.86096
      N    6   -0.22171      0.99966     2.70940    0.01265     3.72171
      N    7   -0.22927      0.99968     2.71722    0.01238     3.72927
      C    8    0.31510      0.99968     1.65980    0.02542     2.68490
      O    9   -0.30036      0.99987     3.29265    0.00783     4.30036
      C   10    0.24021      0.99959     1.73765    0.02255     2.75979
      O   11   -0.19777      0.99988     3.19096    0.00693     4.19777
      H   12    0.18303      0.00000     0.31554    0.00143     0.31697
      H   13    0.17925      0.00000     0.31838    0.00237     0.32075
      H   14    0.18019      0.00000     0.31527    0.00454     0.31981
 =======================================================================
   * Total *    0.00000     10.99652    27.82883    0.17464    39.00000

 Normal termination of Gaussian 16 at Tue Dec  8 20:05:42 2020.
