 Gaussian 16, Revision A.03,

 -----------------------------------------------------------
 # opt freq B3LYP/6-31G(d) empiricaldispersion=gd3bj scf=xqc
 -----------------------------------------------------------

 -------------------------------
 CID_152512462_JID_1010_neutraal
 -------------------------------
 Symbolic Z-matrix:
 Charge =  0 Multiplicity = 1

 SCF Done:  E(RB3LYP) =  -892.763484786     A.U. after   15 cycles
 SCF Done:  E(RB3LYP) =  -892.771079861     A.U. after   13 cycles
 SCF Done:  E(RB3LYP) =  -892.772299320     A.U. after   12 cycles
 SCF Done:  E(RB3LYP) =  -892.772275486     A.U. after   12 cycles
 SCF Done:  E(RB3LYP) =  -892.772601300     A.U. after   12 cycles
 SCF Done:  E(RB3LYP) =  -892.772692957     A.U. after   12 cycles
 SCF Done:  E(RB3LYP) =  -892.772915621     A.U. after   13 cycles
 SCF Done:  E(RB3LYP) =  -892.772968167     A.U. after   13 cycles
 SCF Done:  E(RB3LYP) =  -892.773032621     A.U. after   13 cycles
 SCF Done:  E(RB3LYP) =  -892.773063800     A.U. after   11 cycles
 SCF Done:  E(RB3LYP) =  -892.779531893     A.U. after    9 cycles
 SCF Done:  E(RB3LYP) =  -892.779532728     A.U. after    8 cycles
 SCF Done:  E(RB3LYP) =  -892.779533428     A.U. after    9 cycles
 SCF Done:  E(RB3LYP) =  -892.779533759     A.U. after    8 cycles
 SCF Done:  E(RB3LYP) =  -892.779533920     A.U. after    8 cycles
 Optimization completed.
    -- Stationary point found.
 Normal termination of Gaussian 16 at Tue Dec  8 19:15:38 2020.

 --------------------------------------------------------------------
 #N Geom=AllCheck Guess=TCheck SCRF=Check GenChk RB3LYP/6-31G(d) Freq
 --------------------------------------------------------------------

 Structure from the checkpoint file:  "JID_1010.chk"
 -------------------------------
 CID_152512462_JID_1010_neutraal
 -------------------------------
 Charge =  0 Multiplicity = 1

 SCF Done:  E(RB3LYP) =  -892.779533920     A.U. after    1 cycles

  Exact polarizability: 116.877   0.213 101.521   8.706  -4.305  67.076
 Approx polarizability: 169.026  16.722 169.730  14.622  -9.501 116.449

                      1                      2                      3
                      A                      A                      A
 Frequencies --     43.7218                61.9591                83.5991
 Red. masses --      5.0867                 5.0930                 5.9380
 Frc consts  --      0.0057                 0.0115                 0.0245
 IR Inten    --      6.4143                 4.4451                 2.8258

                      4                      5                      6
                      A                      A                      A
 Frequencies --    173.4199               216.6509               220.8938
 Red. masses --      5.3974                 4.7397                 1.4549
 Frc consts  --      0.0956                 0.1311                 0.0418
 IR Inten    --      8.1532                31.0810               107.5848

                      7                      8                      9
                      A                      A                      A
 Frequencies --    241.7383               287.4909               298.1762
 Red. masses --      3.7436                 2.7098                 1.4152
 Frc consts  --      0.1289                 0.1320                 0.0741
 IR Inten    --     13.0690                 9.8203                46.4036

                     10                     11                     12
                      A                      A                      A
 Frequencies --    323.3885               353.4399               413.7649
 Red. masses --      3.6081                 2.2452                 3.6492
 Frc consts  --      0.2223                 0.1652                 0.3681
 IR Inten    --      5.6032                 6.4528                 9.8014

                     13                     14                     15
                      A                      A                      A
 Frequencies --    493.1262               515.9345               552.2047
 Red. masses --      5.0948                 4.2943                 2.7590
 Frc consts  --      0.7299                 0.6735                 0.4957
 IR Inten    --      1.6362                 9.5911                10.9654

                     16                     17                     18
                      A                      A                      A
 Frequencies --    579.7531               603.8513               650.3677
 Red. masses --      2.2951                 2.8723                 2.2391
 Frc consts  --      0.4545                 0.6171                 0.5580
 IR Inten    --     21.2751                65.1729                59.5997

                     19                     20                     21
                      A                      A                      A
 Frequencies --    670.7793               698.0132               723.2713
 Red. masses --      1.6370                 1.5112                 2.6491
 Frc consts  --      0.4340                 0.4338                 0.8165
 IR Inten    --     91.6170                 4.6561                63.9585

                     22                     23                     24
                      A                      A                      A
 Frequencies --    770.3029               830.8041               881.1662
 Red. masses --      3.7549                 2.7643                 2.5334
 Frc consts  --      1.3127                 1.1242                 1.1590
 IR Inten    --     20.8776                 7.7914                 2.7105

                     25                     26                     27
                      A                      A                      A
 Frequencies --    936.6107               949.2171              1045.1889
 Red. masses --      1.8794                 1.4480                 2.7426
 Frc consts  --      0.9714                 0.7687                 1.7653
 IR Inten    --     13.4594                 7.2646                 1.1782

                     28                     29                     30
                      A                      A                      A
 Frequencies --   1050.6598              1079.7005              1091.9775
 Red. masses --      1.9606                 5.3575                 2.1343
 Frc consts  --      1.2752                 3.6798                 1.4995
 IR Inten    --     39.8911                99.0418                 8.9012

                     31                     32                     33
                      A                      A                      A
 Frequencies --   1107.9149              1136.6973              1146.4447
 Red. masses --      1.3791                 2.1329                 1.8883
 Frc consts  --      0.9974                 1.6237                 1.4623
 IR Inten    --     11.6781                 3.4740                11.9678

                     34                     35                     36
                      A                      A                      A
 Frequencies --   1192.2212              1222.7297              1284.1558
 Red. masses --      1.4000                 1.7147                 1.2836
 Frc consts  --      1.1725                 1.5104                 1.2472
 IR Inten    --     12.5591                27.5961                 2.0400

                     37                     38                     39
                      A                      A                      A
 Frequencies --   1344.3957              1350.2727              1373.4598
 Red. masses --      1.3681                 1.4162                 1.9038
 Frc consts  --      1.4569                 1.5214                 2.1159
 IR Inten    --      4.1729                 7.2315               151.4594

                     40                     41                     42
                      A                      A                      A
 Frequencies --   1391.4065              1441.5947              1495.5807
 Red. masses --      2.1083                 1.2856                 1.6768
 Frc consts  --      2.4048                 1.5741                 2.2098
 IR Inten    --     43.4598                24.6195               146.8661

                     43                     44                     45
                      A                      A                      A
 Frequencies --   1535.9306              1544.1267              1644.0186
 Red. masses --      1.0621                 1.0451                 1.3292
 Frc consts  --      1.4762                 1.4682                 2.1167
 IR Inten    --     20.9723                12.8690               149.5405

                     46                     47                     48
                      A                      A                      A
 Frequencies --   1646.2729              1765.4311              3050.6572
 Red. masses --      4.3894                 6.9465                 1.0457
 Frc consts  --      7.0091                12.7561                 5.7337
 IR Inten    --     61.8551               256.1934                13.5947

                     49                     50                     51
                      A                      A                      A
 Frequencies --   3059.2002              3083.6996              3117.2709
 Red. masses --      1.0784                 1.0858                 1.1013
 Frc consts  --      5.9462                 6.0836                 6.3051
 IR Inten    --      4.6563                10.4711                23.2349

                     52                     53                     54
                      A                      A                      A
 Frequencies --   3153.1501              3208.2143              3281.8892
 Red. masses --      1.0977                 1.0921                 1.0969
 Frc consts  --      6.4303                 6.6227                 6.9611
 IR Inten    --      7.4786                12.2653                 1.9048

                     55                     56                     57
                      A                      A                      A
 Frequencies --   3479.5793              3604.3896              3734.2938
 Red. masses --      1.0775                 1.0460                 1.1041
 Frc consts  --      7.6864                 8.0069                 9.0712
 IR Inten    --    222.1498                46.5152                45.9403

 - Thermochemistry -
 -------------------
 Temperature   298.150 Kelvin.  Pressure   1.00000 Atm.
 Atom     1 has atomic number  6 and mass  12.00000

 Molecular mass:   174.04630 amu.
 Principal axes and moments of inertia in atomic units:
                           1         2         3
     Eigenvalues --  1032.600032617.624473272.90288
           X            0.99901  -0.04373   0.00833
           Y            0.04366   0.99901   0.00814
           Z           -0.00868  -0.00776   0.99993
 This molecule is an asymmetric top.
 Rotational symmetry number  1.
 Warning -- assumption of classical behavior for rotation
           may cause significant error
 Rotational temperatures (Kelvin)      0.08388     0.03309     0.02646
 Rotational constants (GHZ):           1.74776     0.68946     0.55142
 Zero-point vibrational energy     438049.6 (Joules/Mol)
                                  104.69636 (Kcal/Mol)
 Warning -- explicit consideration of  17 degrees of freedom as
           vibrations may cause significant error
 Vibrational temperatures:     62.91    89.15   120.28   249.51   311.71
          (Kelvin)            317.82   347.81   413.64   429.01   465.28
                              508.52   595.32   709.50   742.31   794.50
                              834.14   868.81   935.73   965.10  1004.29
                             1040.63  1108.29  1195.34  1267.80  1347.57
                             1365.71  1503.79  1511.67  1553.45  1571.11
                             1594.04  1635.45  1649.48  1715.34  1759.24
                             1847.61  1934.29  1942.74  1976.10  2001.92
                             2074.13  2151.81  2209.86  2221.65  2365.38
                             2368.62  2540.06  4389.22  4401.51  4436.76
                             4485.06  4536.68  4615.90  4721.91  5006.34
                             5185.91  5372.82

 Zero-point correction=                           0.166844 (Hartree/Particle)
 Thermal correction to Energy=                    0.178200
 Thermal correction to Enthalpy=                  0.179144
 Thermal correction to Gibbs Free Energy=         0.129167
 Sum of electronic and zero-point Energies=           -892.612690
 Sum of electronic and thermal Energies=              -892.601334
 Sum of electronic and thermal Enthalpies=            -892.600390
 Sum of electronic and thermal Free Energies=         -892.650367

                     E (Thermal)             CV                S
                      KCal/Mol        Cal/Mol-Kelvin    Cal/Mol-Kelvin
 Total                  111.822             42.481            105.186
 Electronic               0.000              0.000              0.000
 Translational            0.889              2.981             41.370
 Rotational               0.889              2.981             30.560
 Vibrational            110.045             36.519             33.257
 Vibration     1          0.595              1.980              5.083
 Vibration     2          0.597              1.972              4.394
 Vibration     3          0.600              1.960              3.805
 Vibration     4          0.627              1.875              2.398
 Vibration     5          0.645              1.816              1.987
 Vibration     6          0.648              1.809              1.952
 Vibration     7          0.658              1.776              1.790
 Vibration     8          0.685              1.697              1.489
 Vibration     9          0.691              1.677              1.427
 Vibration    10          0.708              1.629              1.293
 Vibration    11          0.730              1.568              1.151
 Vibration    12          0.777              1.440              0.913
 Vibration    13          0.849              1.265              0.676
 Vibration    14          0.871              1.215              0.619
 Vibration    15          0.908              1.135              0.540
 Vibration    16          0.936              1.075              0.486
 Vibration    17          0.962              1.024              0.443

 Optimization completed.
    -- Stationary point found.
 Normal termination of Gaussian 16 at Tue Dec  8 19:19:31 2020.

 ----------------------------------------------------------------------
 # B3LYP/6-311++G(d,p) empiricaldispersion=gd3bj scf=xqc pop=npa geom=c
 heck
 ----------------------------------------------------------------------

 ---------------------------------------
 CID_152512462_JID_1010_Energie_neutraal
 ---------------------------------------
 Structure from the checkpoint file:  "JID_1010.chk"
 Charge =  0 Multiplicity = 1

 SCF Done:  E(RB3LYP) =  -892.964370798     A.U. after   15 cycles
 Normal termination of Gaussian 16 at Tue Dec  8 19:20:56 2020.

 ----------------------------------------------------------------------
 # B3LYP/6-311++G(d,p) empiricaldispersion=gd3bj scf=xqc pop=npa geom=c
 heck
 ----------------------------------------------------------------------

 -------------------------------------
 CID_152512462_JID_1010_Energie_kation
 -------------------------------------
 Structure from the checkpoint file:  "JID_1010.chk"
 Charge =  1 Multiplicity = 2

 SCF Done:  E(UB3LYP) =  -892.664276309     A.U. after   24 cycles
 Normal termination of Gaussian 16 at Tue Dec  8 19:23:50 2020.
 Gaussian 16:  ES64L-G16RevA.03 25-Dec-2016

 ----------------------------------------------------------------------
 # B3LYP/6-311++G(d,p) empiricaldispersion=gd3bj scf=xqc pop=npa geom=c
 heck
 ----------------------------------------------------------------------

 ------------------------------------
 CID_152512462_JID_1010_Energie_anion
 ------------------------------------
 Structure from the checkpoint file:  "JID_1010.chk"
 Charge = -1 Multiplicity = 2

                         Standard orientation:
 ---------------------------------------------------------------------
 Center     Atomic      Atomic             Coordinates (Angstroms)
 Number     Number       Type             X           Y           Z
 ---------------------------------------------------------------------
      1          6           0        1.103457   -1.912332   -0.658485
      2          6           0        0.993888   -0.391175   -0.503871
      3          6           0       -0.166844    0.012593    0.438659
      4          7           0       -0.367356    1.449214    0.512063
      5          6           0       -1.418431    1.852684   -0.273374
      6          6           0       -2.257317    0.900618   -0.730814
      7         16           0       -1.817836   -0.727834   -0.150336
      8          8           0       -2.610779   -1.122456    1.076873
      9          6           0        2.275507    0.301453   -0.011315
     10          8           0        2.360338    1.528568    0.050799
     11          7           0        3.304819   -0.494362    0.375213
     12          1           0        1.238214   -2.407496    0.311183
     13          1           0        1.936117   -2.185189   -1.315323
     14          1           0        0.189957   -2.316005   -1.099490
     15          1           0        0.782036    0.058694   -1.482220
     16          1           0       -0.031596   -0.429481    1.432373
     17          1           0        0.499791    1.984183    0.470688
     18          1           0       -1.516403    2.916897   -0.469098
     19          1           0       -3.167793    1.053491   -1.291707
     20          1           0        3.271595   -1.499909    0.334861
     21          1           0        4.143191   -0.045751    0.716997
 ---------------------------------------------------------------------

 SCF Done:  E(UB3LYP) =  -892.959192703     A.U. after   33 cycles
 SCF Done:  E(UB3LYP) =  -892.959192703     a.u. after    1 cycles

 The electronic state is 2-A.
 Alpha  occ. eigenvalues --  -88.85152 -18.99900 -18.98502 -14.24591 -14.23408
 Alpha  occ. eigenvalues --  -10.18641 -10.14791 -10.14121 -10.10835 -10.08942
 Alpha  occ. eigenvalues --  -10.07282  -7.92788  -5.89043  -5.88943  -5.88387
 Alpha  occ. eigenvalues --   -0.95017  -0.91728  -0.86914  -0.81058  -0.71783
 Alpha  occ. eigenvalues --   -0.68924  -0.63323  -0.56960  -0.52058  -0.49802
 Alpha  occ. eigenvalues --   -0.48958  -0.45851  -0.44753  -0.38105  -0.37674
 Alpha  occ. eigenvalues --   -0.37013  -0.35468  -0.33656  -0.32489  -0.31334
 Alpha  occ. eigenvalues --   -0.30461  -0.29902  -0.29086  -0.28600  -0.26342
 Alpha  occ. eigenvalues --   -0.24667  -0.18737  -0.18005  -0.16626  -0.14307
 Alpha  occ. eigenvalues --   -0.13158   0.04223
 Alpha virt. eigenvalues --    0.06111   0.06965   0.08011   0.08486   0.08912
 Alpha virt. eigenvalues --    0.09595   0.10368   0.11282   0.11778   0.11847
 Alpha virt. eigenvalues --    0.12775   0.13792   0.14233   0.15594   0.15685

  Beta  occ. eigenvalues --  -88.85150 -18.99888 -18.98495 -14.24586 -14.23298
  Beta  occ. eigenvalues --  -10.18632 -10.14786 -10.14107 -10.10818 -10.08939
  Beta  occ. eigenvalues --  -10.07220  -7.92785  -5.89042  -5.88940  -5.88385
  Beta  occ. eigenvalues --   -0.94992  -0.91713  -0.86899  -0.80922  -0.71737
  Beta  occ. eigenvalues --   -0.68908  -0.63275  -0.56854  -0.52009  -0.49759
  Beta  occ. eigenvalues --   -0.48848  -0.45809  -0.44662  -0.38040  -0.37635
  Beta  occ. eigenvalues --   -0.36981  -0.35437  -0.33623  -0.32462  -0.31286
  Beta  occ. eigenvalues --   -0.30411  -0.29861  -0.29048  -0.28566  -0.26287
  Beta  occ. eigenvalues --   -0.24637  -0.18714  -0.17915  -0.16593  -0.14294
  Beta  occ. eigenvalues --   -0.13142
  Beta virt. eigenvalues --    0.06403   0.06983   0.07889   0.08430   0.08724
  Beta virt. eigenvalues --    0.09650   0.10158   0.10937   0.11515   0.12169
  Beta virt. eigenvalues --    0.12579   0.13258   0.13987   0.14450   0.15669

 Mulliken charges and spin densities:
               1          2
     1  C    2.357246  -3.218557
     2  C   -0.446185   0.751671
     3  C   -0.545173   0.082807
     4  N   -0.089882   0.051481
     5  C    0.003447  -0.089390
     6  C   -0.199441  -0.250691
     7  S    0.604753  -0.200376
     8  O   -0.428310   0.006430
     9  C    0.162504  -0.263833
    10  O   -0.354805  -0.011935
    11  N   -0.286237  -0.042448
    12  H   -0.227463   0.399179
    13  H   -0.721152   0.913509
    14  H    0.121159   0.015384
    15  H   -0.131867   0.372276
    16  H    0.221396   0.158761
    17  H    0.334543  -0.038670
    18  H   -0.266556   0.428682
    19  H    0.088060   0.126375
    20  H   -0.652096   0.945339
    21  H   -0.543940   0.864004
 Sum of Mulliken charges =  -1.00000   1.00000

 Dipole moment (field-independent basis, Debye):
    X=             -7.6304    Y=              4.4259    Z=             -1.7487  Tot=              8.9928
 Quadrupole moment (field-independent basis, Debye-Ang):
   XX=           -154.8028   YY=           -112.4248   ZZ=           -101.2623
   XY=             10.0304   XZ=              5.0372   YZ=              2.0975

 Summary of Natural Population Analysis:

                                       Natural Population
                Natural  -----------------------------------------------
    Atom  No    Charge         Core      Valence    Rydberg      Total
 -----------------------------------------------------------------------
      C    1   -0.29991      0.99965     2.29226    0.00800     3.29991
      C    2   -0.16189      0.99953     2.14869    0.01368     3.16189
      C    3   -0.07659      0.99956     2.05800    0.01903     3.07659
      N    4   -0.32215      0.99968     2.81099    0.01148     3.82215
      C    5    0.03573      0.99953     1.95228    0.01246     2.96427
      C    6   -0.27942      0.99951     2.26708    0.01284     3.27942
      S    7    0.57736      4.99940     2.36514    0.05810     7.42264
      O    8   -0.47858      0.99993     3.47270    0.00596     4.47858
      C    9    0.34320      0.99966     1.63314    0.02400     2.65680
      O   10   -0.34207      0.99987     3.33609    0.00610     4.34207
      N   11   -0.38808      0.99970     2.87965    0.00873     3.88808
      H   12    0.10411      0.00000     0.39401    0.00188     0.39589
      H   13    0.11202      0.00000     0.38552    0.00246     0.38798
      H   14    0.10805      0.00000     0.38999    0.00197     0.39195
      H   15    0.11456      0.00000     0.38362    0.00183     0.38544
      H   16    0.11193      0.00000     0.38677    0.00130     0.38807
      H   17    0.21466      0.00000     0.28281    0.00254     0.28534
      H   18    0.10222      0.00000     0.39655    0.00123     0.39778
      H   19    0.11100      0.00000     0.38779    0.00121     0.38900
      H   20    0.21026      0.00000     0.25990    0.02985     0.28974
      H   21    0.20360      0.00000     0.28825    0.00814     0.29640
 =======================================================================
   * Total *   -0.00000     14.99600    30.77122    0.23278    46.00000

 Normal termination of Gaussian 16 at Tue Dec  8 19:27:52 2020.
