 Gaussian 16, Revision A.03,

 -----------------------------------------------------------
 # opt freq B3LYP/6-31G(d) empiricaldispersion=gd3bj scf=xqc
 -----------------------------------------------------------

 ------------------------------
 CID_14411758_JID_5156_neutraal
 ------------------------------
 Symbolic Z-matrix:
 Charge =  0 Multiplicity = 1

 SCF Done:  E(RB3LYP) =  -732.173631606     A.U. after   14 cycles
 SCF Done:  E(RB3LYP) =  -732.177410120     A.U. after   12 cycles
 SCF Done:  E(RB3LYP) =  -732.177593395     A.U. after   12 cycles
 SCF Done:  E(RB3LYP) =  -732.177837254     A.U. after   12 cycles
 SCF Done:  E(RB3LYP) =  -732.177952093     A.U. after   11 cycles
 SCF Done:  E(RB3LYP) =  -732.178031836     A.U. after   11 cycles
 SCF Done:  E(RB3LYP) =  -732.178112541     A.U. after   11 cycles
 SCF Done:  E(RB3LYP) =  -732.178171137     A.U. after   13 cycles
 SCF Done:  E(RB3LYP) =  -732.178830538     A.U. after   12 cycles
 SCF Done:  E(RB3LYP) =  -732.179607918     A.U. after   14 cycles
 SCF Done:  E(RB3LYP) =  -732.180907860     A.U. after   11 cycles
 SCF Done:  E(RB3LYP) =  -732.180922148     A.U. after   10 cycles
 SCF Done:  E(RB3LYP) =  -732.180928948     A.U. after    9 cycles
 SCF Done:  E(RB3LYP) =  -732.180930203     A.U. after    8 cycles
 SCF Done:  E(RB3LYP) =  -732.180930533     A.U. after    7 cycles
 SCF Done:  E(RB3LYP) =  -732.180930620     A.U. after    7 cycles
 Optimization completed.
    -- Stationary point found.
 Normal termination of Gaussian 16 at Thu Dec 10 15:12:17 2020.

 --------------------------------------------------------------------
 #N Geom=AllCheck Guess=TCheck SCRF=Check GenChk RB3LYP/6-31G(d) Freq
 --------------------------------------------------------------------

 Structure from the checkpoint file:  "JID_5156.chk"
 ------------------------------
 CID_14411758_JID_5156_neutraal
 ------------------------------
 Charge =  0 Multiplicity = 1

 SCF Done:  E(RB3LYP) =  -732.180930620     A.U. after    1 cycles

  Exact polarizability: 142.951  -5.858 117.134   0.457  -0.384 110.482
 Approx polarizability: 171.869  -9.326 161.417  -0.587  -0.063 179.970

                      1                      2                      3
                      A                      A                      A
 Frequencies --     26.2638                42.2537                66.9094
 Red. masses --      4.5161                 4.0864                 5.3274
 Frc consts  --      0.0018                 0.0043                 0.0141
 IR Inten    --      0.8827                 0.6856                 0.9783

                      4                      5                      6
                      A                      A                      A
 Frequencies --     97.9907               120.7807               137.3627
 Red. masses --      3.1383                 3.5934                 1.4794
 Frc consts  --      0.0178                 0.0309                 0.0164
 IR Inten    --      0.1022                 0.4977                 0.9915

                      7                      8                      9
                      A                      A                      A
 Frequencies --    156.7637               181.9054               201.7155
 Red. masses --      2.1756                 3.8016                 2.9679
 Frc consts  --      0.0315                 0.0741                 0.0711
 IR Inten    --      0.5190                 0.2602                 6.6819

                     10                     11                     12
                      A                      A                      A
 Frequencies --    234.9481               267.7058               272.6587
 Red. masses --      2.4148                 1.1399                 2.2889
 Frc consts  --      0.0785                 0.0481                 0.1003
 IR Inten    --      3.1562                 0.1017                14.7544

                     13                     14                     15
                      A                      A                      A
 Frequencies --    286.2374               301.6797               334.7902
 Red. masses --      1.7648                 1.4778                 2.9995
 Frc consts  --      0.0852                 0.0792                 0.1981
 IR Inten    --     15.7048                38.2451                15.8605

                     16                     17                     18
                      A                      A                      A
 Frequencies --    349.6313               373.2034               387.7207
 Red. masses --      2.9836                 2.8897                 2.2698
 Frc consts  --      0.2149                 0.2371                 0.2010
 IR Inten    --     15.3200                 9.4725                 4.5623

                     19                     20                     21
                      A                      A                      A
 Frequencies --    433.3798               454.2064               468.0103
 Red. masses --      2.7213                 2.6261                 3.7279
 Frc consts  --      0.3011                 0.3192                 0.4811
 IR Inten    --      9.2851                 7.2597                 3.5410

                     22                     23                     24
                      A                      A                      A
 Frequencies --    498.1434               518.2368               578.9440
 Red. masses --      2.7249                 3.8828                 2.7030
 Frc consts  --      0.3984                 0.6144                 0.5338
 IR Inten    --      2.0794                 4.4834                 2.7023

                     25                     26                     27
                      A                      A                      A
 Frequencies --    601.1791               657.6371               666.1214
 Red. masses --      2.6827                 2.4518                 2.2075
 Frc consts  --      0.5713                 0.6248                 0.5771
 IR Inten    --      9.6542                 3.7985                 1.9680

                     28                     29                     30
                      A                      A                      A
 Frequencies --    712.8959               797.9530               818.8501
 Red. masses --      3.7635                 2.3344                 2.2233
 Frc consts  --      1.1269                 0.8757                 0.8783
 IR Inten    --      4.6104                 6.6020                11.4514

                     31                     32                     33
                      A                      A                      A
 Frequencies --    862.6015               880.9108               892.9121
 Red. masses --      1.9728                 2.9294                 2.2055
 Frc consts  --      0.8649                 1.3394                 1.0360
 IR Inten    --      9.1370                11.5665                 9.5384

                     34                     35                     36
                      A                      A                      A
 Frequencies --    904.2186               919.9666               971.0772
 Red. masses --      2.3288                 2.5396                 1.8358
 Frc consts  --      1.1219                 1.2664                 1.0200
 IR Inten    --      3.7175                 4.0474                10.9193

                     37                     38                     39
                      A                      A                      A
 Frequencies --    974.9598               995.2862              1023.6738
 Red. masses --      1.7865                 2.5382                 2.1363
 Frc consts  --      1.0005                 1.4814                 1.3190
 IR Inten    --      8.3246                60.4869                33.0105

                     40                     41                     42
                      A                      A                      A
 Frequencies --   1038.9745              1042.1032              1063.8519
 Red. masses --      2.7970                 2.4046                 1.8467
 Frc consts  --      1.7789                 1.5386                 1.2314
 IR Inten    --      8.9675                40.0594                40.8032

                     43                     44                     45
                      A                      A                      A
 Frequencies --   1073.7513              1101.2195              1132.6082
 Red. masses --      1.6945                 1.8186                 2.4893
 Frc consts  --      1.1511                 1.2993                 1.8814
 IR Inten    --     44.7924                 1.7947                33.5125

                     46                     47                     48
                      A                      A                      A
 Frequencies --   1154.6588              1161.5693              1175.0531
 Red. masses --      2.1195                 2.0271                 2.2207
 Frc consts  --      1.6649                 1.6114                 1.8066
 IR Inten    --     85.9512                76.0964                24.3748

                     49                     50                     51
                      A                      A                      A
 Frequencies --   1185.9881              1209.9335              1220.5113
 Red. masses --      1.2787                 1.7009                 1.4133
 Frc consts  --      1.0597                 1.4671                 1.2404
 IR Inten    --      1.2069                99.7303                 2.2652

                     52                     53                     54
                      A                      A                      A
 Frequencies --   1223.8380              1241.6849              1250.6095
 Red. masses --      1.5116                 1.5248                 1.9369
 Frc consts  --      1.3340                 1.3851                 1.7849
 IR Inten    --     22.3047                25.0529                59.7291

                     55                     56                     57
                      A                      A                      A
 Frequencies --   1278.8465              1301.9500              1330.7766
 Red. masses --      1.7490                 1.2659                 1.2371
 Frc consts  --      1.6853                 1.2643                 1.2908
 IR Inten    --    215.8817                19.6445                 1.3225

                     58                     59                     60
                      A                      A                      A
 Frequencies --   1369.0242              1375.1611              1385.9369
 Red. masses --      1.3679                 1.4238                 1.4749
 Frc consts  --      1.5105                 1.5864                 1.6692
 IR Inten    --     24.2303                15.2288                 3.0565

                     61                     62                     63
                      A                      A                      A
 Frequencies --   1398.8701              1405.8655              1409.7707
 Red. masses --      1.6444                 1.5676                 1.3902
 Frc consts  --      1.8959                 1.8255                 1.6279
 IR Inten    --     31.8120                41.3210                 3.9120

                     64                     65                     66
                      A                      A                      A
 Frequencies --   1413.9338              1427.4266              1435.9161
 Red. masses --      1.3411                 1.4272                 1.3878
 Frc consts  --      1.5797                 1.7133                 1.6859
 IR Inten    --     20.0959                35.5847                 9.4123

                     67                     68                     69
                      A                      A                      A
 Frequencies --   1438.6693              1492.0340              1496.9119
 Red. masses --      1.5223                 1.1793                 1.1325
 Frc consts  --      1.8564                 1.5468                 1.4952
 IR Inten    --     17.9704                 6.9309                13.9825

                     70                     71                     72
                      A                      A                      A
 Frequencies --   1504.4109              1509.3871              1512.7357
 Red. masses --      1.0902                 1.0896                 1.0511
 Frc consts  --      1.4537                 1.4626                 1.4171
 IR Inten    --      5.8438                 0.8254                 3.5246

                     73                     74                     75
                      A                      A                      A
 Frequencies --   1513.1403              1519.0589              1525.8682
 Red. masses --      1.0777                 1.0938                 1.0473
 Frc consts  --      1.4538                 1.4871                 1.4366
 IR Inten    --      3.9106                12.3265                 7.6861

                     76                     77                     78
                      A                      A                      A
 Frequencies --   1529.2843              1530.6485              1538.2482
 Red. masses --      1.0786                 1.0645                 1.0727
 Frc consts  --      1.4862                 1.4695                 1.4954
 IR Inten    --      5.9099                12.8740                 7.2135

                     79                     80                     81
                      A                      A                      A
 Frequencies --   1820.8613              3039.9818              3040.1025
 Red. masses --     10.7407                 1.0672                 1.0708
 Frc consts  --     20.9814                 5.8106                 5.8308
 IR Inten    --    171.1458                 8.0279                25.6141

                     82                     83                     84
                      A                      A                      A
 Frequencies --   3041.7127              3050.4061              3059.3241
 Red. masses --      1.0682                 1.0609                 1.0520
 Frc consts  --      5.8226                 5.8162                 5.8010
 IR Inten    --     19.7838                18.0749                18.4517

                     85                     86                     87
                      A                      A                      A
 Frequencies --   3063.9777              3066.0327              3071.6185
 Red. masses --      1.0718                 1.0645                 1.0295
 Frc consts  --      5.9283                 5.8958                 5.7229
 IR Inten    --     36.4756                33.6552                38.2045

                     88                     89                     90
                      A                      A                      A
 Frequencies --   3076.3198              3085.6443              3092.1455
 Red. masses --      1.0652                 1.0971                 1.1015
 Frc consts  --      5.9395                 6.1543                 6.2054
 IR Inten    --     28.4108                35.1414                50.0749

                     91                     92                     93
                      A                      A                      A
 Frequencies --   3101.7158              3110.9654              3124.1810
 Red. masses --      1.0999                 1.0982                 1.0989
 Frc consts  --      6.2347                 6.2619                 6.3197
 IR Inten    --     35.5237                 1.1774                72.1489

                     94                     95                     96
                      A                      A                      A
 Frequencies --   3130.7512              3144.8794              3147.9538
 Red. masses --      1.0967                 1.1072                 1.1025
 Frc consts  --      6.3336                 6.4518                 6.4369
 IR Inten    --      9.2093                24.1483                27.8344

                     97                     98                     99
                      A                      A                      A
 Frequencies --   3157.1618              3174.7869              3728.4154
 Red. masses --      1.0896                 1.1070                 1.0649
 Frc consts  --      6.3992                 6.5740                 8.7218
 IR Inten    --      8.5015                22.4106                20.4384

 - Thermochemistry -
 -------------------
 Temperature   298.150 Kelvin.  Pressure   1.00000 Atm.
 Atom     1 has atomic number  6 and mass  12.00000

 Molecular mass:   216.13616 amu.
 Principal axes and moments of inertia in atomic units:
                           1         2         3
     Eigenvalues --  1428.820145481.081085865.73339
           X            0.99994  -0.00818   0.00669
           Y            0.00817   0.99997   0.00062
           Z           -0.00670  -0.00056   0.99998
 This molecule is an asymmetric top.
 Rotational symmetry number  1.
 Warning -- assumption of classical behavior for rotation
           may cause significant error
 Rotational temperatures (Kelvin)      0.06062     0.01580     0.01477
 Rotational constants (GHZ):           1.26310     0.32927     0.30768
 Zero-point vibrational energy     811791.0 (Joules/Mol)
                                  194.02270 (Kcal/Mol)
 Warning -- explicit consideration of  25 degrees of freedom as
           vibrations may cause significant error
 Vibrational temperatures:     37.79    60.79    96.27   140.99   173.78
          (Kelvin)            197.63   225.55   261.72   290.22   338.04
                              385.17   392.30   411.83   434.05   481.69
                              503.04   536.96   557.84   623.54   653.50
                              673.36   716.72   745.63   832.97   864.96
                              946.19   958.40  1025.70  1148.08  1178.14
                             1241.09  1267.43  1284.70  1300.97  1323.63
                             1397.16  1402.75  1431.99  1472.84  1494.85
                             1499.35  1530.65  1544.89  1584.41  1629.57
                             1661.30  1671.24  1690.64  1706.37  1740.82
                             1756.04  1760.83  1786.51  1799.35  1839.97
                             1873.22  1914.69  1969.72  1978.55  1994.05
                             2012.66  2022.73  2028.35  2034.34  2053.75
                             2065.96  2069.92  2146.70  2153.72  2164.51
                             2171.67  2176.49  2177.07  2185.59  2195.38
                             2200.30  2202.26  2213.20  2619.81  4373.86
                             4374.03  4376.35  4388.85  4401.69  4408.38
                             4411.34  4419.37  4426.14  4439.55  4448.91
                             4462.68  4475.99  4495.00  4504.45  4524.78
                             4529.20  4542.45  4567.81  5364.36

 Zero-point correction=                           0.309195 (Hartree/Particle)
 Thermal correction to Energy=                    0.325101
 Thermal correction to Enthalpy=                  0.326046
 Thermal correction to Gibbs Free Energy=         0.265790
 Sum of electronic and zero-point Energies=           -731.871736
 Sum of electronic and thermal Energies=              -731.855829
 Sum of electronic and thermal Enthalpies=            -731.854885
 Sum of electronic and thermal Free Energies=         -731.915141

                     E (Thermal)             CV                S
                      KCal/Mol        Cal/Mol-Kelvin    Cal/Mol-Kelvin
 Total                  204.004             60.685            126.818
 Electronic               0.000              0.000              0.000
 Translational            0.889              2.981             42.015
 Rotational               0.889              2.981             32.196
 Vibrational            202.227             54.724             52.607
 Vibration     1          0.593              1.985              6.093
 Vibration     2          0.595              1.980              5.151
 Vibration     3          0.598              1.970              4.242
 Vibration     4          0.603              1.951              3.494
 Vibration     5          0.609              1.932              3.088
 Vibration     6          0.614              1.916              2.840
 Vibration     7          0.620              1.895              2.588
 Vibration     8          0.630              1.864              2.309
 Vibration     9          0.639              1.837              2.117
 Vibration    10          0.655              1.787              1.841
 Vibration    11          0.673              1.732              1.611
 Vibration    12          0.676              1.724              1.579
 Vibration    13          0.684              1.699              1.496
 Vibration    14          0.694              1.671              1.408
 Vibration    15          0.716              1.606              1.237
 Vibration    16          0.727              1.576              1.168
 Vibration    17          0.745              1.527              1.067
 Vibration    18          0.756              1.496              1.009
 Vibration    19          0.794              1.397              0.848
 Vibration    20          0.813              1.352              0.783
 Vibration    21          0.825              1.321              0.743
 Vibration    22          0.854              1.254              0.663
 Vibration    23          0.873              1.210              0.614
 Vibration    24          0.936              1.077              0.487
 Vibration    25          0.959              1.029              0.448

                           ! Non-Optimized Parameters !
 Normal termination of Gaussian 16 at Thu Dec 10 15:24:19 2020.

 ----------------------------------------------------------------------
 # B3LYP/6-311++G(d,p) empiricaldispersion=gd3bj scf=xqc pop=npa geom=c
 heck
 ----------------------------------------------------------------------

 --------------------------------------
 CID_14411758_JID_5156_Energie_neutraal
 --------------------------------------
 Structure from the checkpoint file:  "JID_5156.chk"
 Charge =  0 Multiplicity = 1

 SCF Done:  E(RB3LYP) =  -732.401731657     A.U. after   14 cycles
 Normal termination of Gaussian 16 at Thu Dec 10 15:29:54 2020.

 ----------------------------------------------------------------------
 # B3LYP/6-311++G(d,p) empiricaldispersion=gd3bj scf=xqc pop=npa geom=c
 heck
 ----------------------------------------------------------------------

 ------------------------------------
 CID_14411758_JID_5156_Energie_kation
 ------------------------------------
 Structure from the checkpoint file:  "JID_5156.chk"
 Charge =  1 Multiplicity = 2

 SCF Done:  E(UB3LYP) =  -732.079946252     A.U. after   25 cycles
 Normal termination of Gaussian 16 at Thu Dec 10 15:43:55 2020.
 Gaussian 16:  ES64L-G16RevA.03 25-Dec-2016

 ----------------------------------------------------------------------
 # B3LYP/6-311++G(d,p) empiricaldispersion=gd3bj scf=xqc pop=npa geom=c
 heck
 ----------------------------------------------------------------------

 -----------------------------------
 CID_14411758_JID_5156_Energie_anion
 -----------------------------------
 Structure from the checkpoint file:  "JID_5156.chk"
 Charge = -1 Multiplicity = 2

                         Standard orientation:
 ---------------------------------------------------------------------
 Center     Atomic      Atomic             Coordinates (Angstroms)
 Number     Number       Type             X           Y           Z
 ---------------------------------------------------------------------
      1          6           0       -2.845314    1.859693    0.208302
      2          6           0       -2.671665    0.541435    0.966674
      3          6           0       -3.604936   -0.566156    0.461146
      4          6           0       -3.089257   -1.171730   -0.845583
      5          6           0       -1.669119   -1.689207   -0.612587
      6          6           0       -0.713276   -0.607770   -0.081294
      7          8           0       -1.299295    0.108937    1.016098
      8          6           0       -0.184223    0.300702   -1.200457
      9          6           0        0.542283    1.580434   -0.759738
     10          6           0        1.646113    1.397200    0.286559
     11          6           0        2.724185    0.435892   -0.157589
     12          8           0        2.985584    0.150166   -1.307821
     13          8           0        3.410751   -0.053907    0.898867
     14          6           0        4.448362   -0.984832    0.564994
     15          8           0        0.429933   -1.229160    0.478180
     16          1           0       -2.661782    1.753284   -0.864562
     17          1           0       -2.159424    2.615033    0.601056
     18          1           0       -3.869528    2.227643    0.339144
     19          1           0       -2.901462    0.737711    2.020064
     20          1           0       -3.659114   -1.357574    1.219960
     21          1           0       -4.616519   -0.159690    0.344705
     22          1           0       -3.100393   -0.423147   -1.647877
     23          1           0       -3.741804   -1.988396   -1.174703
     24          1           0       -1.233886   -2.118218   -1.521445
     25          1           0       -1.701209   -2.491502    0.136672
     26          1           0        0.499513   -0.313026   -1.794516
     27          1           0       -1.013007    0.578645   -1.861501
     28          1           0        0.977266    2.033282   -1.657654
     29          1           0       -0.178763    2.297719   -0.358768
     30          1           0        2.131191    2.365183    0.477519
     31          1           0        1.236812    1.052724    1.236605
     32          1           0        4.026983   -1.856326    0.056661
     33          1           0        5.192165   -0.520447   -0.088379
     34          1           0        4.900277   -1.275409    1.514210
     35          1           0        0.157974   -1.539756    1.357653
 ---------------------------------------------------------------------

 SCF Done:  E(UB3LYP) =  -732.388112528     A.U. after   32 cycles

 The electronic state is 2-A.
 Alpha  occ. eigenvalues --  -19.07306 -19.02566 -19.02511 -19.01452 -10.20316
 Alpha  occ. eigenvalues --  -10.17719 -10.13232 -10.12400 -10.08014 -10.07369
 Alpha  occ. eigenvalues --  -10.07046 -10.06842 -10.06809 -10.06530 -10.06062
 Alpha  occ. eigenvalues --   -1.01249  -0.96891  -0.92407  -0.90049  -0.71115
 Alpha  occ. eigenvalues --   -0.70621  -0.68009  -0.65009  -0.61627  -0.58641
 Alpha  occ. eigenvalues --   -0.54238  -0.53159  -0.50503  -0.46797  -0.44674
 Alpha  occ. eigenvalues --   -0.41792  -0.40661  -0.39800  -0.39037  -0.38345
 Alpha  occ. eigenvalues --   -0.36830  -0.36278  -0.35690  -0.33752  -0.33558
 Alpha  occ. eigenvalues --   -0.32823  -0.31516  -0.29901  -0.29627  -0.29564
 Alpha  occ. eigenvalues --   -0.27516  -0.27177  -0.26687  -0.26146  -0.25293
 Alpha  occ. eigenvalues --   -0.24901  -0.24202  -0.23914  -0.23020  -0.21418
 Alpha  occ. eigenvalues --   -0.20609  -0.19242  -0.18314  -0.15634   0.04277
 Alpha virt. eigenvalues --    0.05853   0.06917   0.07515   0.07774   0.08623
 Alpha virt. eigenvalues --    0.09230   0.09674   0.09829   0.10138   0.10377
 Alpha virt. eigenvalues --    0.10810   0.11181   0.11925   0.12687   0.13089

  Beta  occ. eigenvalues --  -19.07303 -19.02551 -19.02507 -19.01448 -10.20315
  Beta  occ. eigenvalues --  -10.17720 -10.13208 -10.12387 -10.08006 -10.07362
  Beta  occ. eigenvalues --  -10.07024 -10.06827 -10.06801 -10.06500 -10.06026
  Beta  occ. eigenvalues --   -1.01242  -0.96874  -0.92399  -0.90026  -0.71095
  Beta  occ. eigenvalues --   -0.70584  -0.67978  -0.64980  -0.61589  -0.58592
  Beta  occ. eigenvalues --   -0.54196  -0.53112  -0.50462  -0.46771  -0.44633
  Beta  occ. eigenvalues --   -0.41745  -0.40635  -0.39780  -0.39000  -0.38325
  Beta  occ. eigenvalues --   -0.36809  -0.36241  -0.35658  -0.33715  -0.33538
  Beta  occ. eigenvalues --   -0.32792  -0.31493  -0.29869  -0.29600  -0.29529
  Beta  occ. eigenvalues --   -0.27492  -0.27155  -0.26658  -0.26116  -0.25275
  Beta  occ. eigenvalues --   -0.24879  -0.24171  -0.23881  -0.22985  -0.21408
  Beta  occ. eigenvalues --   -0.20586  -0.19219  -0.18306  -0.15616
  Beta virt. eigenvalues --    0.06174   0.06861   0.07446   0.08062   0.08466
  Beta virt. eigenvalues --    0.09139   0.09530   0.09791   0.10159   0.10692
  Beta virt. eigenvalues --    0.10728   0.11055   0.11493   0.12262   0.12986

 Mulliken charges and spin densities:
               1          2
     1  C    1.367045  -1.946068
     2  C   -1.430685   1.578361
     3  C    1.263921  -1.746685
     4  C    0.157774  -0.459440
     5  C    0.459106  -0.418473
     6  C   -0.151245  -0.417868
     7  O   -0.148890   0.039497
     8  C   -0.274313   0.029495
     9  C    0.110922  -0.374854
    10  C   -0.148497   0.100930
    11  C   -0.420973  -0.102492
    12  O   -0.221965   0.011706
    13  O   -0.052381   0.046171
    14  C    0.367640  -0.590893
    15  O   -0.182427   0.003629
    16  H   -0.069806   0.214866
    17  H   -0.047447   0.200781
    18  H   -0.418678   0.571135
    19  H   -0.475048   0.686047
    20  H   -0.213701   0.371143
    21  H   -0.443487   0.607128
    22  H   -0.038922   0.169584
    23  H   -0.389988   0.581866
    24  H    0.122183   0.037165
    25  H   -0.243132   0.395994
    26  H    0.256729  -0.011788
    27  H    0.028178   0.098284
    28  H    0.036920   0.147112
    29  H    0.307734  -0.153609
    30  H   -0.156047   0.340345
    31  H    0.213133   0.062349
    32  H    0.005244   0.174539
    33  H   -0.018319   0.177380
    34  H   -0.221926   0.363077
    35  H    0.071350   0.213586
 Sum of Mulliken charges =  -1.00000   1.00000

 Dipole moment (field-independent basis, Debye):
    X=              5.1825    Y=              0.7370    Z=             -1.6305  Tot=              5.4828
 Quadrupole moment (field-independent basis, Debye-Ang):
   XX=           -187.6917   YY=           -131.7126   ZZ=           -127.3831
   XY=              1.7358   XZ=              5.2232   YZ=             -0.7639

 Summary of Natural Population Analysis:

                                       Natural Population
                Natural  -----------------------------------------------
    Atom  No    Charge         Core      Valence    Rydberg      Total
 -----------------------------------------------------------------------
      C    1   -0.29833      0.99964     2.29271    0.00599     3.29833
      C    2    0.06708      0.99954     1.91818    0.01520     2.93292
      C    3   -0.20064      0.99961     2.19193    0.00911     3.20064
      C    4   -0.19417      0.99962     2.18534    0.00921     3.19417
      C    5   -0.20832      0.99957     2.19813    0.01063     3.20832
      C    6    0.29718      0.99951     1.68299    0.02032     2.70282
      O    7   -0.32451      0.99986     3.31448    0.01017     4.32451
      C    8   -0.21062      0.99955     2.20266    0.00842     3.21062
      C    9   -0.18889      0.99962     2.17992    0.00936     3.18889
      C   10   -0.23815      0.99957     2.22988    0.00870     3.23815
      C   11    0.42027      0.99969     1.55535    0.02469     2.57973
      O   12   -0.31495      0.99987     3.30954    0.00554     4.31495
      O   13   -0.27813      0.99986     3.26963    0.00864     4.27813
      C   14   -0.10433      0.99960     2.09632    0.00841     3.10433
      O   15   -0.37719      0.99988     3.36969    0.00762     4.37719
      H   16    0.09590      0.00000     0.40287    0.00123     0.40410
      H   17    0.10157      0.00000     0.39721    0.00121     0.39843
      H   18    0.10483      0.00000     0.39366    0.00151     0.39517
      H   19    0.09208      0.00000     0.40616    0.00176     0.40792
      H   20    0.09992      0.00000     0.39799    0.00209     0.40008
      H   21    0.10590      0.00000     0.39187    0.00223     0.39410
      H   22    0.09434      0.00000     0.40421    0.00145     0.40566
      H   23    0.10336      0.00000     0.39525    0.00139     0.39664
      H   24    0.10390      0.00000     0.39513    0.00097     0.39610
      H   25    0.10058      0.00000     0.39796    0.00146     0.39942
      H   26    0.11302      0.00000     0.38565    0.00133     0.38698
      H   27    0.10050      0.00000     0.39833    0.00117     0.39950
      H   28    0.10013      0.00000     0.39877    0.00110     0.39987
      H   29    0.10208      0.00000     0.39652    0.00140     0.39792
      H   30    0.10921      0.00000     0.38980    0.00099     0.39079
      H   31    0.12057      0.00000     0.37747    0.00196     0.37943
      H   32    0.09303      0.00000     0.40555    0.00142     0.40697
      H   33    0.08834      0.00000     0.41008    0.00158     0.41166
      H   34    0.08996      0.00000     0.40858    0.00146     0.41004
      H   35    0.23448      0.00000     0.26230    0.00322     0.26552
 =======================================================================
   * Total *   -0.00000     14.99498    43.81210    0.19293    59.00000

 Normal termination of Gaussian 16 at Thu Dec 10 16:04:17 2020.
