 Gaussian 16, Revision A.03,

 -----------------------------------------------------------
 # opt freq B3LYP/6-31G(d) empiricaldispersion=gd3bj scf=xqc
 -----------------------------------------------------------

 ------------------------------
 CID_22131418_JID_1818_neutraal
 ------------------------------
 Symbolic Z-matrix:
 Charge =  0 Multiplicity = 1

 SCF Done:  E(RB3LYP) =  -467.121590436     A.U. after   13 cycles
 SCF Done:  E(RB3LYP) =  -467.118048609     A.U. after   14 cycles
 SCF Done:  E(RB3LYP) =  -467.123121795     A.U. after   12 cycles
 SCF Done:  E(RB3LYP) =  -467.124227019     A.U. after   11 cycles
 SCF Done:  E(RB3LYP) =  -467.124404275     A.U. after   11 cycles
 SCF Done:  E(RB3LYP) =  -467.124430881     A.U. after   10 cycles
 SCF Done:  E(RB3LYP) =  -467.124450595     A.U. after    9 cycles
 SCF Done:  E(RB3LYP) =  -467.124463185     A.U. after    9 cycles
 SCF Done:  E(RB3LYP) =  -467.124474850     A.U. after    9 cycles
 SCF Done:  E(RB3LYP) =  -467.124483847     A.U. after    9 cycles
 SCF Done:  E(RB3LYP) =  -467.124486859     A.U. after   10 cycles
 SCF Done:  E(RB3LYP) =  -467.124488500     A.U. after    9 cycles
 SCF Done:  E(RB3LYP) =  -467.124488650     A.U. after    7 cycles
 SCF Done:  E(RB3LYP) =  -467.124488749     A.U. after    7 cycles
 Optimization completed.
    -- Stationary point found.
 Normal termination of Gaussian 16 at Tue Dec  8 21:16:35 2020.

 --------------------------------------------------------------------
 #N Geom=AllCheck Guess=TCheck SCRF=Check GenChk RB3LYP/6-31G(d) Freq
 --------------------------------------------------------------------

 Structure from the checkpoint file:  "JID_1818.chk"
 ------------------------------
 CID_22131418_JID_1818_neutraal
 ------------------------------
 Charge =  0 Multiplicity = 1

 SCF Done:  E(RB3LYP) =  -467.124488749     A.U. after    1 cycles

  Exact polarizability: 131.316   0.001 121.479   2.815   0.002  80.407
 Approx polarizability: 159.139   0.002 179.101   6.198  -0.001 121.058

                      1                      2                      3
                      A                      A                      A
 Frequencies --     25.2988                38.8020                56.7486
 Red. masses --      2.6369                 2.5991                 3.4474
 Frc consts  --      0.0010                 0.0023                 0.0065
 IR Inten    --      0.0015                 0.9162                 0.1197

                      4                      5                      6
                      A                      A                      A
 Frequencies --     62.1797               109.7494               114.7942
 Red. masses --      3.1271                 1.8234                 1.8968
 Frc consts  --      0.0071                 0.0129                 0.0147
 IR Inten    --      0.4840                 0.0443                 0.1738

                      7                      8                      9
                      A                      A                      A
 Frequencies --    161.4953               213.6759               229.7083
 Red. masses --      2.7738                 1.7688                 2.3296
 Frc consts  --      0.0426                 0.0476                 0.0724
 IR Inten    --      0.0027                 1.3943                 0.0067

                     10                     11                     12
                      A                      A                      A
 Frequencies --    250.3645               259.3667               291.0174
 Red. masses --      1.2628                 1.3883                 3.0132
 Frc consts  --      0.0466                 0.0550                 0.1504
 IR Inten    --      0.2451                 1.7112                 4.6212

                     13                     14                     15
                      A                      A                      A
 Frequencies --    313.3419               356.6592               357.6517
 Red. masses --      3.9846                 1.9386                 2.5264
 Frc consts  --      0.2305                 0.1453                 0.1904
 IR Inten    --      1.3459                 0.0007                 5.4367

                     16                     17                     18
                      A                      A                      A
 Frequencies --    463.6046               473.4340               508.8529
 Red. masses --      2.4552                 2.8103                 2.9710
 Frc consts  --      0.3109                 0.3711                 0.4533
 IR Inten    --      0.7928                 0.1167                 1.8385

                     19                     20                     21
                      A                      A                      A
 Frequencies --    686.5262               768.9930               779.5466
 Red. masses --      3.8245                 1.2130                 1.2859
 Frc consts  --      1.0620                 0.4226                 0.4604
 IR Inten    --     12.8157                 3.0786                14.2470

                     22                     23                     24
                      A                      A                      A
 Frequencies --    827.0667               852.8650               866.9108
 Red. masses --      1.8444                 2.2276                 1.6755
 Frc consts  --      0.7433                 0.9546                 0.7419
 IR Inten    --      3.4522                 2.1991                 0.3565

                     25                     26                     27
                      A                      A                      A
 Frequencies --    875.4608               894.2222               897.9920
 Red. masses --      2.4155                 1.4132                 1.6329
 Frc consts  --      1.0908                 0.6658                 0.7758
 IR Inten    --      4.3483                 3.3836                 2.2045

                     28                     29                     30
                      A                      A                      A
 Frequencies --    981.0042               998.9579              1009.6501
 Red. masses --      1.0908                 1.2572                 1.5120
 Frc consts  --      0.6185                 0.7392                 0.9081
 IR Inten    --     49.2314                23.5715                 3.4464

                     31                     32                     33
                      A                      A                      A
 Frequencies --   1009.8058              1021.3932              1063.2552
 Red. masses --      1.8860                 1.7197                 2.3051
 Frc consts  --      1.1331                 1.0570                 1.5354
 IR Inten    --      1.6392                 3.2936                 9.1431

                     34                     35                     36
                      A                      A                      A
 Frequencies --   1086.3827              1119.4888              1125.4181
 Red. masses --      2.7636                 1.6617                 1.5935
 Frc consts  --      1.9217                 1.2270                 1.1891
 IR Inten    --     11.6566                 7.4399                 5.6044

                     37                     38                     39
                      A                      A                      A
 Frequencies --   1151.2661              1167.9124              1222.9958
 Red. masses --      2.2804                 2.3420                 3.2551
 Frc consts  --      1.7808                 1.8822                 2.8686
 IR Inten    --      8.6417                 1.4109               236.5600

                     40                     41                     42
                      A                      A                      A
 Frequencies --   1267.9818              1272.9404              1296.4163
 Red. masses --      1.3063                 1.6088                 1.2812
 Frc consts  --      1.2374                 1.5359                 1.2687
 IR Inten    --      1.1498               150.7971                 0.5660

                     43                     44                     45
                      A                      A                      A
 Frequencies --   1304.3197              1320.8171              1334.8919
 Red. masses --      1.2663                 1.1910                 1.2089
 Frc consts  --      1.2692                 1.2242                 1.2692
 IR Inten    --      1.5927                13.5594                 9.9456

                     46                     47                     48
                      A                      A                      A
 Frequencies --   1382.3503              1382.8825              1387.7072
 Red. masses --      1.3003                 1.4013                 1.3960
 Frc consts  --      1.4640                 1.5789                 1.5840
 IR Inten    --      0.3613                 2.3474                 3.9454

                     49                     50                     51
                      A                      A                      A
 Frequencies --   1395.5898              1399.5613              1410.6975
 Red. masses --      1.4027                 1.1831                 1.2834
 Frc consts  --      1.6096                 1.3654                 1.5048
 IR Inten    --      4.0495                18.4967                 3.6307

                     52                     53                     54
                      A                      A                      A
 Frequencies --   1440.0163              1444.7883              1509.6115
 Red. masses --      1.2702                 1.2733                 1.0964
 Frc consts  --      1.5519                 1.5660                 1.4722
 IR Inten    --      1.1958                 9.1369                 1.8918

                     55                     56                     57
                      A                      A                      A
 Frequencies --   1510.1143              1516.9691              1517.9447
 Red. masses --      1.0968                 1.0680                 1.0722
 Frc consts  --      1.4737                 1.4480                 1.4556
 IR Inten    --      4.7492                 0.8614                 1.5562

                     58                     59                     60
                      A                      A                      A
 Frequencies --   1530.0663              1531.7963              1535.2508
 Red. masses --      1.0493                 1.0545                 1.0591
 Frc consts  --      1.4473                 1.4578                 1.4708
 IR Inten    --      8.1275                 0.5239                 1.0651

                     61                     62                     63
                      A                      A                      A
 Frequencies --   1539.9063              1721.5582              1745.4386
 Red. masses --      1.0588                 5.7122                 5.4737
 Frc consts  --      1.4793                 9.9746                 9.8252
 IR Inten    --      4.5378               150.9513                42.5235

                     64                     65                     66
                      A                      A                      A
 Frequencies --   3015.4478              3015.8168              3034.8863
 Red. masses --      1.0648                 1.0649                 1.0616
 Frc consts  --      5.7046                 5.7064                 5.7611
 IR Inten    --     73.2445                 0.3461                60.3522

                     67                     68                     69
                      A                      A                      A
 Frequencies --   3035.0660              3044.8508              3046.0754
 Red. masses --      1.0617                 1.0370                 1.0375
 Frc consts  --      5.7621                 5.6647                 5.6718
 IR Inten    --      3.5788                17.6783                29.8682

                     70                     71                     72
                      A                      A                      A
 Frequencies --   3065.1090              3065.3542              3073.3548
 Red. masses --      1.0959                 1.0956                 1.1027
 Frc consts  --      6.0664                 6.0657                 6.1367
 IR Inten    --     62.2911                11.4007                32.8691

                     73                     74                     75
                      A                      A                      A
 Frequencies --   3073.6747              3110.2949              3110.4221
 Red. masses --      1.1026                 1.1016                 1.1012
 Frc consts  --      6.1371                 6.2788                 6.2770
 IR Inten    --     27.4337               102.7750                 0.2022

                     76                     77                     78
                      A                      A                      A
 Frequencies --   3116.4356              3119.7950              3196.2785
 Red. masses --      1.1020                 1.1015                 1.0925
 Frc consts  --      6.3058                 6.3164                 6.5759
 IR Inten    --     70.2228                40.0675                29.8866

                     79                     80                     81
                      A                      A                      A
 Frequencies --   3199.1992              3206.6544              3215.2076
 Red. masses --      1.0938                 1.0876                 1.0872
 Frc consts  --      6.5961                 6.5888                 6.6218
 IR Inten    --     10.9068                27.2691                 0.9759

 - Thermochemistry -
 -------------------
 Temperature   298.150 Kelvin.  Pressure   1.00000 Atm.
 Atom     1 has atomic number  6 and mass  12.00000

 Molecular mass:   154.13577 amu.
 Principal axes and moments of inertia in atomic units:
                           1         2         3
     Eigenvalues --  1586.335162856.580214210.13159
           X            0.99999   0.00001  -0.00351
           Y           -0.00001   1.00000   0.00002
           Z            0.00351  -0.00002   0.99999
 This molecule is an asymmetric top.
 Rotational symmetry number  1.
 Warning -- assumption of classical behavior for rotation
           may cause significant error
 Rotational temperatures (Kelvin)      0.05460     0.03032     0.02057
 Rotational constants (GHZ):           1.13768     0.63178     0.42867
 Zero-point vibrational energy     688674.6 (Joules/Mol)
                                  164.59717 (Kcal/Mol)
 Warning -- explicit consideration of  18 degrees of freedom as
           vibrations may cause significant error
 Vibrational temperatures:     36.40    55.83    81.65    89.46   157.90
          (Kelvin)            165.16   232.36   307.43   330.50   360.22
                              373.17   418.71   450.83   513.15   514.58
                              667.02   681.17   732.13   987.76  1106.41
                             1121.59  1189.96  1227.08  1247.29  1259.59
                             1286.59  1292.01  1411.45  1437.28  1452.66
                             1452.89  1469.56  1529.79  1563.06  1610.69
                             1619.23  1656.42  1680.37  1759.62  1824.34
                             1831.48  1865.25  1876.63  1900.36  1920.61
                             1988.89  1989.66  1996.60  2007.94  2013.66
                             2029.68  2071.86  2078.73  2171.99  2172.72
                             2182.58  2183.98  2201.42  2203.91  2208.88
                             2215.58  2476.94  2511.30  4338.56  4339.09
                             4366.52  4366.78  4380.86  4382.62  4410.01
                             4410.36  4421.87  4422.33  4475.02  4475.20
                             4483.86  4488.69  4598.73  4602.93  4613.66
                             4625.97

 Zero-point correction=                           0.262302 (Hartree/Particle)
 Thermal correction to Energy=                    0.275987
 Thermal correction to Enthalpy=                  0.276932
 Thermal correction to Gibbs Free Energy=         0.220280
 Sum of electronic and zero-point Energies=           -466.862186
 Sum of electronic and thermal Energies=              -466.848501
 Sum of electronic and thermal Enthalpies=            -466.847557
 Sum of electronic and thermal Free Energies=         -466.904209

                     E (Thermal)             CV                S
                      KCal/Mol        Cal/Mol-Kelvin    Cal/Mol-Kelvin
 Total                  173.185             48.600            119.233
 Electronic               0.000              0.000              0.000
 Translational            0.889              2.981             41.008
 Rotational               0.889              2.981             31.323
 Vibrational            171.407             42.639             46.902
 Vibration     1          0.593              1.985              6.168
 Vibration     2          0.594              1.981              5.319
 Vibration     3          0.596              1.975              4.567
 Vibration     4          0.597              1.972              4.387
 Vibration     5          0.606              1.941              3.273
 Vibration     6          0.608              1.937              3.186
 Vibration     7          0.622              1.890              2.532
 Vibration     8          0.644              1.820              2.012
 Vibration     9          0.652              1.796              1.881
 Vibration    10          0.663              1.762              1.728
 Vibration    11          0.668              1.747              1.666
 Vibration    12          0.687              1.690              1.468
 Vibration    13          0.701              1.648              1.345
 Vibration    14          0.732              1.562              1.137
 Vibration    15          0.733              1.560              1.132
 Vibration    16          0.821              1.331              0.756
 Vibration    17          0.830              1.309              0.728
 Vibration    18          0.864              1.230              0.636

 Optimization completed.
    -- Stationary point found.
 Normal termination of Gaussian 16 at Tue Dec  8 21:22:40 2020.

 ----------------------------------------------------------------------
 # B3LYP/6-311++G(d,p) empiricaldispersion=gd3bj scf=xqc pop=npa geom=c
 heck
 ----------------------------------------------------------------------

 --------------------------------------
 CID_22131418_JID_1818_Energie_neutraal
 --------------------------------------
 Structure from the checkpoint file:  "JID_1818.chk"
 Charge =  0 Multiplicity = 1

 SCF Done:  E(RB3LYP) =  -467.257838455     A.U. after   13 cycles
 Normal termination of Gaussian 16 at Tue Dec  8 21:26:21 2020.

 ----------------------------------------------------------------------
 # B3LYP/6-311++G(d,p) empiricaldispersion=gd3bj scf=xqc pop=npa geom=c
 heck
 ----------------------------------------------------------------------

 ------------------------------------
 CID_22131418_JID_1818_Energie_kation
 ------------------------------------
 Structure from the checkpoint file:  "JID_1818.chk"
 Charge =  1 Multiplicity = 2

 SCF Done:  E(UB3LYP) =  -466.969625753     A.U. after   17 cycles
 Normal termination of Gaussian 16 at Tue Dec  8 21:32:48 2020.
 Gaussian 16:  ES64L-G16RevA.03 25-Dec-2016

 ----------------------------------------------------------------------
 # B3LYP/6-311++G(d,p) empiricaldispersion=gd3bj scf=xqc pop=npa geom=c
 heck
 ----------------------------------------------------------------------

 -----------------------------------
 CID_22131418_JID_1818_Energie_anion
 -----------------------------------
 Structure from the checkpoint file:  "JID_1818.chk"
 Charge = -1 Multiplicity = 2

                         Standard orientation:
 ---------------------------------------------------------------------
 Center     Atomic      Atomic             Coordinates (Angstroms)
 Number     Number       Type             X           Y           Z
 ---------------------------------------------------------------------
      1          6           0        2.207934    2.266577   -0.182011
      2          6           0        3.086742    1.053004   -0.495472
      3          6           0        2.891692   -0.124706    0.480634
      4          6           0        1.493812   -0.679085    0.489260
      5          6           0        1.209320   -1.896121    0.021745
      6          8           0        0.000219   -2.548733    0.000503
      7          6           0       -1.208892   -1.896204   -0.021740
      8          6           0       -1.493193   -0.679026   -0.489014
      9          6           0       -2.891229   -0.125007   -0.481489
     10          6           0       -3.087512    1.052282    0.494876
     11          6           0       -2.208654    2.266164    0.182755
     12          1           0        1.143098    2.028162   -0.281726
     13          1           0        2.423304    3.098048   -0.861994
     14          1           0        2.374456    2.621106    0.842919
     15          1           0        2.880298    0.702664   -1.515190
     16          1           0        4.142683    1.353873   -0.473249
     17          1           0        3.601884   -0.921564    0.224503
     18          1           0        3.155836    0.213955    1.493799
     19          1           0        0.701901   -0.052525    0.886433
     20          1           0        1.980313   -2.560669   -0.359383
     21          1           0       -1.980113   -2.561005    0.358472
     22          1           0       -0.701088   -0.052116   -0.885228
     23          1           0       -3.154515    0.213971   -1.494773
     24          1           0       -3.601466   -0.922139   -0.226335
     25          1           0       -4.143496    1.352929    0.471721
     26          1           0       -2.881999    0.701599    1.514665
     27          1           0       -2.374226    2.621049   -0.842206
     28          1           0       -2.424877    3.097332    0.862839
     29          1           0       -1.143870    2.027926    0.283443
 ---------------------------------------------------------------------

 SCF Done:  E(UB3LYP) =  -467.240430440     A.U. after   29 cycles

 The electronic state is 2-A.
 Alpha  occ. eigenvalues --  -19.06947 -10.12785 -10.12784 -10.07308 -10.07308
 Alpha  occ. eigenvalues --  -10.06744 -10.06742 -10.06475 -10.06475 -10.05397
 Alpha  occ. eigenvalues --  -10.05397  -0.98315  -0.71452  -0.70701  -0.66677
 Alpha  occ. eigenvalues --   -0.64549  -0.59688  -0.56919  -0.52999  -0.48746
 Alpha  occ. eigenvalues --   -0.47147  -0.45864  -0.41139  -0.38438  -0.36821
 Alpha  occ. eigenvalues --   -0.35431  -0.34351  -0.33238  -0.32061  -0.30475
 Alpha  occ. eigenvalues --   -0.30236  -0.29792  -0.28389  -0.27257  -0.26939
 Alpha  occ. eigenvalues --   -0.24312  -0.24273  -0.23853  -0.23499  -0.23206
 Alpha  occ. eigenvalues --   -0.22644  -0.16732  -0.12073   0.04725
 Alpha virt. eigenvalues --    0.06382   0.07356   0.08238   0.08414   0.08551
 Alpha virt. eigenvalues --    0.09198   0.09506   0.10828   0.10846   0.11110
 Alpha virt. eigenvalues --    0.11377   0.12006   0.12533   0.12815   0.13798

  Beta  occ. eigenvalues --  -19.06948 -10.12757 -10.12757 -10.07292 -10.07292
  Beta  occ. eigenvalues --  -10.06732 -10.06729 -10.06451 -10.06450 -10.05360
  Beta  occ. eigenvalues --  -10.05360  -0.98297  -0.71406  -0.70660  -0.66625
  Beta  occ. eigenvalues --   -0.64507  -0.59630  -0.56862  -0.52936  -0.48664
  Beta  occ. eigenvalues --   -0.47078  -0.45815  -0.41103  -0.38396  -0.36767
  Beta  occ. eigenvalues --   -0.35399  -0.34312  -0.33183  -0.32011  -0.30436
  Beta  occ. eigenvalues --   -0.30193  -0.29750  -0.28353  -0.27215  -0.26893
  Beta  occ. eigenvalues --   -0.24268  -0.24226  -0.23802  -0.23453  -0.23168
  Beta  occ. eigenvalues --   -0.22600  -0.16610  -0.12015
  Beta virt. eigenvalues --    0.06933   0.07453   0.07723   0.08638   0.08712
  Beta virt. eigenvalues --    0.09160   0.09656   0.09910   0.11094   0.11316
  Beta virt. eigenvalues --    0.11483   0.11864   0.12315   0.12605   0.13217

 Mulliken charges and spin densities:
               1          2
     1  C    0.670018  -1.119727
     2  C   -0.386135   0.164323
     3  C    0.518891  -1.015961
     4  C    0.249605   0.362124
     5  C   -0.522361  -0.153534
     6  O   -0.068093  -0.000091
     7  C   -0.524030  -0.152113
     8  C    0.251450   0.360401
     9  C    0.517118  -1.013857
    10  C   -0.385731   0.163843
    11  C    0.670116  -1.119921
    12  H    0.106907  -0.048464
    13  H   -0.468530   0.608156
    14  H   -0.133547   0.275162
    15  H    0.005978   0.122126
    16  H   -0.477206   0.624795
    17  H   -0.075938   0.225713
    18  H   -0.223579   0.372121
    19  H    0.256667  -0.056812
    20  H    0.013179   0.140053
    21  H    0.013226   0.139990
    22  H    0.257809  -0.058015
    23  H   -0.223648   0.372204
    24  H   -0.075623   0.225367
    25  H   -0.476847   0.624417
    26  H    0.006266   0.121833
    27  H   -0.133166   0.274773
    28  H   -0.468610   0.608237
    29  H    0.105814  -0.047143
 Sum of Mulliken charges =  -1.00000   1.00000

 Dipole moment (field-independent basis, Debye):
    X=             -0.0027    Y=             -6.1369    Z=              0.0008  Tot=              6.1369
 Quadrupole moment (field-independent basis, Debye-Ang):
   XX=           -156.1816   YY=           -123.2709   ZZ=            -98.0402
   XY=              0.0011   XZ=             -2.1077   YZ=              0.0012

 Summary of Natural Population Analysis:

                                       Natural Population
                Natural  -----------------------------------------------
    Atom  No    Charge         Core      Valence    Rydberg      Total
 -----------------------------------------------------------------------
      C    1   -0.28700      0.99966     2.28160    0.00574     3.28700
      C    2   -0.18562      0.99964     2.17786    0.00813     3.18562
      C    3   -0.20079      0.99962     2.19023    0.01093     3.20079
      C    4   -0.13600      0.99952     2.12737    0.00910     3.13600
      C    5    0.08116      0.99939     1.90705    0.01240     2.91884
      O    6   -0.27261      0.99986     3.26308    0.00967     4.27261
      C    7    0.08118      0.99939     1.90703    0.01240     2.91882
      C    8   -0.13607      0.99952     2.12745    0.00910     3.13607
      C    9   -0.20078      0.99962     2.19023    0.01093     3.20078
      C   10   -0.18562      0.99964     2.17786    0.00813     3.18562
      C   11   -0.28700      0.99966     2.28160    0.00574     3.28700
      H   12    0.09487      0.00000     0.40338    0.00174     0.40513
      H   13    0.10089      0.00000     0.39789    0.00122     0.39911
      H   14    0.09645      0.00000     0.40216    0.00139     0.40355
      H   15    0.09170      0.00000     0.40703    0.00127     0.40830
      H   16    0.09684      0.00000     0.40084    0.00233     0.40316
      H   17    0.09762      0.00000     0.40112    0.00126     0.40238
      H   18    0.09929      0.00000     0.39941    0.00129     0.40071
      H   19    0.10255      0.00000     0.39584    0.00161     0.39745
      H   20    0.08436      0.00000     0.41429    0.00135     0.41564
      H   21    0.08437      0.00000     0.41428    0.00135     0.41563
      H   22    0.10255      0.00000     0.39584    0.00161     0.39745
      H   23    0.09929      0.00000     0.39942    0.00129     0.40071
      H   24    0.09761      0.00000     0.40113    0.00126     0.40239
      H   25    0.09683      0.00000     0.40084    0.00233     0.40317
      H   26    0.09170      0.00000     0.40703    0.00126     0.40830
      H   27    0.09645      0.00000     0.40216    0.00139     0.40355
      H   28    0.10089      0.00000     0.39789    0.00122     0.39911
      H   29    0.09487      0.00000     0.40338    0.00174     0.40513
 =======================================================================
   * Total *   -0.00000     10.99553    31.87529    0.12918    43.00000

 Normal termination of Gaussian 16 at Tue Dec  8 21:42:14 2020.
