 Gaussian 16, Revision A.03,

 -----------------------------------------------------------
 # opt freq B3LYP/6-31G(d) empiricaldispersion=gd3bj scf=xqc
 -----------------------------------------------------------

 ------------------------------
 CID_83115808_JID_9321_neutraal
 ------------------------------
 Symbolic Z-matrix:
 Charge =  0 Multiplicity = 1

 SCF Done:  E(RB3LYP) =  -875.510710585     A.U. after   14 cycles
 SCF Done:  E(RB3LYP) =  -875.523327505     A.U. after   12 cycles
 SCF Done:  E(RB3LYP) =  -875.526553082     A.U. after   12 cycles
 SCF Done:  E(RB3LYP) =  -875.527304803     A.U. after   12 cycles
 SCF Done:  E(RB3LYP) =  -875.527817516     A.U. after   12 cycles
 SCF Done:  E(RB3LYP) =  -875.528526017     A.U. after   12 cycles
 SCF Done:  E(RB3LYP) =  -875.529582986     A.U. after   12 cycles
 SCF Done:  E(RB3LYP) =  -875.530255693     A.U. after   11 cycles
 SCF Done:  E(RB3LYP) =  -875.530886682     A.U. after   12 cycles
 SCF Done:  E(RB3LYP) =  -875.531512257     A.U. after   11 cycles
 SCF Done:  E(RB3LYP) =  -875.539488426     A.U. after    8 cycles
 SCF Done:  E(RB3LYP) =  -875.539489373     A.U. after    9 cycles
 SCF Done:  E(RB3LYP) =  -875.539489502     A.U. after    7 cycles
 SCF Done:  E(RB3LYP) =  -875.539489537     A.U. after    6 cycles
 SCF Done:  E(RB3LYP) =  -875.539489536     A.U. after    6 cycles
 Optimization completed.
    -- Stationary point found.
 Normal termination of Gaussian 16 at Sat Dec 12 10:19:03 2020.

 --------------------------------------------------------------------
 #N Geom=AllCheck Guess=TCheck SCRF=Check GenChk RB3LYP/6-31G(d) Freq
 --------------------------------------------------------------------

 Structure from the checkpoint file:  "JID_9321.chk"
 ------------------------------
 CID_83115808_JID_9321_neutraal
 ------------------------------
 Charge =  0 Multiplicity = 1

 SCF Done:  E(RB3LYP) =  -875.539489536     A.U. after    1 cycles

  Exact polarizability: 163.348   0.413 184.277   0.074   8.790 146.136
 Approx polarizability: 210.988   4.325 266.874  -8.627  16.370 240.412

                      1                      2                      3
                      A                      A                      A
 Frequencies --     25.6640                38.5785                49.3653
 Red. masses --      3.9921                 3.5553                 2.7575
 Frc consts  --      0.0015                 0.0031                 0.0040
 IR Inten    --      0.3008                 0.2262                 0.5320

                      4                      5                      6
                      A                      A                      A
 Frequencies --     69.0406                87.2650                93.5913
 Red. masses --      4.4892                 2.9336                 3.0242
 Frc consts  --      0.0126                 0.0132                 0.0156
 IR Inten    --      1.5478                 2.6034                 0.2798

                      7                      8                      9
                      A                      A                      A
 Frequencies --    108.6338               124.1853               133.4642
 Red. masses --      1.7127                 2.2171                 1.7713
 Frc consts  --      0.0119                 0.0201                 0.0186
 IR Inten    --      0.3901                 1.9370                 0.9096

                     10                     11                     12
                      A                      A                      A
 Frequencies --    142.6464               143.3145               172.5395
 Red. masses --      2.1856                 1.6315                 2.0021
 Frc consts  --      0.0262                 0.0197                 0.0351
 IR Inten    --      4.2127                 2.4060                 1.6663

                     13                     14                     15
                      A                      A                      A
 Frequencies --    177.7998               184.5796               222.1657
 Red. masses --      3.4498                 2.3661                 2.6816
 Frc consts  --      0.0643                 0.0475                 0.0780
 IR Inten    --      6.7049                 8.2740                 3.5638

                     16                     17                     18
                      A                      A                      A
 Frequencies --    232.0537               247.5759               270.8832
 Red. masses --      1.5793                 2.3246                 2.1684
 Frc consts  --      0.0501                 0.0839                 0.0937
 IR Inten    --      2.2842                 0.9494                 4.0038

                     19                     20                     21
                      A                      A                      A
 Frequencies --    273.4648               276.4554               294.1519
 Red. masses --      2.5682                 2.2496                 2.5008
 Frc consts  --      0.1132                 0.1013                 0.1275
 IR Inten    --      8.3082                 4.4273                 5.1303

                     22                     23                     24
                      A                      A                      A
 Frequencies --    309.4144               333.4142               343.4763
 Red. masses --      2.1346                 2.6964                 2.8617
 Frc consts  --      0.1204                 0.1766                 0.1989
 IR Inten    --      2.1197                12.7081                 8.4104

                     25                     26                     27
                      A                      A                      A
 Frequencies --    383.3231               407.4712               437.9901
 Red. masses --      3.3439                 2.4955                 1.3944
 Frc consts  --      0.2895                 0.2441                 0.1576
 IR Inten    --      1.4679                 3.1819                78.7332

                     28                     29                     30
                      A                      A                      A
 Frequencies --    453.4597               523.2037               550.9437
 Red. masses --      2.9754                 3.5737                 3.8907
 Frc consts  --      0.3605                 0.5764                 0.6958
 IR Inten    --      2.2877                 0.4778                26.2958

                     31                     32                     33
                      A                      A                      A
 Frequencies --    574.2848               601.2570               629.6968
 Red. masses --      3.1086                 4.5833                 4.0236
 Frc consts  --      0.6040                 0.9762                 0.9400
 IR Inten    --      4.3859                 7.8577                 7.5785

                     34                     35                     36
                      A                      A                      A
 Frequencies --    642.7706               691.7826               741.3582
 Red. masses --      3.9174                 5.6311                 3.4350
 Frc consts  --      0.9536                 1.5878                 1.1123
 IR Inten    --     25.2382                 4.3277                56.7299

                     37                     38                     39
                      A                      A                      A
 Frequencies --    746.4055               748.4808               793.8192
 Red. masses --      3.9722                 3.6883                 2.4417
 Frc consts  --      1.3039                 1.2174                 0.9065
 IR Inten    --     20.2290                 9.7250                14.5246

                     40                     41                     42
                      A                      A                      A
 Frequencies --    809.3067               816.1321               856.4311
 Red. masses --      1.7959                 2.0998                 1.9518
 Frc consts  --      0.6930                 0.8241                 0.8435
 IR Inten    --      7.3288                45.1440                26.2902

                     43                     44                     45
                      A                      A                      A
 Frequencies --    868.2499               879.6273               899.7735
 Red. masses --      2.3472                 2.0732                 1.7112
 Frc consts  --      1.0425                 0.9451                 0.8162
 IR Inten    --     44.1134                45.5234                41.7720

                     46                     47                     48
                      A                      A                      A
 Frequencies --    913.8706               949.6940               979.3888
 Red. masses --      1.5055                 1.7121                 1.9994
 Frc consts  --      0.7408                 0.9098                 1.1300
 IR Inten    --     23.6697                12.4656               108.9429

                     49                     50                     51
                      A                      A                      A
 Frequencies --   1040.6650              1046.2108              1055.0222
 Red. masses --      2.2856                 2.1785                 2.0099
 Frc consts  --      1.4584                 1.4049                 1.3181
 IR Inten    --     19.3140                18.4769                 9.5477

                     52                     53                     54
                      A                      A                      A
 Frequencies --   1094.0138              1096.0799              1104.8555
 Red. masses --      1.8677                 1.4021                 1.8953
 Frc consts  --      1.3170                 0.9925                 1.3631
 IR Inten    --      8.2952                 6.0792                 5.8222

                     55                     56                     57
                      A                      A                      A
 Frequencies --   1117.2729              1132.8549              1145.3697
 Red. masses --      1.8639                 2.7350                 1.2247
 Frc consts  --      1.3709                 2.0680                 0.9466
 IR Inten    --      7.0897                34.8760                 1.0986

                     58                     59                     60
                      A                      A                      A
 Frequencies --   1151.7871              1161.8098              1178.8249
 Red. masses --      3.2683                 1.3644                 1.4003
 Frc consts  --      2.5545                 1.0851                 1.1465
 IR Inten    --     22.8279                 5.5046                 6.0402

                     61                     62                     63
                      A                      A                      A
 Frequencies --   1188.3821              1251.0033              1261.4560
 Red. masses --      2.9732                 1.6040                 2.4422
 Frc consts  --      2.4739                 1.4790                 2.2897
 IR Inten    --     21.6507                 2.6183                83.9132

                     64                     65                     66
                      A                      A                      A
 Frequencies --   1262.9048              1277.0247              1293.4914
 Red. masses --      1.2528                 1.9331                 1.5696
 Frc consts  --      1.1773                 1.8573                 1.5473
 IR Inten    --      6.1153                 1.4288                 7.3950

                     67                     68                     69
                      A                      A                      A
 Frequencies --   1303.8678              1305.8482              1321.0573
 Red. masses --      3.6499                 1.3250                 1.2209
 Frc consts  --      3.6560                 1.3312                 1.2553
 IR Inten    --     67.9951                 1.7693                 2.4378

                     70                     71                     72
                      A                      A                      A
 Frequencies --   1342.6303              1377.0061              1391.5245
 Red. masses --      4.4036                 1.3822                 1.4730
 Frc consts  --      4.6771                 1.5442                 1.6804
 IR Inten    --     32.8733                 2.4424                17.6218

                     73                     74                     75
                      A                      A                      A
 Frequencies --   1403.8413              1409.4929              1427.1068
 Red. masses --      1.3655                 1.3541                 2.5401
 Frc consts  --      1.5855                 1.5850                 3.0480
 IR Inten    --     24.6834                17.2821                46.0681

                     76                     77                     78
                      A                      A                      A
 Frequencies --   1441.0353              1444.1499              1463.8844
 Red. masses --      1.3626                 1.9223                 1.1507
 Frc consts  --      1.6672                 2.3621                 1.4528
 IR Inten    --     19.0328               189.9679                 5.9259

                     79                     80                     81
                      A                      A                      A
 Frequencies --   1464.2802              1497.1013              1500.2728
 Red. masses --      1.2247                 1.4925                 1.2915
 Frc consts  --      1.5472                 1.9709                 1.7128
 IR Inten    --      1.8027                27.7915                 1.7629

                     82                     83                     84
                      A                      A                      A
 Frequencies --   1502.2748              1513.3439              1514.4711
 Red. masses --      1.3294                 1.1373                 1.0872
 Frc consts  --      1.7676                 1.5347                 1.4693
 IR Inten    --     69.2423                17.3191                20.4559

                     85                     86                     87
                      A                      A                      A
 Frequencies --   1516.5302              1518.1896              1523.9078
 Red. masses --      1.1071                 1.2970                 1.6122
 Frc consts  --      1.5002                 1.7614                 2.2059
 IR Inten    --     10.8641                 0.7385                 1.1720

                     88                     89                     90
                      A                      A                      A
 Frequencies --   1525.1822              1527.5142              1531.2943
 Red. masses --      1.2022                 1.0959                 1.1272
 Frc consts  --      1.6477                 1.5066                 1.5572
 IR Inten    --      5.7341                 2.7465                10.3334

                     91                     92                     93
                      A                      A                      A
 Frequencies --   1534.2442              1536.9114              1538.4011
 Red. masses --      1.1135                 1.1152                 1.2216
 Frc consts  --      1.5443                 1.5520                 1.7034
 IR Inten    --      1.1791                 8.7671                 1.4396

                     94                     95                     96
                      A                      A                      A
 Frequencies --   1547.0919              1564.3877              1581.2084
 Red. masses --      1.0797                 1.3428                 3.1529
 Frc consts  --      1.5227                 1.9362                 4.6445
 IR Inten    --     33.6911                49.9750                35.7039

                     97                     98                     99
                      A                      A                      A
 Frequencies --   1636.4818              1697.9477              1757.3365
 Red. masses --      4.4221                 1.4039                 3.0306
 Frc consts  --      6.9776                 2.3848                 5.5142
 IR Inten    --     20.4008               220.3009               207.8913

                    100                    101                    102
                      A                      A                      A
 Frequencies --   3026.7711              3031.1255              3032.3949
 Red. masses --      1.0442                 1.0665                 1.0648
 Frc consts  --      5.6364                 5.7730                 5.7691
 IR Inten    --     41.2317                31.1614                19.2991

                    103                    104                    105
                      A                      A                      A
 Frequencies --   3034.3997              3042.1883              3044.5894
 Red. masses --      1.0451                 1.0465                 1.0485
 Frc consts  --      5.6696                 5.7064                 5.7263
 IR Inten    --     72.1395                53.8528                59.7592

                    106                    107                    108
                      A                      A                      A
 Frequencies --   3047.5230              3059.1051              3077.6427
 Red. masses --      1.0525                 1.0636                 1.1044
 Frc consts  --      5.7593                 5.8645                 6.1633
 IR Inten    --     33.7313                46.1293                41.1791

                    109                    110                    111
                      A                      A                      A
 Frequencies --   3082.5972              3094.7736              3095.9231
 Red. masses --      1.0985                 1.0933                 1.0951
 Frc consts  --      6.1502                 6.1693                 6.1844
 IR Inten    --      6.2718                52.7408                16.6986

                    112                    113                    114
                      A                      A                      A
 Frequencies --   3097.4259              3110.4763              3111.6328
 Red. masses --      1.0983                 1.1030                 1.1002
 Frc consts  --      6.2083                 6.2875                 6.2764
 IR Inten    --     14.6955                28.8121                52.7275

                    115                    116                    117
                      A                      A                      A
 Frequencies --   3122.3826              3124.0726              3169.6399
 Red. masses --      1.1018                 1.0893                 1.0971
 Frc consts  --      6.3290                 6.2638                 6.4942
 IR Inten    --     64.5231                14.9839                 7.8272

                    118                    119                    120
                      A                      A                      A
 Frequencies --   3172.0301              3194.6630              3407.2691
 Red. masses --      1.1048                 1.0966                 1.0573
 Frc consts  --      6.5494                 6.5939                 7.2321
 IR Inten    --      5.6954                 3.1633               108.5471

                    121                    122                    123
                      A                      A                      A
 Frequencies --   3482.8997              3515.8883              3527.8661
 Red. masses --      1.0751                 1.0738                 1.0871
 Frc consts  --      7.6838                 7.8209                 7.9719
 IR Inten    --    134.1167                14.7072                30.1774

 - Thermochemistry -
 -------------------
 Temperature   298.150 Kelvin.  Pressure   1.00000 Atm.
 Atom     1 has atomic number  6 and mass  12.00000

 Molecular mass:   268.20116 amu.
 Principal axes and moments of inertia in atomic units:
                           1         2         3
     Eigenvalues --  3938.048755462.932927362.49276
           X            0.99994   0.00238   0.01104
           Y           -0.00245   0.99998   0.00660
           Z           -0.01103  -0.00662   0.99992
 This molecule is an asymmetric top.
 Rotational symmetry number  1.
 Warning -- assumption of classical behavior for rotation
           may cause significant error
 Rotational temperatures (Kelvin)      0.02199     0.01585     0.01176
 Rotational constants (GHZ):           0.45828     0.33036     0.24513
 Zero-point vibrational energy     998741.7 (Joules/Mol)
                                  238.70499 (Kcal/Mol)
 Warning -- explicit consideration of  32 degrees of freedom as
           vibrations may cause significant error
 Vibrational temperatures:     36.92    55.51    71.03    99.33   125.55
          (Kelvin)            134.66   156.30   178.67   192.03   205.24
                              206.20   248.25   255.81   265.57   319.65
                              333.87   356.21   389.74   393.45   397.76
                              423.22   445.18   479.71   494.19   551.52
                              586.26   630.17   652.43   752.77   792.69
                              826.27   865.07   905.99   924.80   995.32
                             1066.65  1073.91  1076.90  1142.13  1164.41
                             1174.23  1232.21  1249.22  1265.59  1294.57
                             1314.86  1366.40  1409.12  1497.28  1505.26
                             1517.94  1574.04  1577.01  1589.64  1607.51
                             1629.93  1647.93  1657.16  1671.59  1696.07
                             1709.82  1799.91  1814.95  1817.04  1837.35
                             1861.05  1875.97  1878.82  1900.71  1931.75
                             1981.20  2002.09  2019.81  2027.95  2053.29
                             2073.33  2077.81  2106.20  2106.77  2153.99
                             2158.56  2161.44  2177.36  2178.99  2181.95
                             2184.34  2192.56  2194.40  2197.75  2203.19
                             2207.44  2211.27  2213.42  2225.92  2250.80
                             2275.01  2354.53  2442.97  2528.42  4354.85
                             4361.11  4362.94  4365.82  4377.03  4380.49
                             4384.71  4401.37  4428.04  4435.17  4452.69
                             4454.34  4456.50  4475.28  4476.95  4492.41
                             4494.84  4560.40  4563.84  4596.41  4902.30
                             5011.12  5058.58  5075.81

 Zero-point correction=                           0.380401 (Hartree/Particle)
 Thermal correction to Energy=                    0.401509
 Thermal correction to Enthalpy=                  0.402453
 Thermal correction to Gibbs Free Energy=         0.330386
 Sum of electronic and zero-point Energies=           -875.159089
 Sum of electronic and thermal Energies=              -875.137980
 Sum of electronic and thermal Enthalpies=            -875.137036
 Sum of electronic and thermal Free Energies=         -875.209103

                     E (Thermal)             CV                S
                      KCal/Mol        Cal/Mol-Kelvin    Cal/Mol-Kelvin
 Total                  251.951             77.617            151.678
 Electronic               0.000              0.000              0.000
 Translational            0.889              2.981             42.659
 Rotational               0.889              2.981             33.426
 Vibrational            250.173             71.655             75.593
 Vibration     1          0.593              1.985              6.139
 Vibration     2          0.594              1.981              5.331
 Vibration     3          0.595              1.978              4.843
 Vibration     4          0.598              1.969              4.181
 Vibration     5          0.601              1.958              3.720
 Vibration     6          0.603              1.954              3.584
 Vibration     7          0.606              1.942              3.293
 Vibration     8          0.610              1.929              3.034
 Vibration     9          0.613              1.920              2.896
 Vibration    10          0.616              1.911              2.768
 Vibration    11          0.616              1.910              2.759
 Vibration    12          0.626              1.876              2.408
 Vibration    13          0.628              1.870              2.351
 Vibration    14          0.631              1.861              2.282
 Vibration    15          0.648              1.807              1.941
 Vibration    16          0.653              1.792              1.863
 Vibration    17          0.661              1.767              1.748
 Vibration    18          0.675              1.727              1.591
 Vibration    19          0.676              1.722              1.574
 Vibration    20          0.678              1.717              1.556
 Vibration    21          0.689              1.685              1.450
 Vibration    22          0.699              1.656              1.365
 Vibration    23          0.715              1.609              1.243
 Vibration    24          0.722              1.589              1.196
 Vibration    25          0.753              1.506              1.026
 Vibration    26          0.772              1.454              0.936
 Vibration    27          0.798              1.387              0.833
 Vibration    28          0.812              1.353              0.785
 Vibration    29          0.878              1.199              0.603
 Vibration    30          0.906              1.138              0.542
 Vibration    31          0.931              1.087              0.496
 Vibration    32          0.959              1.029              0.447

                           ! Non-Optimized Parameters !
 Normal termination of Gaussian 16 at Sat Dec 12 10:44:21 2020.

 ----------------------------------------------------------------------
 # B3LYP/6-311++G(d,p) empiricaldispersion=gd3bj scf=xqc pop=npa geom=c
 heck
 ----------------------------------------------------------------------

 --------------------------------------
 CID_83115808_JID_9321_Energie_neutraal
 --------------------------------------
 Structure from the checkpoint file:  "JID_9321.chk"
 Charge =  0 Multiplicity = 1

 SCF Done:  E(RB3LYP) =  -875.793283253     A.U. after   16 cycles
 Normal termination of Gaussian 16 at Sat Dec 12 10:57:00 2020.

 ----------------------------------------------------------------------
 # B3LYP/6-311++G(d,p) empiricaldispersion=gd3bj scf=xqc pop=npa geom=c
 heck
 ----------------------------------------------------------------------

 ------------------------------------
 CID_83115808_JID_9321_Energie_kation
 ------------------------------------
 Structure from the checkpoint file:  "JID_9321.chk"
 Charge =  1 Multiplicity = 2

 SCF Done:  E(UB3LYP) =  -875.513758450     A.U. after   33 cycles
 SCF Done:  E(UB3LYP) =  -875.513758456     a.u. after    2 cycles
 Normal termination of Gaussian 16 at Sat Dec 12 12:01:10 2020.
 Gaussian 16:  ES64L-G16RevA.03 25-Dec-2016

 ----------------------------------------------------------------------
 # B3LYP/6-311++G(d,p) empiricaldispersion=gd3bj scf=xqc pop=npa geom=c
 heck
 ----------------------------------------------------------------------

 -----------------------------------
 CID_83115808_JID_9321_Energie_anion
 -----------------------------------
 Structure from the checkpoint file:  "JID_9321.chk"
 Charge = -1 Multiplicity = 2

                         Standard orientation:
 ---------------------------------------------------------------------
 Center     Atomic      Atomic             Coordinates (Angstroms)
 Number     Number       Type             X           Y           Z
 ---------------------------------------------------------------------
      1          6           0       -0.034872   -2.841438    1.336632
      2          6           0       -0.615434   -3.192056   -0.034276
      3          6           0       -2.035677   -2.627290   -0.253966
      4          6           0       -2.087522   -1.135154   -0.138155
      5          7           0       -2.624931   -0.546102    0.934658
      6          7           0       -2.431844    0.792327    0.747173
      7          6           0       -1.760819    1.049656   -0.406647
      8          6           0       -1.527619   -0.172845   -1.020959
      9          7           0       -0.816802   -0.284749   -2.251232
     10          7           0       -1.376724    2.332426   -0.817607
     11          6           0       -0.239429    2.926046   -0.084815
     12          6           0        0.855796    1.946672    0.353127
     13          7           0        1.459296    1.257108   -0.796543
     14          6           0        2.113922    0.040010   -0.600044
     15          8           0        1.866045   -0.956261   -1.289632
     16          7           0        3.047477    0.007961    0.408331
     17          6           0        3.818980    1.177340    0.803266
     18          6           0        3.627264   -1.280722    0.753207
     19          6           0       -2.889856    1.742908    1.732701
     20          1           0        0.078594   -1.757945    1.447270
     21          1           0        0.950571   -3.301170    1.474344
     22          1           0       -0.687248   -3.187849    2.147271
     23          1           0        0.056540   -2.810705   -0.811246
     24          1           0       -0.653862   -4.282875   -0.154577
     25          1           0       -2.392836   -2.937209   -1.245567
     26          1           0       -2.722706   -3.053741    0.485951
     27          1           0       -1.368971   -0.741740   -2.973791
     28          1           0        0.056376   -0.804513   -2.125234
     29          1           0       -1.168770    2.274216   -1.811913
     30          1           0        0.184520    3.705406   -0.726259
     31          1           0       -0.614590    3.422013    0.818280
     32          1           0        1.610310    2.521886    0.898523
     33          1           0        0.429559    1.220320    1.059174
     34          1           0        0.790412    1.122574   -1.554075
     35          1           0        3.627802    1.463391    1.845855
     36          1           0        4.889595    0.957882    0.701470
     37          1           0        3.583425    2.016459    0.148406
     38          1           0        2.907499   -2.067228    0.533054
     39          1           0        4.546572   -1.477379    0.183178
     40          1           0        3.868101   -1.291209    1.821673
     41          1           0       -3.111827    2.688791    1.232214
     42          1           0       -3.794050    1.345056    2.196131
     43          1           0       -2.137091    1.914099    2.513033
 ---------------------------------------------------------------------

 SCF Done:  E(UB3LYP) =  -875.783330181     A.U. after   30 cycles

 The electronic state is 2-A.
 Alpha  occ. eigenvalues --  -18.99371 -14.28804 -14.24595 -14.23408 -14.22843
 Alpha  occ. eigenvalues --  -14.22616 -14.21344 -10.19920 -10.13553 -10.11531
 Alpha  occ. eigenvalues --  -10.11385 -10.10932 -10.10228 -10.10201 -10.09654
 Alpha  occ. eigenvalues --  -10.09198 -10.08375 -10.07690 -10.06421  -0.95663
 Alpha  occ. eigenvalues --   -0.95239  -0.84965  -0.84245  -0.81040  -0.80151
 Alpha  occ. eigenvalues --   -0.74858  -0.69571  -0.67455  -0.64038  -0.62668
 Alpha  occ. eigenvalues --   -0.62049  -0.59763  -0.57601  -0.53934  -0.51710
 Alpha  occ. eigenvalues --   -0.48543  -0.47353  -0.45543  -0.43507  -0.42264
 Alpha  occ. eigenvalues --   -0.41121  -0.40335  -0.39145  -0.38873  -0.38348
 Alpha  occ. eigenvalues --   -0.37373  -0.36004  -0.35822  -0.35438  -0.34825
 Alpha  occ. eigenvalues --   -0.34161  -0.32622  -0.32182  -0.31328  -0.30901
 Alpha  occ. eigenvalues --   -0.30473  -0.30225  -0.29350  -0.29075  -0.28489
 Alpha  occ. eigenvalues --   -0.27804  -0.27285  -0.25575  -0.25040  -0.24336
 Alpha  occ. eigenvalues --   -0.21393  -0.19892  -0.18765  -0.16769  -0.15961
 Alpha  occ. eigenvalues --   -0.15022  -0.14304  -0.12594   0.04094
 Alpha virt. eigenvalues --    0.06255   0.06314   0.07073   0.07949   0.08246
 Alpha virt. eigenvalues --    0.08452   0.09097   0.09885   0.10093   0.10412
 Alpha virt. eigenvalues --    0.10922   0.10963   0.11380   0.11827   0.12093

  Beta  occ. eigenvalues --  -18.99369 -14.28802 -14.24592 -14.23405 -14.22837
  Beta  occ. eigenvalues --  -14.22610 -14.21341 -10.19918 -10.13551 -10.11498
  Beta  occ. eigenvalues --  -10.11352 -10.10907 -10.10203 -10.10147 -10.09653
  Beta  occ. eigenvalues --  -10.09197 -10.08374 -10.07688 -10.06413  -0.95659
  Beta  occ. eigenvalues --   -0.95232  -0.84951  -0.84232  -0.81024  -0.80145
  Beta  occ. eigenvalues --   -0.74847  -0.69562  -0.67429  -0.64007  -0.62606
  Beta  occ. eigenvalues --   -0.62031  -0.59711  -0.57574  -0.53871  -0.51701
  Beta  occ. eigenvalues --   -0.48526  -0.47308  -0.45529  -0.43483  -0.42221
  Beta  occ. eigenvalues --   -0.41094  -0.40319  -0.39120  -0.38855  -0.38318
  Beta  occ. eigenvalues --   -0.37349  -0.35984  -0.35794  -0.35424  -0.34798
  Beta  occ. eigenvalues --   -0.34132  -0.32592  -0.32158  -0.31297  -0.30859
  Beta  occ. eigenvalues --   -0.30449  -0.30195  -0.29335  -0.29049  -0.28462
  Beta  occ. eigenvalues --   -0.27758  -0.27257  -0.25566  -0.25031  -0.24332
  Beta  occ. eigenvalues --   -0.21377  -0.19878  -0.18750  -0.16758  -0.15947
  Beta  occ. eigenvalues --   -0.15001  -0.14289  -0.12580
  Beta virt. eigenvalues --    0.06083   0.06834   0.06963   0.07404   0.08325
  Beta virt. eigenvalues --    0.08747   0.08928   0.09320   0.10149   0.10283
  Beta virt. eigenvalues --    0.10649   0.11218   0.11331   0.11561   0.11980

 Mulliken charges and spin densities:
               1          2
     1  C   -0.361688  -0.197970
     2  C   -0.137456   0.027021
     3  C   -0.463991  -0.085791
     4  C    0.071777  -0.142747
     5  N   -0.088864   0.092155
     6  N    0.160739   0.076813
     7  C   -1.309225  -0.092754
     8  C    0.634490  -0.023291
     9  N   -0.525161   0.025665
    10  N   -0.148379   0.162113
    11  C    0.622622  -1.322803
    12  C   -0.008399   0.148923
    13  N   -0.047532   0.008259
    14  C   -0.575890   0.131924
    15  O   -0.335960   0.006955
    16  N   -0.061274   0.262441
    17  C    1.101339  -1.505847
    18  C    0.310145  -0.629446
    19  C    0.644000  -0.896362
    20  H   -0.035425   0.183134
    21  H    0.084180   0.032088
    22  H    0.096268   0.040221
    23  H    0.178235  -0.023220
    24  H    0.117272   0.037152
    25  H    0.102762   0.026438
    26  H    0.168046   0.006865
    27  H    0.236160   0.027572
    28  H    0.261809   0.036620
    29  H    0.179693   0.114370
    30  H   -0.345319   0.524950
    31  H   -0.241131   0.456175
    32  H   -0.471325   0.670214
    33  H    0.464617  -0.295133
    34  H    0.326029  -0.040250
    35  H   -0.506820   0.704992
    36  H   -0.455076   0.601507
    37  H   -0.181015   0.367758
    38  H    0.118594   0.050766
    39  H   -0.030992   0.188189
    40  H   -0.130232   0.291482
    41  H   -0.169955   0.335732
    42  H    0.068212   0.109304
    43  H   -0.315883   0.507817
 Sum of Mulliken charges =  -1.00000   1.00000

 Dipole moment (field-independent basis, Debye):
    X=             -5.4703    Y=             -6.3904    Z=             -4.9617  Tot=              9.7662
 Quadrupole moment (field-independent basis, Debye-Ang):
   XX=           -191.6942   YY=           -174.8873   ZZ=           -158.3553
   XY=             -6.3745   XZ=             -3.0405   YZ=             -9.1048

 Summary of Natural Population Analysis:

                                       Natural Population
                Natural  -----------------------------------------------
    Atom  No    Charge         Core      Valence    Rydberg      Total
 -----------------------------------------------------------------------
      C    1   -0.28732      0.99967     2.28197    0.00569     3.28732
      C    2   -0.18988      0.99964     2.18337    0.00688     3.18988
      C    3   -0.20178      0.99960     2.19376    0.00843     3.20178
      C    4    0.07161      0.99953     1.91434    0.01452     2.92839
      N    5   -0.16638      0.99970     2.65567    0.01100     3.66638
      N    6   -0.11630      0.99961     2.60514    0.01156     3.61630
      C    7    0.17470      0.99942     1.81076    0.01512     2.82530
      C    8   -0.00220      0.99932     1.99010    0.01278     3.00220
      N    9   -0.44218      0.99973     2.93340    0.00905     3.94218
      N   10   -0.33451      0.99970     2.82382    0.01100     3.83451
      C   11   -0.08963      0.99960     2.07754    0.01248     3.08963
      C   12   -0.10120      0.99960     2.08935    0.01224     3.10120
      N   13   -0.34715      0.99968     2.83791    0.00956     3.84715
      C   14    0.41702      0.99965     1.55992    0.02340     2.58298
      O   15   -0.35411      0.99987     3.34925    0.00499     4.35411
      N   16   -0.26109      0.99966     2.75101    0.01042     3.76109
      C   17   -0.17775      0.99963     2.16956    0.00856     3.17775
      C   18   -0.17370      0.99964     2.16586    0.00820     3.17370
      C   19   -0.17617      0.99964     2.16857    0.00796     3.17617
      H   20    0.10306      0.00000     0.39566    0.00128     0.39694
      H   21    0.09655      0.00000     0.40261    0.00083     0.40345
      H   22    0.09420      0.00000     0.40488    0.00092     0.40580
      H   23    0.10421      0.00000     0.39414    0.00165     0.39579
      H   24    0.08884      0.00000     0.41007    0.00108     0.41116
      H   25    0.09876      0.00000     0.40014    0.00111     0.40124
      H   26    0.10347      0.00000     0.39525    0.00128     0.39653
      H   27    0.17851      0.00000     0.32009    0.00141     0.32149
      H   28    0.20237      0.00000     0.29564    0.00199     0.29763
      H   29    0.18901      0.00000     0.30870    0.00229     0.31099
      H   30    0.09943      0.00000     0.39916    0.00141     0.40057
      H   31    0.09969      0.00000     0.39810    0.00221     0.40031
      H   32    0.10502      0.00000     0.39243    0.00255     0.39498
      H   33    0.09031      0.00000     0.40629    0.00340     0.40969
      H   34    0.19769      0.00000     0.29831    0.00400     0.30231
      H   35    0.09913      0.00000     0.39820    0.00266     0.40087
      H   36    0.09575      0.00000     0.40249    0.00176     0.40425
      H   37    0.10759      0.00000     0.39055    0.00186     0.39241
      H   38    0.10968      0.00000     0.38928    0.00104     0.39032
      H   39    0.09013      0.00000     0.40889    0.00099     0.40987
      H   40    0.09535      0.00000     0.40359    0.00106     0.40465
      H   41    0.10522      0.00000     0.39359    0.00119     0.39478
      H   42    0.10443      0.00000     0.39434    0.00124     0.39557
      H   43    0.09965      0.00000     0.39872    0.00163     0.40035
 =======================================================================
   * Total *   -0.00000     18.99287    53.76245    0.24468    73.00000

 Normal termination of Gaussian 16 at Sat Dec 12 12:32:59 2020.
