 Gaussian 16, Revision A.03,

 -----------------------------------------------------------
 # opt freq B3LYP/6-31G(d) empiricaldispersion=gd3bj scf=xqc
 -----------------------------------------------------------

 ------------------------------
 CID_85151045_JID_4507_neutraal
 ------------------------------
 Symbolic Z-matrix:
 Charge =  0 Multiplicity = 1

 SCF Done:  E(RB3LYP) =  -689.211836122     A.U. after   15 cycles
 SCF Done:  E(RB3LYP) =  -689.214729318     A.U. after   12 cycles
 SCF Done:  E(RB3LYP) =  -689.214569251     A.U. after   12 cycles
 SCF Done:  E(RB3LYP) =  -689.214937795     A.U. after   12 cycles
 SCF Done:  E(RB3LYP) =  -689.215182361     A.U. after   11 cycles
 SCF Done:  E(RB3LYP) =  -689.215178984     A.U. after   12 cycles
 SCF Done:  E(RB3LYP) =  -689.215250747     A.U. after   12 cycles
 SCF Done:  E(RB3LYP) =  -689.215273080     A.U. after   10 cycles
 SCF Done:  E(RB3LYP) =  -689.215285209     A.U. after   11 cycles
 SCF Done:  E(RB3LYP) =  -689.215287648     A.U. after   11 cycles
 SCF Done:  E(RB3LYP) =  -689.215288276     A.U. after    9 cycles
 SCF Done:  E(RB3LYP) =  -689.215288616     A.U. after   10 cycles
 SCF Done:  E(RB3LYP) =  -689.215288693     A.U. after    7 cycles
 SCF Done:  E(RB3LYP) =  -689.215288787     A.U. after    7 cycles
 SCF Done:  E(RB3LYP) =  -689.215288807     A.U. after    7 cycles
 Optimization completed.
    -- Stationary point found.
 Normal termination of Gaussian 16 at Thu Dec 10 09:58:06 2020.

 --------------------------------------------------------------------
 #N Geom=AllCheck Guess=TCheck SCRF=Check GenChk RB3LYP/6-31G(d) Freq
 --------------------------------------------------------------------

 Structure from the checkpoint file:  "JID_4507.chk"
 ------------------------------
 CID_85151045_JID_4507_neutraal
 ------------------------------
 Charge =  0 Multiplicity = 1

 SCF Done:  E(RB3LYP) =  -689.215288807     A.U. after    1 cycles

  Exact polarizability: 144.718  -4.572 108.510  17.832   3.352  81.311
 Approx polarizability: 201.627 -13.864 177.540  39.546   4.532 127.974

                      1                      2                      3
                      A                      A                      A
 Frequencies --     14.5045                51.8186                60.3151
 Red. masses --      5.7754                 3.9503                 4.7308
 Frc consts  --      0.0007                 0.0062                 0.0101
 IR Inten    --      0.2827                 1.6049                 1.0948

                      4                      5                      6
                      A                      A                      A
 Frequencies --     71.1860               109.1387               143.9364
 Red. masses --      5.5392                 3.3151                 1.2394
 Frc consts  --      0.0165                 0.0233                 0.0151
 IR Inten    --      2.8011                 1.3589                 0.1858

                      7                      8                      9
                      A                      A                      A
 Frequencies --    163.9540               188.2388               193.3944
 Red. masses --      5.4543                 4.2283                 4.6572
 Frc consts  --      0.0864                 0.0883                 0.1026
 IR Inten    --      2.1184                 0.4105                 0.4753

                     10                     11                     12
                      A                      A                      A
 Frequencies --    212.6028               251.1996               279.6676
 Red. masses --      3.1172                 1.0619                 4.7725
 Frc consts  --      0.0830                 0.0395                 0.2199
 IR Inten    --      4.0162                 0.4314                14.5169

                     13                     14                     15
                      A                      A                      A
 Frequencies --    334.3530               379.6678               406.6843
 Red. masses --      3.5602                 4.2499                 2.7269
 Frc consts  --      0.2345                 0.3609                 0.2657
 IR Inten    --     13.6738                 7.1431                 2.7208

                     16                     17                     18
                      A                      A                      A
 Frequencies --    496.9591               523.2267               588.5524
 Red. masses --      6.7220                 4.3869                 3.9451
 Frc consts  --      0.9781                 0.7076                 0.8051
 IR Inten    --      7.1396                 5.9957                 9.2460

                     19                     20                     21
                      A                      A                      A
 Frequencies --    608.1291               618.2773               657.9691
 Red. masses --      3.2442                 3.7143                 4.2264
 Frc consts  --      0.7069                 0.8365                 1.0780
 IR Inten    --      5.2448                 6.2384                 5.5439

                     22                     23                     24
                      A                      A                      A
 Frequencies --    737.5895               768.8244               817.5577
 Red. masses --      6.7410                 1.2749                 2.6487
 Frc consts  --      2.1607                 0.4440                 1.0431
 IR Inten    --      1.3755                40.0634                41.1027

                     25                     26                     27
                      A                      A                      A
 Frequencies --    833.7345               848.0041               902.2476
 Red. masses --      3.8496                 1.4671                 1.7597
 Frc consts  --      1.5766                 0.6216                 0.8440
 IR Inten    --      2.7642                 7.5154                16.7172

                     28                     29                     30
                      A                      A                      A
 Frequencies --    906.6305               910.1824               926.3962
 Red. masses --      4.2120                 2.6873                 3.1090
 Frc consts  --      2.0398                 1.3117                 1.5720
 IR Inten    --     17.1614                 7.9745                 7.0397

                     31                     32                     33
                      A                      A                      A
 Frequencies --    955.1143              1010.7771              1034.5573
 Red. masses --      2.0805                 2.4831                 1.6109
 Frc consts  --      1.1182                 1.4947                 1.0158
 IR Inten    --      4.4325                 5.0346                 4.0320

                     34                     35                     36
                      A                      A                      A
 Frequencies --   1051.2707              1069.3959              1116.0878
 Red. masses --      1.5925                 2.1987                 1.8683
 Frc consts  --      1.0370                 1.4815                 1.3712
 IR Inten    --     56.7223                22.9778                 5.0281

                     37                     38                     39
                      A                      A                      A
 Frequencies --   1135.9971              1146.6724              1186.7574
 Red. masses --      2.4603                 3.2062                 1.2932
 Frc consts  --      1.8706                 2.4838                 1.0731
 IR Inten    --    103.8432                23.1834                 0.8631

                     40                     41                     42
                      A                      A                      A
 Frequencies --   1194.5144              1220.7330              1232.5911
 Red. masses --      1.8928                 1.5165                 1.7016
 Frc consts  --      1.5913                 1.3315                 1.5231
 IR Inten    --     12.3913                 3.9155                43.0137

                     43                     44                     45
                      A                      A                      A
 Frequencies --   1258.5650              1278.0623              1310.3835
 Red. masses --      1.8991                 1.4943                 2.7310
 Frc consts  --      1.7723                 1.4381                 2.7630
 IR Inten    --     13.1093                14.9009               194.7478

                     46                     47                     48
                      A                      A                      A
 Frequencies --   1321.5559              1376.6867              1389.9774
 Red. masses --      2.9707                 1.5331                 1.5766
 Frc consts  --      3.0569                 1.7119                 1.7947
 IR Inten    --    103.0031                 6.7444                14.6462

                     49                     50                     51
                      A                      A                      A
 Frequencies --   1437.9671              1448.6075              1490.1973
 Red. masses --      2.8386                 1.2407                 1.2171
 Frc consts  --      3.4582                 1.5340                 1.5924
 IR Inten    --      6.2819                 3.3365                 7.0332

                     52                     53                     54
                      A                      A                      A
 Frequencies --   1503.8237              1512.9660              1516.5607
 Red. masses --      1.4829                 1.0492                 1.6709
 Frc consts  --      1.9759                 1.4150                 2.2643
 IR Inten    --     46.2146                 5.9275                59.3263

                     55                     56                     57
                      A                      A                      A
 Frequencies --   1523.3124              1525.6902              1535.2392
 Red. masses --      1.0576                 1.2078                 1.0570
 Frc consts  --      1.4459                 1.6564                 1.4678
 IR Inten    --      5.5509                38.5269                16.9590

                     58                     59                     60
                      A                      A                      A
 Frequencies --   1625.4708              1756.7692              1823.9752
 Red. masses --      5.9605                11.4439                11.2110
 Frc consts  --      9.2788                20.8090                21.9753
 IR Inten    --     82.7366               172.3459               218.9336

                     61                     62                     63
                      A                      A                      A
 Frequencies --   3064.4936              3073.1923              3079.1436
 Red. masses --      1.0367                 1.0817                 1.0288
 Frc consts  --      5.7363                 6.0194                 5.7469
 IR Inten    --     18.1297                 9.7371                33.0402

                     64                     65                     66
                      A                      A                      A
 Frequencies --   3090.6661              3130.8677              3143.0019
 Red. masses --      1.0607                 1.1028                 1.1061
 Frc consts  --      5.9694                 6.3691                 6.4377
 IR Inten    --      8.9995                24.1651                 6.7291

                     67                     68                     69
                      A                      A                      A
 Frequencies --   3146.4975              3158.5207              3182.9027
 Red. masses --      1.1017                 1.1078                 1.1077
 Frc consts  --      6.4266                 6.5115                 6.6119
 IR Inten    --     24.9401                17.9668                16.8608

                     70                     71                     72
                      A                      A                      A
 Frequencies --   3272.9686              3292.2131              3301.7256
 Red. masses --      1.0908                 1.0968                 1.1059
 Frc consts  --      6.8844                 7.0044                 7.1033
 IR Inten    --      1.8112                 0.0686                 0.9413

 - Thermochemistry -
 -------------------
 Temperature   298.150 Kelvin.  Pressure   1.00000 Atm.
 Atom     1 has atomic number  6 and mass  12.00000

 Molecular mass:   196.07356 amu.
 Principal axes and moments of inertia in atomic units:
                           1         2         3
     Eigenvalues --  1239.618274461.632464804.66501
           X            0.99997  -0.00736  -0.00321
           Y            0.00742   0.99981   0.01822
           Z            0.00307  -0.01824   0.99983
 This molecule is an asymmetric top.
 Rotational symmetry number  1.
 Warning -- assumption of classical behavior for rotation
           may cause significant error
 Rotational temperatures (Kelvin)      0.06987     0.01941     0.01803
 Rotational constants (GHZ):           1.45588     0.40450     0.37562
 Zero-point vibrational energy     549872.0 (Joules/Mol)
                                  131.42255 (Kcal/Mol)
 Warning -- explicit consideration of  20 degrees of freedom as
           vibrations may cause significant error
 Vibrational temperatures:     20.87    74.56    86.78   102.42   157.03
          (Kelvin)            207.09   235.89   270.83   278.25   305.89
                              361.42   402.38   481.06   546.26   585.13
                              715.01   752.81   846.80   874.96   889.56
                              946.67  1061.23  1106.17  1176.28  1199.56
                             1220.09  1298.13  1304.44  1309.55  1332.88
                             1374.20  1454.28  1488.50  1512.54  1538.62
                             1605.80  1634.45  1649.81  1707.48  1718.64
                             1756.36  1773.42  1810.79  1838.85  1885.35
                             1901.42  1980.75  1999.87  2068.91  2084.22
                             2144.06  2163.67  2176.82  2181.99  2191.71
                             2195.13  2208.87  2338.69  2527.60  2624.29
                             4409.12  4421.64  4430.20  4446.78  4504.62
                             4522.08  4527.11  4544.41  4579.49  4709.07
                             4736.76  4750.45

 Zero-point correction=                           0.209435 (Hartree/Particle)
 Thermal correction to Energy=                    0.223292
 Thermal correction to Enthalpy=                  0.224236
 Thermal correction to Gibbs Free Energy=         0.166745
 Sum of electronic and zero-point Energies=           -689.005854
 Sum of electronic and thermal Energies=              -688.991997
 Sum of electronic and thermal Enthalpies=            -688.991053
 Sum of electronic and thermal Free Energies=         -689.048543

                     E (Thermal)             CV                S
                      KCal/Mol        Cal/Mol-Kelvin    Cal/Mol-Kelvin
 Total                  140.118             49.746            120.999
 Electronic               0.000              0.000              0.000
 Translational            0.889              2.981             41.725
 Rotational               0.889              2.981             31.652
 Vibrational            138.340             43.784             47.621
 Vibration     1          0.593              1.986              7.272
 Vibration     2          0.596              1.977              4.747
 Vibration     3          0.597              1.973              4.447
 Vibration     4          0.598              1.968              4.120
 Vibration     5          0.606              1.942              3.284
 Vibration     6          0.616              1.909              2.751
 Vibration     7          0.623              1.887              2.504
 Vibration     8          0.633              1.856              2.245
 Vibration     9          0.635              1.849              2.195
 Vibration    10          0.644              1.822              2.021
 Vibration    11          0.663              1.761              1.722
 Vibration    12          0.680              1.711              1.536
 Vibration    13          0.716              1.607              1.239
 Vibration    14          0.750              1.514              1.040
 Vibration    15          0.771              1.456              0.938
 Vibration    16          0.852              1.257              0.666
 Vibration    17          0.878              1.199              0.603
 Vibration    18          0.946              1.056              0.470
 Vibration    19          0.967              1.015              0.436
 Vibration    20          0.978              0.993              0.419

 Optimization completed.
    -- Stationary point found.
 Normal termination of Gaussian 16 at Thu Dec 10 10:04:57 2020.

 ----------------------------------------------------------------------
 # B3LYP/6-311++G(d,p) empiricaldispersion=gd3bj scf=xqc pop=npa geom=c
 heck
 ----------------------------------------------------------------------

 --------------------------------------
 CID_85151045_JID_4507_Energie_neutraal
 --------------------------------------
 Structure from the checkpoint file:  "JID_4507.chk"
 Charge =  0 Multiplicity = 1

 SCF Done:  E(RB3LYP) =  -689.414044158     A.U. after   15 cycles
 Normal termination of Gaussian 16 at Thu Dec 10 10:07:31 2020.

 ----------------------------------------------------------------------
 # B3LYP/6-311++G(d,p) empiricaldispersion=gd3bj scf=xqc pop=npa geom=c
 heck
 ----------------------------------------------------------------------

 ------------------------------------
 CID_85151045_JID_4507_Energie_kation
 ------------------------------------
 Structure from the checkpoint file:  "JID_4507.chk"
 Charge =  1 Multiplicity = 2

 SCF Done:  E(UB3LYP) =  -689.088198954     A.U. after   31 cycles
 Normal termination of Gaussian 16 at Thu Dec 10 10:16:31 2020.
 Gaussian 16:  ES64L-G16RevA.03 25-Dec-2016

 ----------------------------------------------------------------------
 # B3LYP/6-311++G(d,p) empiricaldispersion=gd3bj scf=xqc pop=npa geom=c
 heck
 ----------------------------------------------------------------------

 -----------------------------------
 CID_85151045_JID_4507_Energie_anion
 -----------------------------------
 Structure from the checkpoint file:  "JID_4507.chk"
 Charge = -1 Multiplicity = 2

                         Standard orientation:
 ---------------------------------------------------------------------
 Center     Atomic      Atomic             Coordinates (Angstroms)
 Number     Number       Type             X           Y           Z
 ---------------------------------------------------------------------
      1          6           0        0.592141    1.558862   -1.357469
      2          6           0        1.239858    1.406034    0.021489
      3          6           0        0.211432    1.035787    1.126902
      4          6           0       -0.439935   -0.310073    0.850861
      5          8           0        0.166013   -1.361567    1.022640
      6          6           0       -1.806528   -0.336292    0.329854
      7          6           0       -2.607912   -1.383453   -0.051194
      8          6           0       -3.832808   -0.818348   -0.506280
      9          6           0       -3.696314    0.536280   -0.373297
     10          8           0       -2.478734    0.849669    0.130900
     11          6           0        2.378726    0.394675    0.084358
     12          8           0        3.208792    0.374721    0.967367
     13          8           0        2.338702   -0.491851   -0.928320
     14          6           0        3.270615   -1.578748   -0.817935
     15          1           0       -0.206271    2.307237   -1.316378
     16          1           0        0.160575    0.615868   -1.702825
     17          1           0        1.327376    1.878617   -2.102012
     18          1           0        1.685705    2.359168    0.326802
     19          1           0        0.741230    0.955103    2.080565
     20          1           0       -0.535165    1.830649    1.198310
     21          1           0       -2.328956   -2.425720   -0.004079
     22          1           0       -4.700191   -1.341938   -0.882207
     23          1           0       -4.347404    1.371412   -0.583131
     24          1           0        4.295879   -1.204146   -0.768207
     25          1           0        3.051438   -2.158947    0.081567
     26          1           0        3.121958   -2.183421   -1.712832
 ---------------------------------------------------------------------

 SCF Done:  E(UB3LYP) =  -689.425820665     A.U. after   26 cycles

 The electronic state is 2-A.
 Alpha  occ. eigenvalues --  -19.04569 -19.02422 -18.98282 -18.90303 -10.17122
 Alpha  occ. eigenvalues --  -10.11152 -10.06658 -10.06143 -10.05052 -10.04918
 Alpha  occ. eigenvalues --  -10.03769 -10.02782 -10.02719 -10.00451  -0.98475
 Alpha  occ. eigenvalues --   -0.95579  -0.89521  -0.84592  -0.68258  -0.64811
 Alpha  occ. eigenvalues --   -0.61329  -0.60028  -0.56533  -0.50960  -0.45698
 Alpha  occ. eigenvalues --   -0.44410  -0.43618  -0.39763  -0.38320  -0.36717
 Alpha  occ. eigenvalues --   -0.35331  -0.34255  -0.32600  -0.31586  -0.30243
 Alpha  occ. eigenvalues --   -0.29524  -0.28358  -0.26921  -0.26455  -0.25279
 Alpha  occ. eigenvalues --   -0.24677  -0.24054  -0.23381  -0.22851  -0.21741
 Alpha  occ. eigenvalues --   -0.21046  -0.19282  -0.18149  -0.15174  -0.13786
 Alpha  occ. eigenvalues --   -0.08435  -0.07393   0.05162
 Alpha virt. eigenvalues --    0.08350   0.08949   0.09449   0.10774   0.10893
 Alpha virt. eigenvalues --    0.11575   0.12760   0.12982   0.13490   0.13524
 Alpha virt. eigenvalues --    0.14054   0.14611   0.15975   0.16164   0.16560

  Beta  occ. eigenvalues --  -19.04557 -19.02111 -18.98263 -18.89674 -10.17106
  Beta  occ. eigenvalues --  -10.11151 -10.06411 -10.06091 -10.05029 -10.04507
  Beta  occ. eigenvalues --  -10.03759 -10.02893 -10.02758 -10.00190  -0.98448
  Beta  occ. eigenvalues --   -0.95083  -0.89489  -0.83444  -0.68147  -0.64517
  Beta  occ. eigenvalues --   -0.61153  -0.59609  -0.56399  -0.50717  -0.45279
  Beta  occ. eigenvalues --   -0.44181  -0.43261  -0.39511  -0.38235  -0.36632
  Beta  occ. eigenvalues --   -0.35275  -0.33807  -0.32250  -0.31498  -0.29446
  Beta  occ. eigenvalues --   -0.28992  -0.28237  -0.26867  -0.26346  -0.25128
  Beta  occ. eigenvalues --   -0.24473  -0.23916  -0.22735  -0.22314  -0.21467
  Beta  occ. eigenvalues --   -0.20862  -0.18587  -0.16371  -0.15122  -0.12743
  Beta  occ. eigenvalues --   -0.06850  -0.06528
  Beta virt. eigenvalues --    0.08293   0.08866   0.09362   0.10695   0.10844
  Beta virt. eigenvalues --    0.11461   0.11913   0.12843   0.12996   0.13448
  Beta virt. eigenvalues --    0.13818   0.13972   0.14576   0.15932   0.16376

 Mulliken charges and spin densities:
               1          2
     1  C   -0.649679  -0.154966
     2  C    0.385387   0.175064
     3  C   -0.319727  -0.069785
     4  C   -0.383177   0.300495
     5  O   -0.412946   0.224295
     6  C    0.044397  -0.001011
     7  C   -0.036060   0.240248
     8  C   -0.325733  -0.089711
     9  C   -0.103392   0.233122
    10  O   -0.024861   0.049721
    11  C   -0.300322  -0.140955
    12  O   -0.260829   0.008964
    13  O    0.006347  -0.004742
    14  C   -0.214701  -0.000736
    15  H    0.089898   0.040780
    16  H    0.187678   0.014265
    17  H    0.104456   0.021317
    18  H    0.093943   0.113736
    19  H    0.132855   0.060903
    20  H    0.156374  -0.003578
    21  H    0.155804  -0.015529
    22  H    0.105077   0.005403
    23  H    0.111997  -0.009329
    24  H    0.140507  -0.000417
    25  H    0.194890   0.000258
    26  H    0.121815   0.002189
 Sum of Mulliken charges =  -1.00000   1.00000

 Dipole moment (field-independent basis, Debye):
    X=              1.8224    Y=              1.5375    Z=             -3.4035  Tot=              4.1556
 Quadrupole moment (field-independent basis, Debye-Ang):
   XX=           -115.6313   YY=            -93.3998   ZZ=            -97.0463
   XY=             -5.3463   XZ=             -6.3513   YZ=              4.0489

 Summary of Natural Population Analysis:

                                       Natural Population
                Natural  -----------------------------------------------
    Atom  No    Charge         Core      Valence    Rydberg      Total
 -----------------------------------------------------------------------
      C    1   -0.28770      0.99966     2.28227    0.00577     3.28770
      C    2   -0.14172      0.99955     2.13058    0.01158     3.14172
      C    3   -0.22182      0.99959     2.21339    0.00884     3.22182
      C    4    0.29273      0.99960     1.68686    0.02081     2.70727
      O    5   -0.24596      0.99988     3.23979    0.00629     4.24596
      C    6    0.11050      0.99942     1.87587    0.01421     2.88950
      C    7   -0.08870      0.99952     2.08005    0.00914     3.08870
      C    8   -0.19052      0.99958     2.18242    0.00852     3.19052
      C    9    0.09774      0.99954     1.88746    0.01526     2.90226
      O   10   -0.21354      0.99986     3.20548    0.00820     4.21354
      C   11    0.42153      0.99965     1.55119    0.02763     2.57847
      O   12   -0.31730      0.99987     3.31143    0.00601     4.31730
      O   13   -0.27490      0.99985     3.26593    0.00912     4.27490
      C   14   -0.10617      0.99961     2.09823    0.00833     3.10617
      H   15    0.09895      0.00000     0.39962    0.00143     0.40105
      H   16    0.11188      0.00000     0.38698    0.00115     0.38812
      H   17    0.09187      0.00000     0.40703    0.00110     0.40813
      H   18    0.10097      0.00000     0.39718    0.00184     0.39903
      H   19    0.10914      0.00000     0.38905    0.00181     0.39086
      H   20    0.10236      0.00000     0.39612    0.00152     0.39764
      H   21    0.10432      0.00000     0.39473    0.00095     0.39568
      H   22    0.09677      0.00000     0.40232    0.00091     0.40323
      H   23    0.08048      0.00000     0.41851    0.00101     0.41952
      H   24    0.08424      0.00000     0.41456    0.00119     0.41576
      H   25    0.09934      0.00000     0.39957    0.00110     0.40066
      H   26    0.08553      0.00000     0.41368    0.00079     0.41447
 =======================================================================
   * Total *   -0.00000     13.99518    37.83029    0.17453    52.00000

 Normal termination of Gaussian 16 at Thu Dec 10 10:22:31 2020.
