 Gaussian 16, Revision A.03,

 -----------------------------------------------------------
 # opt freq B3LYP/6-31G(d) empiricaldispersion=gd3bj scf=xqc
 -----------------------------------------------------------

 -------------------------------
 CID_114570985_JID_8935_neutraal
 -------------------------------
 Symbolic Z-matrix:
 Charge =  0 Multiplicity = 1

 SCF Done:  E(RB3LYP) =  -801.712213292     A.U. after   15 cycles
 SCF Done:  E(RB3LYP) =  -801.723324596     A.U. after   14 cycles
 SCF Done:  E(RB3LYP) =  -801.725639476     A.U. after   13 cycles
 SCF Done:  E(RB3LYP) =  -801.726903367     A.U. after   13 cycles
 SCF Done:  E(RB3LYP) =  -801.728156354     A.U. after   13 cycles
 SCF Done:  E(RB3LYP) =  -801.728358271     A.U. after   14 cycles
 SCF Done:  E(RB3LYP) =  -801.729799666     A.U. after   13 cycles
 SCF Done:  E(RB3LYP) =  -801.729781882     A.U. after   12 cycles
 SCF Done:  E(RB3LYP) =  -801.730074232     A.U. after   11 cycles
 SCF Done:  E(RB3LYP) =  -801.730100737     A.U. after   11 cycles
 SCF Done:  E(RB3LYP) =  -801.730104360     A.U. after    9 cycles
 SCF Done:  E(RB3LYP) =  -801.730104765     A.U. after    8 cycles
 Optimization completed.
    -- Stationary point found.
 Normal termination of Gaussian 16 at Fri Dec 11 23:03:51 2020.

 --------------------------------------------------------------------
 #N Geom=AllCheck Guess=TCheck SCRF=Check GenChk RB3LYP/6-31G(d) Freq
 --------------------------------------------------------------------

 Structure from the checkpoint file:  "JID_8935.chk"
 -------------------------------
 CID_114570985_JID_8935_neutraal
 -------------------------------
 Charge =  0 Multiplicity = 1

 SCF Done:  E(RB3LYP) =  -801.730104765     A.U. after    1 cycles

  Exact polarizability: 196.168  14.428 180.520  -2.850   6.151 113.974
 Approx polarizability: 272.973  29.828 294.862  -5.626  24.118 179.460

                      1                      2                      3
                      A                      A                      A
 Frequencies --     55.8438                63.2415                79.2419
 Red. masses --      3.7897                 6.0175                 4.4413
 Frc consts  --      0.0070                 0.0142                 0.0164
 IR Inten    --      1.3838                 0.6914                 4.3063

                      4                      5                      6
                      A                      A                      A
 Frequencies --    120.8556               130.4853               177.2931
 Red. masses --      3.5264                 2.9100                 4.0575
 Frc consts  --      0.0303                 0.0292                 0.0751
 IR Inten    --      1.9082                 0.9866                 3.0327

                      7                      8                      9
                      A                      A                      A
 Frequencies --    213.2031               245.3981               254.4405
 Red. masses --      3.1881                 4.4626                 2.9430
 Frc consts  --      0.0854                 0.1583                 0.1123
 IR Inten    --      1.8308                 4.4339                 3.0349

                     10                     11                     12
                      A                      A                      A
 Frequencies --    282.9611               293.0826               322.4206
 Red. masses --      3.6454                 2.9138                 3.1246
 Frc consts  --      0.1720                 0.1475                 0.1914
 IR Inten    --      4.6838                 2.4366                 2.4850

                     13                     14                     15
                      A                      A                      A
 Frequencies --    327.4403               371.1851               404.3303
 Red. masses --      2.4938                 2.1774                 2.2380
 Frc consts  --      0.1575                 0.1768                 0.2156
 IR Inten    --      1.8149                 6.1251                 0.8303

                     16                     17                     18
                      A                      A                      A
 Frequencies --    434.7470               445.7163               464.7134
 Red. masses --      2.2942                 2.7448                 3.7131
 Frc consts  --      0.2555                 0.3213                 0.4724
 IR Inten    --      1.4989                 1.2516                 6.0875

                     19                     20                     21
                      A                      A                      A
 Frequencies --    495.1255               498.3122               524.7530
 Red. masses --      2.8557                 3.6426                 2.4122
 Frc consts  --      0.4125                 0.5329                 0.3913
 IR Inten    --      8.1644                 1.0936                 5.4207

                     22                     23                     24
                      A                      A                      A
 Frequencies --    546.4395               572.0176               580.5266
 Red. masses --      3.8845                 6.2196                 4.3778
 Frc consts  --      0.6834                 1.1990                 0.8693
 IR Inten    --     22.0367                 8.2261                11.6296

                     25                     26                     27
                      A                      A                      A
 Frequencies --    610.2088               613.7410               682.0428
 Red. masses --      2.9797                 3.4274                 3.5142
 Frc consts  --      0.6537                 0.7607                 0.9632
 IR Inten    --     12.8410                 2.5399                 4.7967

                     28                     29                     30
                      A                      A                      A
 Frequencies --    713.9823               761.8424               769.7212
 Red. masses --      1.3716                 2.1109                 1.7327
 Frc consts  --      0.4120                 0.7218                 0.6048
 IR Inten    --     87.7304                12.7947                12.1065

                     31                     32                     33
                      A                      A                      A
 Frequencies --    788.3737               805.2877               828.8975
 Red. masses --      6.8340                 1.4517                 1.7110
 Frc consts  --      2.5026                 0.5547                 0.6926
 IR Inten    --     27.0768                 1.8927                25.1424

                     34                     35                     36
                      A                      A                      A
 Frequencies --    841.8249               865.1413               883.7286
 Red. masses --      2.1810                 1.8035                 3.3699
 Frc consts  --      0.9106                 0.7953                 1.5506
 IR Inten    --     13.6064                 4.9240                 4.0267

                     37                     38                     39
                      A                      A                      A
 Frequencies --    897.4449               909.9406               930.6193
 Red. masses --      1.2629                 2.2362                 2.8696
 Frc consts  --      0.5993                 1.0909                 1.4643
 IR Inten    --      3.5096                26.2871                11.0326

                     40                     41                     42
                      A                      A                      A
 Frequencies --    945.8884               961.7938               981.0480
 Red. masses --      2.3927                 1.5136                 1.9926
 Frc consts  --      1.2613                 0.8249                 1.1299
 IR Inten    --     23.3117                 3.3289                 9.6536

                     43                     44                     45
                      A                      A                      A
 Frequencies --    984.5818              1029.0478              1045.2495
 Red. masses --      2.2943                 2.3522                 2.0553
 Frc consts  --      1.3104                 1.4676                 1.3230
 IR Inten    --      9.8011                 6.2657                 6.0661

                     46                     47                     48
                      A                      A                      A
 Frequencies --   1063.6008              1091.8849              1099.4692
 Red. masses --      2.2041                 1.5701                 2.5905
 Frc consts  --      1.4691                 1.1029                 1.8450
 IR Inten    --      8.2141                 2.5738                 8.0197

                     49                     50                     51
                      A                      A                      A
 Frequencies --   1104.9166              1121.5056              1134.0507
 Red. masses --      2.0556                 2.0273                 1.9522
 Frc consts  --      1.4786                 1.5023                 1.4792
 IR Inten    --     70.3444                30.3735                14.4410

                     52                     53                     54
                      A                      A                      A
 Frequencies --   1134.2029              1163.6946              1171.3467
 Red. masses --      1.9324                 2.5492                 1.5581
 Frc consts  --      1.4646                 2.0339                 1.2596
 IR Inten    --      5.2196                55.6287                 1.7533

                     55                     56                     57
                      A                      A                      A
 Frequencies --   1179.6558              1216.1884              1241.7088
 Red. masses --      2.4743                 2.3919                 1.7029
 Frc consts  --      2.0287                 2.0845                 1.5470
 IR Inten    --     14.4862                10.7519                19.7421

                     58                     59                     60
                      A                      A                      A
 Frequencies --   1253.8365              1263.7183              1289.9397
 Red. masses --      1.3269                 1.3438                 1.4255
 Frc consts  --      1.2291                 1.2644                 1.3975
 IR Inten    --      5.4559                38.7874                41.3262

                     61                     62                     63
                      A                      A                      A
 Frequencies --   1296.5352              1304.3424              1319.9223
 Red. masses --      2.0585                 1.8919                 1.2270
 Frc consts  --      2.0388                 1.8964                 1.2595
 IR Inten    --     22.6499                12.3066                 2.6362

                     64                     65                     66
                      A                      A                      A
 Frequencies --   1336.6881              1351.4540              1363.0955
 Red. masses --      1.4369                 1.3766                 1.5837
 Frc consts  --      1.5126                 1.4813                 1.7337
 IR Inten    --      6.7623                13.6051                46.0482

                     67                     68                     69
                      A                      A                      A
 Frequencies --   1379.1204              1384.9937              1394.8876
 Red. masses --      1.5879                 1.3831                 1.6603
 Frc consts  --      1.7794                 1.5631                 1.9033
 IR Inten    --     18.6630                 1.2600                11.4573

                     70                     71                     72
                      A                      A                      A
 Frequencies --   1402.0059              1405.7903              1413.1457
 Red. masses --      1.4447                 1.4173                 1.4528
 Frc consts  --      1.6731                 1.6502                 1.7093
 IR Inten    --      0.0086                11.8840                 4.8807

                     73                     74                     75
                      A                      A                      A
 Frequencies --   1435.2455              1436.8449              1453.1918
 Red. masses --      1.4050                 1.6540                 1.5604
 Frc consts  --      1.7052                 2.0118                 1.9415
 IR Inten    --     50.2544                51.4088                 8.6907

                     76                     77                     78
                      A                      A                      A
 Frequencies --   1497.8507              1503.8220              1509.7236
 Red. masses --      1.3070                 2.0880                 1.1295
 Frc consts  --      1.7276                 2.7822                 1.5168
 IR Inten    --     10.9723                 3.5736                 3.4529

                     79                     80                     81
                      A                      A                      A
 Frequencies --   1513.6359              1514.5858              1520.4989
 Red. masses --      1.1711                 1.1200                 1.1180
 Frc consts  --      1.5808                 1.5137                 1.5229
 IR Inten    --      2.7123                 1.2671                 3.7453

                     82                     83                     84
                      A                      A                      A
 Frequencies --   1527.1333              1532.0104              1537.7777
 Red. masses --      1.1028                 1.0845                 1.1035
 Frc consts  --      1.5154                 1.4997                 1.5375
 IR Inten    --      4.8034                 2.8722                 9.6452

                     85                     86                     87
                      A                      A                      A
 Frequencies --   1544.6455              1575.2441              1656.5561
 Red. masses --      1.1036                 6.0109                 4.4950
 Frc consts  --      1.5513                 8.7879                 7.2677
 IR Inten    --      3.1920               191.6826                66.3804

                     88                     89                     90
                      A                      A                      A
 Frequencies --   1765.9696              2941.1461              2956.7689
 Red. masses --      8.2776                 1.0740                 1.0717
 Frc consts  --     15.2098                 5.4735                 5.5205
 IR Inten    --    352.5319                50.4873                70.6908

                     91                     92                     93
                      A                      A                      A
 Frequencies --   3023.0404              3026.9112              3034.6249
 Red. masses --      1.0729                 1.0656                 1.0634
 Frc consts  --      5.7771                 5.7525                 5.7697
 IR Inten    --     46.7636                18.7110                29.1474

                     94                     95                     96
                      A                      A                      A
 Frequencies --   3036.0860              3056.4278              3066.4353
 Red. masses --      1.0627                 1.0723                 1.0910
 Frc consts  --      5.7717                 5.9018                 6.0444
 IR Inten    --     21.3437                42.7911                42.8175

                     97                     98                     99
                      A                      A                      A
 Frequencies --   3070.3110              3076.3515              3083.1811
 Red. masses --      1.0954                 1.0977                 1.0724
 Frc consts  --      6.0841                 6.1209                 6.0062
 IR Inten    --     60.7764                49.7463                38.1148

                    100                    101                    102
                      A                      A                      A
 Frequencies --   3088.3257              3125.1328              3131.5783
 Red. masses --      1.0906                 1.1045                 1.0872
 Frc consts  --      6.1284                 6.3553                 6.2819
 IR Inten    --     52.9091                15.2324                38.3445

                    103                    104                    105
                      A                      A                      A
 Frequencies --   3150.4835              3185.5427              3214.7415
 Red. masses --      1.0912                 1.0902                 1.0890
 Frc consts  --      6.3810                 6.5184                 6.6310
 IR Inten    --     10.3852                 6.5746                16.3503

                    106                    107                    108
                      A                      A                      A
 Frequencies --   3245.6187              3499.9829              3595.1959
 Red. masses --      1.0983                 1.0747                 1.0776
 Frc consts  --      6.8163                 7.7568                 8.2062
 IR Inten    --     12.9350                 2.2735                64.7230

 - Thermochemistry -
 -------------------
 Temperature   298.150 Kelvin.  Pressure   1.00000 Atm.
 Atom     1 has atomic number  6 and mass  12.00000

 Molecular mass:   248.16371 amu.
 Principal axes and moments of inertia in atomic units:
                           1         2         3
     Eigenvalues --  2799.777665040.975126899.02817
           X            0.99997  -0.00641   0.00364
           Y            0.00643   0.99996  -0.00543
           Z           -0.00360   0.00545   0.99998
 This molecule is an asymmetric top.
 Rotational symmetry number  1.
 Warning -- assumption of classical behavior for rotation
           may cause significant error
 Rotational temperatures (Kelvin)      0.03094     0.01718     0.01255
 Rotational constants (GHZ):           0.64460     0.35801     0.26159
 Zero-point vibrational energy     877870.6 (Joules/Mol)
                                  209.81611 (Kcal/Mol)
 Warning -- explicit consideration of  26 degrees of freedom as
           vibrations may cause significant error
 Vibrational temperatures:     80.35    90.99   114.01   173.88   187.74
          (Kelvin)            255.09   306.75   353.07   366.08   407.12
                              421.68   463.89   471.11   534.05   581.74
                              625.50   641.29   668.62   712.38   716.96
                              755.00   786.20   823.01   835.25   877.95
                              883.04   981.31  1027.26  1096.12  1107.46
                             1134.29  1158.63  1192.60  1211.20  1244.75
                             1271.49  1291.22  1309.20  1338.95  1360.92
                             1383.81  1411.51  1416.59  1480.57  1503.88
                             1530.28  1570.98  1581.89  1589.73  1613.60
                             1631.65  1631.86  1674.30  1685.31  1697.26
                             1749.82  1786.54  1803.99  1818.21  1855.94
                             1865.42  1876.66  1899.07  1923.20  1944.44
                             1961.19  1984.25  1992.70  2006.93  2017.17
                             2022.62  2033.20  2065.00  2067.30  2090.82
                             2155.07  2163.66  2172.16  2177.78  2179.15
                             2187.66  2197.20  2204.22  2212.52  2222.40
                             2266.42  2383.41  2540.84  4231.65  4254.13
                             4349.48  4355.05  4366.15  4368.25  4397.52
                             4411.92  4417.49  4426.18  4436.01  4443.41
                             4496.37  4505.64  4532.84  4583.29  4625.30
                             4669.72  5035.69  5172.69

 Zero-point correction=                           0.334363 (Hartree/Particle)
 Thermal correction to Energy=                    0.349358
 Thermal correction to Enthalpy=                  0.350303
 Thermal correction to Gibbs Free Energy=         0.292946
 Sum of electronic and zero-point Energies=           -801.395742
 Sum of electronic and thermal Energies=              -801.380746
 Sum of electronic and thermal Enthalpies=            -801.379802
 Sum of electronic and thermal Free Energies=         -801.437159

                     E (Thermal)             CV                S
                      KCal/Mol        Cal/Mol-Kelvin    Cal/Mol-Kelvin
 Total                  219.226             62.164            120.717
 Electronic               0.000              0.000              0.000
 Translational            0.889              2.981             42.427
 Rotational               0.889              2.981             32.943
 Vibrational            217.448             56.202             45.347
 Vibration     1          0.596              1.975              4.599
 Vibration     2          0.597              1.972              4.353
 Vibration     3          0.600              1.963              3.910
 Vibration     4          0.609              1.932              3.087
 Vibration     5          0.612              1.923              2.939
 Vibration     6          0.628              1.870              2.357
 Vibration     7          0.644              1.821              2.016
 Vibration     8          0.660              1.770              1.763
 Vibration     9          0.665              1.755              1.700
 Vibration    10          0.682              1.705              1.516
 Vibration    11          0.688              1.687              1.456
 Vibration    12          0.707              1.631              1.298
 Vibration    13          0.711              1.621              1.273
 Vibration    14          0.743              1.531              1.075
 Vibration    15          0.770              1.461              0.947
 Vibration    16          0.795              1.394              0.843
 Vibration    17          0.805              1.370              0.809
 Vibration    18          0.822              1.328              0.753
 Vibration    19          0.851              1.261              0.670
 Vibration    20          0.854              1.254              0.662
 Vibration    21          0.880              1.195              0.599
 Vibration    22          0.902              1.147              0.552
 Vibration    23          0.928              1.092              0.500
 Vibration    24          0.937              1.073              0.484
 Vibration    25          0.969              1.010              0.432
 Vibration    26          0.973              1.003              0.427

 Optimization completed.
    -- Stationary point found.
 Normal termination of Gaussian 16 at Fri Dec 11 23:22:33 2020.

 ----------------------------------------------------------------------
 # B3LYP/6-311++G(d,p) empiricaldispersion=gd3bj scf=xqc pop=npa geom=c
 heck
 ----------------------------------------------------------------------

 ---------------------------------------
 CID_114570985_JID_8935_Energie_neutraal
 ---------------------------------------
 Structure from the checkpoint file:  "JID_8935.chk"
 Charge =  0 Multiplicity = 1

 SCF Done:  E(RB3LYP) =  -801.951402146     A.U. after   15 cycles
 Normal termination of Gaussian 16 at Fri Dec 11 23:29:40 2020.

 ----------------------------------------------------------------------
 # B3LYP/6-311++G(d,p) empiricaldispersion=gd3bj scf=xqc pop=npa geom=c
 heck
 ----------------------------------------------------------------------

 -------------------------------------
 CID_114570985_JID_8935_Energie_kation
 -------------------------------------
 Structure from the checkpoint file:  "JID_8935.chk"
 Charge =  1 Multiplicity = 2

 SCF Done:  E(UB3LYP) =  -801.682353965     A.U. after   24 cycles
 Normal termination of Gaussian 16 at Fri Dec 11 23:45:02 2020.
 Gaussian 16:  ES64L-G16RevA.03 25-Dec-2016

 ----------------------------------------------------------------------
 # B3LYP/6-311++G(d,p) empiricaldispersion=gd3bj scf=xqc pop=npa geom=c
 heck
 ----------------------------------------------------------------------

 ------------------------------------
 CID_114570985_JID_8935_Energie_anion
 ------------------------------------
 Structure from the checkpoint file:  "JID_8935.chk"
 Charge = -1 Multiplicity = 2

                         Standard orientation:
 ---------------------------------------------------------------------
 Center     Atomic      Atomic             Coordinates (Angstroms)
 Number     Number       Type             X           Y           Z
 ---------------------------------------------------------------------
      1          6           0        2.955537   -2.237756   -0.026743
      2          6           0        3.013058   -1.123392   -1.078328
      3          6           0        1.667401   -0.394967   -1.210699
      4          6           0        1.122682    0.125813    0.140435
      5          6           0        1.120679   -1.001021    1.198342
      6          6           0        2.484862   -1.695275    1.328564
      7          6           0        2.001669    1.270826    0.701273
      8          7           0        1.975006    2.452517   -0.151406
      9          6           0        0.629437    3.015984   -0.150788
     10          6           0       -0.316391    1.987756   -0.744042
     11          7           0       -0.248961    0.704082   -0.013071
     12          6           0       -1.369606   -0.097429   -0.123341
     13          7           0       -1.284220   -1.360527   -0.473953
     14          6           0       -2.395748   -2.157978   -0.479950
     15          6           0       -3.629144   -1.685362   -0.171194
     16          7           0       -3.736654   -0.357496    0.172657
     17          6           0       -2.672938    0.526687    0.271482
     18          8           0       -2.852653    1.677228    0.663891
     19          1           0        3.935742   -2.720625    0.074129
     20          1           0        2.252068   -3.012601   -0.363562
     21          1           0        3.804395   -0.409543   -0.812066
     22          1           0        3.294857   -1.537827   -2.054394
     23          1           0        0.922155   -1.082849   -1.621502
     24          1           0        1.771826    0.445951   -1.902614
     25          1           0        0.388837   -1.756213    0.911990
     26          1           0        0.799344   -0.584116    2.161030
     27          1           0        2.397342   -2.513031    2.054614
     28          1           0        3.241274   -1.009662    1.733079
     29          1           0        1.644957    1.487000    1.726153
     30          1           0        3.034188    0.924969    0.776424
     31          1           0        2.643954    3.135923    0.195848
     32          1           0        0.609873    3.920010   -0.769456
     33          1           0        0.273833    3.280361    0.862354
     34          1           0       -0.050948    1.822150   -1.798077
     35          1           0       -1.338058    2.355901   -0.689542
     36          1           0       -2.247409   -3.195003   -0.761198
     37          1           0       -4.537670   -2.274555   -0.170834
     38          1           0       -4.624516    0.032589    0.466841
 ---------------------------------------------------------------------

 SCF Done:  E(UB3LYP) =  -801.947184065     A.U. after   33 cycles
 SCF Done:  E(UB3LYP) =  -801.947184064     a.u. after    1 cycles

 The electronic state is 2-A.
 Alpha  occ. eigenvalues --  -18.94438 -14.21882 -14.18521 -14.18444 -14.14688
 Alpha  occ. eigenvalues --  -10.12543 -10.08837 -10.08007 -10.07382 -10.07191
 Alpha  occ. eigenvalues --  -10.07136 -10.06355 -10.06113 -10.05635 -10.05532
 Alpha  occ. eigenvalues --  -10.05228 -10.03798 -10.03481  -0.90284  -0.83229
 Alpha  occ. eigenvalues --   -0.81980  -0.78837  -0.74687  -0.71314  -0.64797
 Alpha  occ. eigenvalues --   -0.62751  -0.62475  -0.58848  -0.55034  -0.52465
 Alpha  occ. eigenvalues --   -0.50480  -0.49984  -0.49038  -0.45657  -0.43442
 Alpha  occ. eigenvalues --   -0.40199  -0.39911  -0.38519  -0.36003  -0.35457
 Alpha  occ. eigenvalues --   -0.34054  -0.33395  -0.32941  -0.32623  -0.31524
 Alpha  occ. eigenvalues --   -0.30525  -0.30102  -0.29330  -0.28811  -0.27833
 Alpha  occ. eigenvalues --   -0.27462  -0.26427  -0.25400  -0.24207  -0.23942
 Alpha  occ. eigenvalues --   -0.22844  -0.22203  -0.21240  -0.20243  -0.20084
 Alpha  occ. eigenvalues --   -0.18880  -0.18556  -0.14961  -0.12368  -0.11526
 Alpha  occ. eigenvalues --   -0.09882  -0.07010   0.05068
 Alpha virt. eigenvalues --    0.06753   0.07652   0.07890   0.08929   0.09324
 Alpha virt. eigenvalues --    0.10010   0.10526   0.10724   0.11423   0.11787
 Alpha virt. eigenvalues --    0.12381   0.12925   0.13146   0.13600   0.13806

  Beta  occ. eigenvalues --  -18.94359 -14.21589 -14.18506 -14.18416 -14.14327
  Beta  occ. eigenvalues --  -10.12465 -10.08837 -10.07709 -10.07375 -10.07174
  Beta  occ. eigenvalues --  -10.06908 -10.06328 -10.06213 -10.05630 -10.05525
  Beta  occ. eigenvalues --  -10.05219 -10.03793 -10.03479  -0.90020  -0.82962
  Beta  occ. eigenvalues --   -0.81662  -0.78584  -0.74268  -0.71270  -0.64766
  Beta  occ. eigenvalues --   -0.62693  -0.62201  -0.58680  -0.54913  -0.51977
  Beta  occ. eigenvalues --   -0.50403  -0.49864  -0.48932  -0.45608  -0.43329
  Beta  occ. eigenvalues --   -0.40154  -0.39728  -0.38319  -0.35936  -0.35330
  Beta  occ. eigenvalues --   -0.33991  -0.33336  -0.32829  -0.32499  -0.30783
  Beta  occ. eigenvalues --   -0.30497  -0.29870  -0.29182  -0.28522  -0.27740
  Beta  occ. eigenvalues --   -0.27353  -0.26414  -0.25318  -0.24166  -0.23731
  Beta  occ. eigenvalues --   -0.22620  -0.22169  -0.20664  -0.20068  -0.19810
  Beta  occ. eigenvalues --   -0.18561  -0.17681  -0.14703  -0.12131  -0.11077
  Beta  occ. eigenvalues --   -0.09549  -0.05839
  Beta virt. eigenvalues --    0.07168   0.07783   0.08022   0.08933   0.09459
  Beta virt. eigenvalues --    0.10035   0.10403   0.10619   0.10859   0.11496
  Beta virt. eigenvalues --    0.11816   0.12427   0.12967   0.13439   0.13477

 Mulliken charges and spin densities:
               1          2
     1  C   -0.612155   0.124260
     2  C    0.029217  -0.374099
     3  C   -0.268617   0.198697
     4  C   -0.618913   0.255640
     5  C   -0.443504   0.037775
     6  C   -0.106862  -0.271353
     7  C    0.394578  -1.232613
     8  N   -0.209586   0.146155
     9  C   -0.250640  -0.113640
    10  C    0.019005  -0.087724
    11  N    0.629483   0.049325
    12  C   -0.531390   0.291313
    13  N    0.036091   0.187675
    14  C    0.195685  -0.089833
    15  C   -0.403061   0.235273
    16  N   -0.246035   0.085044
    17  C    0.107080   0.041494
    18  O   -0.421744   0.034359
    19  H   -0.047744   0.199129
    20  H    0.136202  -0.018433
    21  H   -0.028429   0.173516
    22  H    0.056931   0.092970
    23  H    0.229786  -0.013140
    24  H    0.140047  -0.013869
    25  H    0.196779   0.000654
    26  H    0.157951   0.002405
    27  H    0.113960   0.041134
    28  H    0.021571   0.092682
    29  H    0.102920   0.022542
    30  H   -0.244613   0.415457
    31  H   -0.033088   0.268539
    32  H    0.035566   0.115798
    33  H    0.051280   0.065937
    34  H    0.040172   0.085337
    35  H    0.241302  -0.034920
    36  H    0.127946   0.007260
    37  H    0.097294  -0.012969
    38  H    0.305533  -0.007778
 Sum of Mulliken charges =  -1.00000   1.00000

 Dipole moment (field-independent basis, Debye):
    X=             -0.9358    Y=             -2.2351    Z=             -0.2151  Tot=              2.4326
 Quadrupole moment (field-independent basis, Debye-Ang):
   XX=           -156.6441   YY=           -138.9850   ZZ=           -127.6833
   XY=              2.3268   XZ=              1.3944   YZ=             -2.7455

 Summary of Natural Population Analysis:

                                       Natural Population
                Natural  -----------------------------------------------
    Atom  No    Charge         Core      Valence    Rydberg      Total
 -----------------------------------------------------------------------
      C    1   -0.19022      0.99963     2.18213    0.00846     3.19022
      C    2   -0.19008      0.99963     2.18196    0.00849     3.19008
      C    3   -0.20770      0.99957     2.19814    0.00999     3.20770
      C    4    0.08041      0.99955     1.90377    0.01628     2.91959
      C    5   -0.20230      0.99958     2.19248    0.01025     3.20230
      C    6   -0.18831      0.99963     2.18062    0.00806     3.18831
      C    7   -0.09418      0.99955     2.08010    0.01453     3.09418
      N    8   -0.34047      0.99973     2.82896    0.01177     3.84047
      C    9   -0.09141      0.99962     2.08040    0.01140     3.09141
      C   10   -0.08707      0.99959     2.07674    0.01074     3.08707
      N   11   -0.26405      0.99962     2.75110    0.01332     3.76405
      C   12    0.22674      0.99951     1.75831    0.01544     2.77326
      N   13   -0.21788      0.99966     2.70903    0.00919     3.71788
      C   14   -0.05124      0.99957     2.03692    0.01475     3.05124
      C   15    0.01874      0.99958     1.96996    0.01173     2.98126
      N   16   -0.24935      0.99967     2.74118    0.00850     3.74935
      C   17    0.31339      0.99963     1.66458    0.02240     2.68661
      O   18   -0.34214      0.99988     3.33558    0.00667     4.34214
      H   19    0.09300      0.00000     0.40608    0.00091     0.40700
      H   20    0.09299      0.00000     0.40593    0.00108     0.40701
      H   21    0.09224      0.00000     0.40643    0.00134     0.40776
      H   22    0.09453      0.00000     0.40468    0.00079     0.40547
      H   23    0.11294      0.00000     0.38571    0.00135     0.38706
      H   24    0.10425      0.00000     0.39429    0.00146     0.39575
      H   25    0.12002      0.00000     0.37841    0.00158     0.37998
      H   26    0.09878      0.00000     0.40015    0.00107     0.40122
      H   27    0.09463      0.00000     0.40458    0.00079     0.40537
      H   28    0.09036      0.00000     0.40845    0.00119     0.40964
      H   29    0.08162      0.00000     0.41650    0.00188     0.41838
      H   30    0.09745      0.00000     0.40081    0.00174     0.40255
      H   31    0.17201      0.00000     0.32514    0.00285     0.32799
      H   32    0.09060      0.00000     0.40853    0.00087     0.40940
      H   33    0.08172      0.00000     0.41673    0.00155     0.41828
      H   34    0.08133      0.00000     0.41732    0.00136     0.41867
      H   35    0.11762      0.00000     0.38074    0.00164     0.38238
      H   36    0.08555      0.00000     0.41334    0.00111     0.41445
      H   37    0.08781      0.00000     0.41087    0.00131     0.41219
      H   38    0.18771      0.00000     0.30974    0.00256     0.31229
 =======================================================================
   * Total *   -0.00000     17.99321    48.76639    0.24040    67.00000

 Normal termination of Gaussian 16 at Sat Dec 12 00:06:07 2020.
