 Gaussian 16, Revision A.03,

 -----------------------------------------------------------
 # opt freq B3LYP/6-31G(d) empiricaldispersion=gd3bj scf=xqc
 -----------------------------------------------------------

 -------------------------------
 CID_116633681_JID_1525_neutraal
 -------------------------------
 Symbolic Z-matrix:
 Charge =  0 Multiplicity = 1

 SCF Done:  E(RB3LYP) =  -1235.60793356     A.U. after   15 cycles
 SCF Done:  E(RB3LYP) =  -1235.61289916     A.U. after   12 cycles
 SCF Done:  E(RB3LYP) =  -1235.61366531     A.U. after   12 cycles
 SCF Done:  E(RB3LYP) =  -1235.61385384     A.U. after   12 cycles
 SCF Done:  E(RB3LYP) =  -1235.61397062     A.U. after   11 cycles
 SCF Done:  E(RB3LYP) =  -1235.61406538     A.U. after   11 cycles
 SCF Done:  E(RB3LYP) =  -1235.61416112     A.U. after   11 cycles
 SCF Done:  E(RB3LYP) =  -1235.61418723     A.U. after   10 cycles
 SCF Done:  E(RB3LYP) =  -1235.61420728     A.U. after   11 cycles
 SCF Done:  E(RB3LYP) =  -1235.61420868     A.U. after    9 cycles
 SCF Done:  E(RB3LYP) =  -1235.61420897     A.U. after    8 cycles
 SCF Done:  E(RB3LYP) =  -1235.61420903     A.U. after    8 cycles
 Optimization completed.
    -- Stationary point found.
 Normal termination of Gaussian 16 at Tue Dec  8 20:18:30 2020.

 --------------------------------------------------------------------
 #N Geom=AllCheck Guess=TCheck SCRF=Check GenChk RB3LYP/6-31G(d) Freq
 --------------------------------------------------------------------

 Structure from the checkpoint file:  "JID_1525.chk"
 -------------------------------
 CID_116633681_JID_1525_neutraal
 -------------------------------
 Charge =  0 Multiplicity = 1

 SCF Done:  E(RB3LYP) =  -1235.61420903     A.U. after    1 cycles

  Exact polarizability: 127.646  -8.009  93.108   6.727   9.624  89.722
 Approx polarizability: 193.341 -19.476 168.638  18.487  28.340 148.549

                      1                      2                      3
                      A                      A                      A
 Frequencies --     38.4605                67.7281                95.4682
 Red. masses --      7.3382                 5.5250                 5.3183
 Frc consts  --      0.0064                 0.0149                 0.0286
 IR Inten    --      2.5263                 4.2883                 0.2639

                      4                      5                      6
                      A                      A                      A
 Frequencies --    167.8308               191.8801               216.3245
 Red. masses --      1.1120                 2.7774                 4.8561
 Frc consts  --      0.0185                 0.0602                 0.1339
 IR Inten    --      2.4099                 2.7280                 1.2190

                      7                      8                      9
                      A                      A                      A
 Frequencies --    236.1594               244.4470               272.4222
 Red. masses --      3.9479                 1.0770                 5.2578
 Frc consts  --      0.1297                 0.0379                 0.2299
 IR Inten    --      5.9205                 0.3994                 0.5448

                     10                     11                     12
                      A                      A                      A
 Frequencies --    291.3482               339.9861               422.2399
 Red. masses --      5.1269                 4.2163                 5.2622
 Frc consts  --      0.2564                 0.2871                 0.5528
 IR Inten    --      1.1484                 2.0345                31.2343

                     13                     14                     15
                      A                      A                      A
 Frequencies --    425.9618               500.9329               538.1461
 Red. masses --      5.2680                 5.9466                 4.8223
 Frc consts  --      0.5632                 0.8792                 0.8228
 IR Inten    --      8.8899                18.0426                32.7303

                     16                     17                     18
                      A                      A                      A
 Frequencies --    598.6518               624.5606               667.9953
 Red. masses --      6.6174                 5.0743                 4.7396
 Frc consts  --      1.3973                 1.1662                 1.2461
 IR Inten    --      0.3869                 2.9472                 6.5595

                     19                     20                     21
                      A                      A                      A
 Frequencies --    735.8094               742.5764               770.8344
 Red. masses --      2.3672                 1.6776                 5.0543
 Frc consts  --      0.7551                 0.5450                 1.7694
 IR Inten    --     33.3164                19.5003                23.1101

                     22                     23                     24
                      A                      A                      A
 Frequencies --    774.3644               893.2255               896.9068
 Red. masses --      4.8913                 4.4133                 1.3274
 Frc consts  --      1.7281                 2.0746                 0.6292
 IR Inten    --     27.5171                 2.8528                 1.4324

                     25                     26                     27
                      A                      A                      A
 Frequencies --    989.9633               995.4243              1004.6892
 Red. masses --      1.4117                 1.6209                 1.8138
 Frc consts  --      0.8151                 0.9463                 1.0787
 IR Inten    --      7.9070                38.6847                 2.9945

                     28                     29                     30
                      A                      A                      A
 Frequencies --   1061.3727              1089.6218              1105.2663
 Red. masses --      2.2697                 1.4993                 5.1003
 Frc consts  --      1.5065                 1.0488                 3.6710
 IR Inten    --     36.1325                 3.4487               138.5134

                     31                     32                     33
                      A                      A                      A
 Frequencies --   1108.0086              1158.1130              1231.2704
 Red. masses --      1.3103                 2.8530                 2.0000
 Frc consts  --      0.9478                 2.2545                 1.7864
 IR Inten    --      8.4117                63.8691                15.4624

                     34                     35                     36
                      A                      A                      A
 Frequencies --   1278.2187              1312.4239              1355.0594
 Red. masses --      1.3301                12.1842                 1.9822
 Frc consts  --      1.2804                12.3651                 2.1444
 IR Inten    --      5.9038               178.1486                 3.0398

                     37                     38                     39
                      A                      A                      A
 Frequencies --   1372.5148              1381.4138              1432.6062
 Red. masses --      1.2095                 1.8056                 1.2329
 Frc consts  --      1.3424                 2.0301                 1.4909
 IR Inten    --     21.6072                 6.7109                 7.3726

                     40                     41                     42
                      A                      A                      A
 Frequencies --   1477.6286              1480.1478              1489.9609
 Red. masses --      1.0646                 5.0144                 1.0597
 Frc consts  --      1.3695                 6.4726                 1.3861
 IR Inten    --      3.5315                 4.1076                 7.2175

                     43                     44                     45
                      A                      A                      A
 Frequencies --   1525.1529              1530.8640              1559.8683
 Red. masses --      1.0455                 1.0696                 5.2680
 Frc consts  --      1.4328                 1.4769                 7.5522
 IR Inten    --     11.0368                 2.9901                21.2525

                     46                     47                     48
                      A                      A                      A
 Frequencies --   3076.8181              3091.7288              3092.4563
 Red. masses --      1.0350                 1.0290                 1.0854
 Frc consts  --      5.7726                 5.7952                 6.1156
 IR Inten    --     11.1509                 1.5250                 1.3467

                     49                     50                     51
                      A                      A                      A
 Frequencies --   3147.5359              3168.7322              3192.9020
 Red. masses --      1.1015                 1.1048                 1.1063
 Frc consts  --      6.4295                 6.5357                 6.6452
 IR Inten    --      8.3529                 4.8406                 0.8341

                     52                     53                     54
                      A                      A                      A
 Frequencies --   3203.5179              3239.1480              3284.6857
 Red. masses --      1.1080                 1.0917                 1.0980
 Frc consts  --      6.6996                 6.7485                 6.9799
 IR Inten    --      1.3451                 8.2012                 1.2727

 - Thermochemistry -
 -------------------
 Temperature   298.150 Kelvin.  Pressure   1.00000 Atm.
 Atom     1 has atomic number  6 and mass  12.00000

 Molecular mass:   191.00747 amu.
 Principal axes and moments of inertia in atomic units:
                           1         2         3
     Eigenvalues --  1126.843303038.488673199.31152
           X            0.99986  -0.01626   0.00453
           Y            0.01647   0.99861  -0.05002
           Z           -0.00371   0.05009   0.99874
 This molecule is an asymmetric top.
 Rotational symmetry number  1.
 Warning -- assumption of classical behavior for rotation
           may cause significant error
 Rotational temperatures (Kelvin)      0.07686     0.02851     0.02707
 Rotational constants (GHZ):           1.60159     0.59396     0.56410
 Zero-point vibrational energy     395912.3 (Joules/Mol)
                                   94.62532 (Kcal/Mol)
 Warning -- explicit consideration of  16 degrees of freedom as
           vibrations may cause significant error
 Vibrational temperatures:     55.34    97.45   137.36   241.47   276.07
          (Kelvin)            311.24   339.78   351.70   391.95   419.19
                              489.16   607.51   612.86   720.73   774.27
                              861.33   898.60   961.10  1058.67  1068.40
                             1109.06  1114.14  1285.15  1290.45  1424.34
                             1432.19  1445.52  1527.08  1567.72  1590.23
                             1594.18  1666.27  1771.52  1839.07  1888.29
                             1949.63  1974.74  1987.55  2061.20  2125.98
                             2129.60  2143.72  2194.35  2202.57  2244.30
                             4426.85  4448.31  4449.35  4528.60  4559.10
                             4593.87  4609.15  4660.41  4725.93

 Zero-point correction=                           0.150795 (Hartree/Particle)
 Thermal correction to Energy=                    0.162251
 Thermal correction to Enthalpy=                  0.163195
 Thermal correction to Gibbs Free Energy=         0.112674
 Sum of electronic and zero-point Energies=          -1235.463414
 Sum of electronic and thermal Energies=             -1235.451958
 Sum of electronic and thermal Enthalpies=           -1235.451014
 Sum of electronic and thermal Free Energies=        -1235.501535

                     E (Thermal)             CV                S
                      KCal/Mol        Cal/Mol-Kelvin    Cal/Mol-Kelvin
 Total                  101.814             41.955            106.330
 Electronic               0.000              0.000              0.000
 Translational            0.889              2.981             41.647
 Rotational               0.889              2.981             30.772
 Vibrational            100.036             35.994             33.911
 Vibration     1          0.594              1.982              5.337
 Vibration     2          0.598              1.970              4.218
 Vibration     3          0.603              1.952              3.545
 Vibration     4          0.625              1.882              2.460
 Vibration     5          0.634              1.851              2.210
 Vibration     6          0.645              1.816              1.990
 Vibration     7          0.655              1.785              1.832
 Vibration     8          0.660              1.772              1.770
 Vibration     9          0.675              1.724              1.581
 Vibration    10          0.687              1.690              1.466
 Vibration    11          0.720              1.596              1.212
 Vibration    12          0.785              1.422              0.884
 Vibration    13          0.788              1.414              0.872
 Vibration    14          0.856              1.248              0.656
 Vibration    15          0.893              1.166              0.569
 Vibration    16          0.957              1.035              0.452

 Optimization completed.
    -- Stationary point found.
 Normal termination of Gaussian 16 at Tue Dec  8 20:22:45 2020.

 ----------------------------------------------------------------------
 # B3LYP/6-311++G(d,p) empiricaldispersion=gd3bj scf=xqc pop=npa geom=c
 heck
 ----------------------------------------------------------------------

 ---------------------------------------
 CID_116633681_JID_1525_Energie_neutraal
 ---------------------------------------
 Structure from the checkpoint file:  "JID_1525.chk"
 Charge =  0 Multiplicity = 1

 SCF Done:  E(RB3LYP) =  -1235.79380727     A.U. after   16 cycles
 Normal termination of Gaussian 16 at Tue Dec  8 20:25:00 2020.

 ----------------------------------------------------------------------
 # B3LYP/6-311++G(d,p) empiricaldispersion=gd3bj scf=xqc pop=npa geom=c
 heck
 ----------------------------------------------------------------------

 -------------------------------------
 CID_116633681_JID_1525_Energie_kation
 -------------------------------------
 Structure from the checkpoint file:  "JID_1525.chk"
 Charge =  1 Multiplicity = 2

 SCF Done:  E(UB3LYP) =  -1235.46199677     A.U. after   25 cycles
 Normal termination of Gaussian 16 at Tue Dec  8 20:31:21 2020.
 Gaussian 16:  ES64L-G16RevA.03 25-Dec-2016

 ----------------------------------------------------------------------
 # B3LYP/6-311++G(d,p) empiricaldispersion=gd3bj scf=xqc pop=npa geom=c
 heck
 ----------------------------------------------------------------------

 ------------------------------------
 CID_116633681_JID_1525_Energie_anion
 ------------------------------------
 Structure from the checkpoint file:  "JID_1525.chk"
 Charge = -1 Multiplicity = 2

                         Standard orientation:
 ---------------------------------------------------------------------
 Center     Atomic      Atomic             Coordinates (Angstroms)
 Number     Number       Type             X           Y           Z
 ---------------------------------------------------------------------
      1          6           0       -0.919495    1.836489   -1.249975
      2          6           0       -0.474251    0.408698   -0.933506
      3          6           0        0.888780    0.325158   -0.328032
      4          7           0        1.321295    1.142588    0.596847
      5          6           0        2.589654    0.804508    1.003533
      6          6           0        3.139644   -0.284560    0.387341
      7         16           0        2.020099   -0.939155   -0.757798
      8         16           0       -1.708269   -0.449654    0.158795
      9          8           0       -3.009592   -0.368232   -0.525029
     10          8           0       -1.131666   -1.754235    0.520222
     11          6           0       -1.776788    0.566788    1.649708
     12          1           0       -0.804752    2.480942   -0.375592
     13          1           0       -1.960225    1.841893   -1.582491
     14          1           0       -0.290822    2.242095   -2.048274
     15          1           0       -0.533785   -0.219045   -1.829075
     16          1           0        3.077343    1.401064    1.765313
     17          1           0        4.114895   -0.724598    0.540145
     18          1           0       -0.761320    0.737293    2.009158
     19          1           0       -2.275471    1.508592    1.418406
     20          1           0       -2.359406   -0.008150    2.372566
 ---------------------------------------------------------------------

 SCF Done:  E(UB3LYP) =  -1235.79231085     A.U. after   30 cycles

 The electronic state is 2-A.
 Alpha  occ. eigenvalues --  -88.90499 -88.72677 -18.98394 -18.98334 -14.16061
 Alpha  occ. eigenvalues --  -10.09317 -10.07684 -10.07284 -10.06097 -10.05743
 Alpha  occ. eigenvalues --  -10.04870  -7.97163  -7.81369  -5.93409  -5.93287
 Alpha  occ. eigenvalues --   -5.93231  -5.77647  -5.77307  -5.77001  -0.97527
 Alpha  occ. eigenvalues --   -0.87318  -0.81751  -0.69311  -0.65180  -0.63959
 Alpha  occ. eigenvalues --   -0.59320  -0.54429  -0.47471  -0.45170  -0.40744
 Alpha  occ. eigenvalues --   -0.37517  -0.36955  -0.35117  -0.34254  -0.32033
 Alpha  occ. eigenvalues --   -0.30806  -0.30435  -0.29388  -0.28183  -0.26883
 Alpha  occ. eigenvalues --   -0.25246  -0.24577  -0.22295  -0.20524  -0.19379
 Alpha  occ. eigenvalues --   -0.17714  -0.16678  -0.14323  -0.13575  -0.10904
 Alpha  occ. eigenvalues --    0.05325
 Alpha virt. eigenvalues --    0.08182   0.08897   0.09381   0.10675   0.10894
 Alpha virt. eigenvalues --    0.12099   0.12353   0.13570   0.14260   0.15066
 Alpha virt. eigenvalues --    0.15210   0.15644   0.16011   0.16386   0.17451

  Beta  occ. eigenvalues --  -88.90441 -88.72604 -18.98335 -18.98324 -14.15889
  Beta  occ. eigenvalues --  -10.09309 -10.07620 -10.06846 -10.06160 -10.05717
  Beta  occ. eigenvalues --  -10.04563  -7.97094  -7.81303  -5.93365  -5.93235
  Beta  occ. eigenvalues --   -5.93133  -5.77617  -5.77277  -5.76753  -0.97401
  Beta  occ. eigenvalues --   -0.87215  -0.81313  -0.69057  -0.64725  -0.63801
  Beta  occ. eigenvalues --   -0.58968  -0.54258  -0.47141  -0.44745  -0.40470
  Beta  occ. eigenvalues --   -0.37352  -0.36685  -0.35024  -0.34151  -0.31896
  Beta  occ. eigenvalues --   -0.30706  -0.30336  -0.29224  -0.28054  -0.25977
  Beta  occ. eigenvalues --   -0.25097  -0.24188  -0.21940  -0.20377  -0.19323
  Beta  occ. eigenvalues --   -0.17624  -0.16353  -0.13309  -0.13045  -0.09382
  Beta virt. eigenvalues --    0.08264   0.08936   0.09523   0.10646   0.10973
  Beta virt. eigenvalues --    0.11468   0.12156   0.12609   0.13900   0.14366
  Beta virt. eigenvalues --    0.15144   0.15472   0.15814   0.16048   0.16432

 Mulliken charges and spin densities:
               1          2
     1  C   -0.194165  -0.488994
     2  C   -0.407262   0.290876
     3  C    0.069397   0.124658
     4  N   -0.068356   0.120356
     5  C   -0.077332  -0.073907
     6  C   -0.240005   0.161300
     7  S   -0.282945   0.129174
     8  S    0.079214   0.262730
     9  O   -0.213562   0.015402
    10  O   -0.241761   0.009807
    11  C    0.277940  -0.913628
    12  H    0.080323   0.082830
    13  H    0.063045   0.109082
    14  H    0.141768   0.000912
    15  H    0.269508  -0.009672
    16  H    0.017405   0.101038
    17  H    0.138961   0.023018
    18  H   -0.037836   0.283839
    19  H   -0.221904   0.408891
    20  H   -0.152432   0.362287
 Sum of Mulliken charges =  -1.00000   1.00000

 Dipole moment (field-independent basis, Debye):
    X=              2.1109    Y=              0.8774    Z=             -2.1889  Tot=              3.1649
 Quadrupole moment (field-independent basis, Debye-Ang):
   XX=           -119.2721   YY=           -103.7680   ZZ=            -97.1631
   XY=             -2.3670   XZ=              2.4081   YZ=             -2.2965

 Summary of Natural Population Analysis:

                                       Natural Population
                Natural  -----------------------------------------------
    Atom  No    Charge         Core      Valence    Rydberg      Total
 -----------------------------------------------------------------------
      C    1   -0.29064      0.99964     2.28387    0.00713     3.29064
      C    2   -0.21071      0.99949     2.19402    0.01720     3.21071
      C    3    0.07838      0.99957     1.90117    0.02088     2.92162
      N    4   -0.24171      0.99964     2.72930    0.01278     3.74171
      C    5   -0.04311      0.99954     2.02898    0.01459     3.04311
      C    6   -0.16687      0.99955     2.15622    0.01110     3.16687
      S    7    0.21048      4.99941     2.76956    0.02054     7.78952
      S    8    1.03116      4.99928     1.87712    0.09243     6.96884
      O    9   -0.47777      0.99991     3.47188    0.00598     4.47777
      O   10   -0.46948      0.99991     3.46381    0.00576     4.46948
      C   11   -0.39806      0.99961     2.39032    0.00813     3.39806
      H   12    0.10871      0.00000     0.38990    0.00139     0.39129
      H   13    0.10582      0.00000     0.39318    0.00100     0.39418
      H   14    0.10282      0.00000     0.39630    0.00088     0.39718
      H   15    0.11468      0.00000     0.38427    0.00105     0.38532
      H   16    0.09099      0.00000     0.40799    0.00102     0.40901
      H   17    0.09969      0.00000     0.39923    0.00108     0.40031
      H   18    0.12887      0.00000     0.36912    0.00202     0.37113
      H   19    0.11178      0.00000     0.38686    0.00136     0.38822
      H   20    0.11496      0.00000     0.38339    0.00165     0.38504
 =======================================================================
   * Total *    0.00000     18.99556    30.77648    0.22796    50.00000

 Normal termination of Gaussian 16 at Tue Dec  8 20:38:02 2020.
