 Gaussian 16, Revision A.03,

 -----------------------------------------------------------
 # opt freq B3LYP/6-31G(d) empiricaldispersion=gd3bj scf=xqc
 -----------------------------------------------------------

 -------------------------------
 CID_130004839_JID_3753_neutraal
 -------------------------------
 Symbolic Z-matrix:
 Charge =  0 Multiplicity = 1

 SCF Done:  E(RB3LYP) =  -553.051631781     A.U. after   15 cycles
 SCF Done:  E(RB3LYP) =  -553.057816206     A.U. after   15 cycles
 SCF Done:  E(RB3LYP) =  -553.058603286     A.U. after   13 cycles
 SCF Done:  E(RB3LYP) =  -553.059231912     A.U. after   12 cycles
 SCF Done:  E(RB3LYP) =  -553.059281441     A.U. after   12 cycles
 SCF Done:  E(RB3LYP) =  -553.059331671     A.U. after   10 cycles
 SCF Done:  E(RB3LYP) =  -553.059340847     A.U. after   10 cycles
 SCF Done:  E(RB3LYP) =  -553.059349084     A.U. after   12 cycles
 SCF Done:  E(RB3LYP) =  -553.059352543     A.U. after   11 cycles
 SCF Done:  E(RB3LYP) =  -553.059354470     A.U. after    9 cycles
 SCF Done:  E(RB3LYP) =  -553.059354759     A.U. after    8 cycles
 SCF Done:  E(RB3LYP) =  -553.059354794     A.U. after    7 cycles
 Optimization completed.
    -- Stationary point found.
 Normal termination of Gaussian 16 at Mon Dec 14 16:30:36 2020.

 --------------------------------------------------------------------
 #N Geom=AllCheck Guess=TCheck SCRF=Check GenChk RB3LYP/6-31G(d) Freq
 --------------------------------------------------------------------

 Structure from the checkpoint file:  "JID_3753.chk"
 -------------------------------
 CID_130004839_JID_3753_neutraal
 -------------------------------
 Charge =  0 Multiplicity = 1

 SCF Done:  E(RB3LYP) =  -553.059354794     A.U. after    1 cycles

  Exact polarizability: 140.440  -4.732 105.455  -2.311   1.000  96.775
 Approx polarizability: 225.173 -11.946 154.425  -8.348  -1.154 159.532

                      1                      2                      3
                      A                      A                      A
 Frequencies --     31.7428                86.3588               118.6054
 Red. masses --      6.7300                 6.3250                 3.1630
 Frc consts  --      0.0040                 0.0278                 0.0262
 IR Inten    --      0.0776                 0.6923                 0.7994

                      4                      5                      6
                      A                      A                      A
 Frequencies --    183.6003               202.3779               315.9191
 Red. masses --      5.2766                 2.7531                 3.5503
 Frc consts  --      0.1048                 0.0664                 0.2088
 IR Inten    --      1.8091                 0.8273                 0.8337

                      7                      8                      9
                      A                      A                      A
 Frequencies --    330.9286               378.4150               437.5071
 Red. masses --      3.3360                 3.1831                 3.1680
 Frc consts  --      0.2153                 0.2686                 0.3573
 IR Inten    --      0.2105                 2.5029                 0.8587

                     10                     11                     12
                      A                      A                      A
 Frequencies --    459.1874               527.9513               572.6579
 Red. masses --      3.4091                 2.1703                 2.7611
 Frc consts  --      0.4235                 0.3564                 0.5335
 IR Inten    --      0.6619                 0.0264                 3.9661

                     13                     14                     15
                      A                      A                      A
 Frequencies --    575.0358               644.4922               662.5359
 Red. masses --     12.0983                 3.8262                 3.4644
 Frc consts  --      2.3570                 0.9364                 0.8960
 IR Inten    --     10.6353                 8.5519                 0.6958

                     16                     17                     18
                      A                      A                      A
 Frequencies --    730.3628               742.6571               766.3104
 Red. masses --      2.0835                 3.7436                 3.0134
 Frc consts  --      0.6548                 1.2165                 1.0426
 IR Inten    --     41.9561                 3.9500                 1.9467

                     19                     20                     21
                      A                      A                      A
 Frequencies --    814.2011               821.6910               831.9903
 Red. masses --      3.0009                 3.1870                 2.9395
 Frc consts  --      1.1721                 1.2678                 1.1988
 IR Inten    --      5.6641                10.3172                 0.5381

                     22                     23                     24
                      A                      A                      A
 Frequencies --    872.0965               885.5330               898.0599
 Red. masses --      2.2830                 2.4237                 2.4931
 Frc consts  --      1.0230                 1.1198                 1.1847
 IR Inten    --      3.5494                 0.0913                 4.0009

                     25                     26                     27
                      A                      A                      A
 Frequencies --    919.9167               931.9783               941.5401
 Red. masses --      3.0333                 1.4818                 2.3740
 Frc consts  --      1.5124                 0.7583                 1.2400
 IR Inten    --      2.4650                 2.7327                 4.1494

                     28                     29                     30
                      A                      A                      A
 Frequencies --    966.9695               978.3948               998.1608
 Red. masses --      3.1773                 1.8727                 2.3310
 Frc consts  --      1.7504                 1.0562                 1.3683
 IR Inten    --      4.2023                 0.4801                 9.7911

                     31                     32                     33
                      A                      A                      A
 Frequencies --   1024.3362              1048.3828              1095.7290
 Red. masses --      1.8062                 1.8609                 1.9445
 Frc consts  --      1.1166                 1.2051                 1.3755
 IR Inten    --      4.1024                 2.5422                 1.3331

                     34                     35                     36
                      A                      A                      A
 Frequencies --   1111.5820              1131.0949              1136.0393
 Red. masses --      2.0973                 1.3940                 1.6775
 Frc consts  --      1.5269                 1.0508                 1.2755
 IR Inten    --      0.1150                 1.2189                 1.5593

                     37                     38                     39
                      A                      A                      A
 Frequencies --   1153.6282              1166.4968              1192.9753
 Red. masses --      1.1929                 1.3214                 1.8389
 Frc consts  --      0.9354                 1.0594                 1.5420
 IR Inten    --      0.8225                 5.2526                 0.6417

                     40                     41                     42
                      A                      A                      A
 Frequencies --   1220.5200              1251.6462              1259.4245
 Red. masses --      1.3894                 1.4416                 1.3698
 Frc consts  --      1.2195                 1.3306                 1.2802
 IR Inten    --      0.6526                 4.5800                 0.7644

                     43                     44                     45
                      A                      A                      A
 Frequencies --   1279.1815              1281.5004              1294.8502
 Red. masses --      1.4289                 1.3529                 1.3514
 Frc consts  --      1.3775                 1.3090                 1.3350
 IR Inten    --      1.9328                 0.4114                 1.0819

                     46                     47                     48
                      A                      A                      A
 Frequencies --   1312.4552              1316.7487              1333.0542
 Red. masses --      1.5669                 1.3699                 2.2615
 Frc consts  --      1.5902                 1.3994                 2.3678
 IR Inten    --      0.8276                13.0498               114.6342

                     49                     50                     51
                      A                      A                      A
 Frequencies --   1344.2303              1359.9918              1372.4639
 Red. masses --      2.5703                 1.6310                 1.5018
 Frc consts  --      2.7364                 1.7773                 1.6668
 IR Inten    --     48.6824                 6.2019                20.2091

                     52                     53                     54
                      A                      A                      A
 Frequencies --   1395.2775              1454.5044              1473.7582
 Red. masses --      1.4229                 1.2187                 1.1892
 Frc consts  --      1.6321                 1.5190                 1.5217
 IR Inten    --     28.6925                10.8409                 2.3592

                     55                     56                     57
                      A                      A                      A
 Frequencies --   1508.7575              1536.3928              1539.8028
 Red. masses --      1.0847                 1.1083                 1.0985
 Frc consts  --      1.4548                 1.5415                 1.5346
 IR Inten    --      1.0534                 3.3242                 2.1465

                     58                     59                     60
                      A                      A                      A
 Frequencies --   1653.1784              2256.2034              2999.8564
 Red. masses --      5.6873                13.6592                 1.0815
 Frc consts  --      9.1579                40.9667                 5.7345
 IR Inten    --      0.9424               596.1594                11.4744

                     61                     62                     63
                      A                      A                      A
 Frequencies --   3043.6159              3055.8370              3061.0226
 Red. masses --      1.0813                 1.0848                 1.0641
 Frc consts  --      5.9018                 5.9685                 5.8747
 IR Inten    --      5.5726                29.8310                36.6058

                     64                     65                     66
                      A                      A                      A
 Frequencies --   3068.4473              3077.3096              3106.0442
 Red. masses --      1.0622                 1.0636                 1.1034
 Frc consts  --      5.8925                 5.9344                 6.2717
 IR Inten    --     54.5767                38.6665                17.7873

                     67                     68                     69
                      A                      A                      A
 Frequencies --   3123.9018              3124.6031              3128.2067
 Red. masses --      1.0948                 1.1003                 1.1006
 Frc consts  --      6.2947                 6.3294                 6.3455
 IR Inten    --     10.3969                77.1955                36.1156

                     70                     71                     72
                      A                      A                      A
 Frequencies --   3132.2623              3209.0066              3236.5434
 Red. masses --      1.0909                 1.0874                 1.1039
 Frc consts  --      6.3057                 6.5975                 6.8128
 IR Inten    --     39.5587                 9.1831                17.3182

 - Thermochemistry -
 -------------------
 Temperature   298.150 Kelvin.  Pressure   1.00000 Atm.
 Atom     1 has atomic number  6 and mass  12.00000

 Molecular mass:   175.11095 amu.
 Principal axes and moments of inertia in atomic units:
                           1         2         3
     Eigenvalues --  1167.222812917.323293415.47240
           X            0.99977   0.02121   0.00192
           Y           -0.02121   0.99977  -0.00081
           Z           -0.00194   0.00077   1.00000
 This molecule is an asymmetric top.
 Rotational symmetry number  1.
 Warning -- assumption of classical behavior for rotation
           may cause significant error
 Rotational temperatures (Kelvin)      0.07421     0.02969     0.02536
 Rotational constants (GHZ):           1.54618     0.61863     0.52840
 Zero-point vibrational energy     583167.8 (Joules/Mol)
                                  139.38045 (Kcal/Mol)
 Warning -- explicit consideration of  13 degrees of freedom as
           vibrations may cause significant error
 Vibrational temperatures:     45.67   124.25   170.65   264.16   291.18
          (Kelvin)            454.54   476.13   544.45   629.48   660.67
                              759.60   823.93   827.35   927.28   953.24
                             1050.83  1068.52  1102.55  1171.45  1182.23
                             1197.05  1254.75  1274.08  1292.11  1323.56
                             1340.91  1354.67  1391.25  1407.69  1436.13
                             1473.79  1508.39  1576.51  1599.32  1627.39
                             1634.51  1659.81  1678.33  1716.43  1756.06
                             1800.84  1812.03  1840.46  1843.79  1863.00
                             1888.33  1894.51  1917.97  1934.05  1956.72
                             1974.67  2007.49  2092.71  2120.41  2170.77
                             2210.53  2215.43  2378.56  3246.17  4316.12
                             4379.08  4396.67  4404.13  4414.81  4427.56
                             4468.90  4494.60  4495.61  4500.79  4506.63
                             4617.04  4656.66

 Zero-point correction=                           0.222117 (Hartree/Particle)
 Thermal correction to Energy=                    0.232214
 Thermal correction to Enthalpy=                  0.233158
 Thermal correction to Gibbs Free Energy=         0.185569
 Sum of electronic and zero-point Energies=           -552.837238
 Sum of electronic and thermal Energies=              -552.827141
 Sum of electronic and thermal Enthalpies=            -552.826197
 Sum of electronic and thermal Free Energies=         -552.873786

                     E (Thermal)             CV                S
                      KCal/Mol        Cal/Mol-Kelvin    Cal/Mol-Kelvin
 Total                  145.716             41.174            100.160
 Electronic               0.000              0.000              0.000
 Translational            0.889              2.981             41.388
 Rotational               0.889              2.981             30.831
 Vibrational            143.939             35.213             27.940
 Vibration     1          0.594              1.983              5.717
 Vibration     2          0.601              1.959              3.741
 Vibration     3          0.609              1.934              3.123
 Vibration     4          0.631              1.862              2.291
 Vibration     5          0.639              1.837              2.111
 Vibration     6          0.703              1.643              1.331
 Vibration     7          0.713              1.614              1.256
 Vibration     8          0.749              1.516              1.045
 Vibration     9          0.798              1.388              0.834
 Vibration    10          0.817              1.341              0.768
 Vibration    11          0.883              1.188              0.592
 Vibration    12          0.929              1.090              0.499
 Vibration    13          0.931              1.085              0.495

 Optimization completed.
    -- Stationary point found.
 Normal termination of Gaussian 16 at Mon Dec 14 16:37:49 2020.

 ----------------------------------------------------------------------
 # B3LYP/6-311++G(d,p) empiricaldispersion=gd3bj scf=xqc pop=npa geom=c
 heck
 ----------------------------------------------------------------------

 ---------------------------------------
 CID_130004839_JID_3753_Energie_neutraal
 ---------------------------------------
 Structure from the checkpoint file:  "JID_3753.chk"
 Charge =  0 Multiplicity = 1

 SCF Done:  E(RB3LYP) =  -553.203490903     A.U. after   16 cycles
 Normal termination of Gaussian 16 at Mon Dec 14 16:41:05 2020.

 ----------------------------------------------------------------------
 # B3LYP/6-311++G(d,p) empiricaldispersion=gd3bj scf=xqc pop=npa geom=c
 heck
 ----------------------------------------------------------------------

 -------------------------------------
 CID_130004839_JID_3753_Energie_kation
 -------------------------------------
 Structure from the checkpoint file:  "JID_3753.chk"
 Charge =  1 Multiplicity = 2

 SCF Done:  E(UB3LYP) =  -552.894091622     A.U. after   27 cycles
 Normal termination of Gaussian 16 at Mon Dec 14 16:48:54 2020.
 Gaussian 16:  ES64L-G16RevA.03 25-Dec-2016

 ----------------------------------------------------------------------
 # B3LYP/6-311++G(d,p) empiricaldispersion=gd3bj scf=xqc pop=npa geom=c
 heck
 ----------------------------------------------------------------------

 ------------------------------------
 CID_130004839_JID_3753_Energie_anion
 ------------------------------------
 Structure from the checkpoint file:  "JID_3753.chk"
 Charge = -1 Multiplicity = 2

                         Standard orientation:
 ---------------------------------------------------------------------
 Center     Atomic      Atomic             Coordinates (Angstroms)
 Number     Number       Type             X           Y           Z
 ---------------------------------------------------------------------
      1          6           0        0.029850    2.137156   -0.547080
      2          6           0        1.386491    1.697967    0.128667
      3          6           0        1.144863    0.293775    0.818522
      4          6           0       -0.373227    0.261933    0.819502
      5          6           0       -0.698513    0.793311   -0.586110
      6          6           0       -2.201298    0.353122   -0.754828
      7          6           0       -2.671447    0.113518    0.705648
      8          6           0       -1.465133   -0.819659    1.061785
      9          6           0       -1.547290   -1.783796   -0.116387
     10          6           0       -2.025581   -1.112434   -1.173238
     11          7           0        1.675162   -0.852469    0.034238
     12          7           0        2.894111   -0.854266   -0.146406
     13          7           0        4.009403   -0.960090   -0.377973
     14          1           0        0.199142    2.582333   -1.532142
     15          1           0       -0.489776    2.876813    0.073177
     16          1           0        2.186727    1.615871   -0.613692
     17          1           0        1.717195    2.428107    0.873707
     18          1           0        1.586555    0.261793    1.821456
     19          1           0       -0.624244    1.063561    1.529942
     20          1           0       -0.127383    0.195997   -1.306238
     21          1           0       -2.835105    0.970985   -1.393488
     22          1           0       -2.718592    1.019775    1.320083
     23          1           0       -3.632537   -0.405729    0.749185
     24          1           0       -1.470124   -1.266973    2.058055
     25          1           0       -1.196405   -2.809251   -0.095946
     26          1           0       -2.118466   -1.474865   -2.192002
 ---------------------------------------------------------------------

 SCF Done:  E(UB3LYP) =  -553.189917006     A.U. after   33 cycles
 SCF Done:  E(UB3LYP) =  -553.189917006     a.u. after    1 cycles

 The electronic state is 2-A.
 Alpha  occ. eigenvalues --  -14.35206 -14.25245 -14.23689 -10.10993 -10.07540
 Alpha  occ. eigenvalues --  -10.07433 -10.07002 -10.06545 -10.06315 -10.06120
 Alpha  occ. eigenvalues --  -10.06088 -10.06019 -10.05998  -1.01667  -0.85988
 Alpha  occ. eigenvalues --   -0.78558  -0.72042  -0.63228  -0.61923  -0.58721
 Alpha  occ. eigenvalues --   -0.57911  -0.50051  -0.47660  -0.45185  -0.42447
 Alpha  occ. eigenvalues --   -0.40646  -0.40239  -0.39554  -0.38745  -0.36419
 Alpha  occ. eigenvalues --   -0.34592  -0.33163  -0.31753  -0.29538  -0.28450
 Alpha  occ. eigenvalues --   -0.27218  -0.26722  -0.25150  -0.24809  -0.23725
 Alpha  occ. eigenvalues --   -0.22726  -0.21505  -0.20206  -0.19275  -0.18099
 Alpha  occ. eigenvalues --   -0.13686  -0.13233   0.04838
 Alpha virt. eigenvalues --    0.06881   0.07284   0.07886   0.08550   0.09512
 Alpha virt. eigenvalues --    0.09892   0.10072   0.10386   0.10633   0.11457
 Alpha virt. eigenvalues --    0.12151   0.12635   0.12973   0.13689   0.14174

  Beta  occ. eigenvalues --  -14.35036 -14.25017 -14.23734 -10.10939 -10.07532
  Beta  occ. eigenvalues --  -10.07423 -10.06985 -10.06527 -10.06295 -10.06106
  Beta  occ. eigenvalues --  -10.06066 -10.06017 -10.05985  -1.01336  -0.85828
  Beta  occ. eigenvalues --   -0.78521  -0.71993  -0.63171  -0.61872  -0.58657
  Beta  occ. eigenvalues --   -0.57853  -0.49946  -0.47599  -0.45133  -0.42400
  Beta  occ. eigenvalues --   -0.40563  -0.39932  -0.39390  -0.38531  -0.36102
  Beta  occ. eigenvalues --   -0.34449  -0.32807  -0.31588  -0.29497  -0.28390
  Beta  occ. eigenvalues --   -0.27183  -0.26670  -0.25107  -0.24757  -0.23653
  Beta  occ. eigenvalues --   -0.22695  -0.21448  -0.20122  -0.19196  -0.17866
  Beta  occ. eigenvalues --   -0.13618  -0.13175
  Beta virt. eigenvalues --    0.07222   0.08151   0.08294   0.08600   0.09093
  Beta virt. eigenvalues --    0.09872   0.10382   0.10535   0.10806   0.11014
  Beta virt. eigenvalues --    0.11732   0.12367   0.12974   0.13562   0.13914

 Mulliken charges and spin densities:
               1          2
     1  C   -0.138860  -0.289105
     2  C    0.539323  -1.044894
     3  C   -0.362121  -0.207832
     4  C    1.518627  -1.429679
     5  C   -0.434557   0.296802
     6  C    0.228039   0.128182
     7  C    0.840653  -1.693821
     8  C   -1.134448   1.553622
     9  C    0.037342  -0.482673
    10  C    0.139504  -0.605406
    11  N   -1.240792   0.941395
    12  N    1.455459  -0.576432
    13  N    0.032257  -0.409419
    14  H   -0.045121   0.179472
    15  H   -0.226348   0.399264
    16  H    0.142837   0.001321
    17  H   -0.129164   0.277658
    18  H   -0.641771   0.887655
    19  H   -0.365380   0.573439
    20  H    0.111670   0.096184
    21  H   -0.377825   0.623712
    22  H   -0.175379   0.298273
    23  H   -0.224926   0.390624
    24  H   -0.509185   0.771866
    25  H   -0.014561   0.155752
    26  H   -0.025274   0.164039
 Sum of Mulliken charges =  -1.00000   1.00000

 Dipole moment (field-independent basis, Debye):
    X=              0.5660    Y=             -0.8313    Z=             -3.6060  Tot=              3.7436
 Quadrupole moment (field-independent basis, Debye-Ang):
   XX=           -137.4172   YY=           -113.1779   ZZ=           -115.6556
   XY=              6.6254   XZ=              2.1258   YZ=             -4.6052

 Summary of Natural Population Analysis:

                                       Natural Population
                Natural  -----------------------------------------------
    Atom  No    Charge         Core      Valence    Rydberg      Total
 -----------------------------------------------------------------------
      C    1   -0.18534      0.99960     2.17749    0.00825     3.18534
      C    2   -0.19224      0.99963     2.18428    0.00834     3.19224
      C    3   -0.00819      0.99951     1.99464    0.01404     3.00819
      C    4   -0.10862      0.99952     2.09322    0.01588     3.10862
      C    5   -0.10879      0.99954     2.09806    0.01119     3.10879
      C    6   -0.12315      0.99958     2.11029    0.01327     3.12315
      C    7   -0.17397      0.99964     2.16449    0.00984     3.17397
      C    8   -0.12197      0.99957     2.10844    0.01396     3.12197
      C    9   -0.08755      0.99951     2.07761    0.01043     3.08755
      C   10   -0.09385      0.99952     2.08377    0.01056     3.09385
      N   11   -0.19595      0.99968     2.68216    0.01411     3.69595
      N   12    0.13183      0.99970     2.35300    0.01546     3.36817
      N   13   -0.04200      0.99982     2.52852    0.01366     3.54200
      H   14    0.09650      0.00000     0.40267    0.00083     0.40350
      H   15    0.09808      0.00000     0.40027    0.00164     0.40192
      H   16    0.09963      0.00000     0.39936    0.00101     0.40037
      H   17    0.10333      0.00000     0.39564    0.00103     0.39667
      H   18    0.09866      0.00000     0.39921    0.00213     0.40134
      H   19    0.10309      0.00000     0.39301    0.00390     0.39691
      H   20    0.09990      0.00000     0.39759    0.00251     0.40010
      H   21    0.10362      0.00000     0.39524    0.00113     0.39638
      H   22    0.09923      0.00000     0.39887    0.00190     0.40077
      H   23    0.09992      0.00000     0.39877    0.00131     0.40008
      H   24    0.10686      0.00000     0.39160    0.00153     0.39314
      H   25    0.10141      0.00000     0.39756    0.00103     0.39859
      H   26    0.09955      0.00000     0.39954    0.00091     0.40045
 =======================================================================
   * Total *    0.00000     12.99481    33.82531    0.17988    47.00000

 Normal termination of Gaussian 16 at Mon Dec 14 16:58:33 2020.
