 Gaussian 16, Revision A.03,

 -----------------------------------------------------------
 # opt freq B3LYP/6-31G(d) empiricaldispersion=gd3bj scf=xqc
 -----------------------------------------------------------

 -------------------------------
 CID_115768099_JID_6784_neutraal
 -------------------------------
 Symbolic Z-matrix:
 Charge =  0 Multiplicity = 1

 SCF Done:  E(RB3LYP) =  -1013.95825524     A.U. after   14 cycles
 SCF Done:  E(RB3LYP) =  -1013.96317366     A.U. after   13 cycles
 SCF Done:  E(RB3LYP) =  -1013.96558986     A.U. after   13 cycles
 SCF Done:  E(RB3LYP) =  -1013.96595320     A.U. after   15 cycles
 SCF Done:  E(RB3LYP) =  -1013.96706570     A.U. after   13 cycles
 SCF Done:  E(RB3LYP) =  -1013.96759153     A.U. after   12 cycles
 SCF Done:  E(RB3LYP) =  -1013.96803138     A.U. after   13 cycles
 SCF Done:  E(RB3LYP) =  -1013.96826520     A.U. after   12 cycles
 SCF Done:  E(RB3LYP) =  -1013.96837121     A.U. after   12 cycles
 SCF Done:  E(RB3LYP) =  -1013.96842226     A.U. after   11 cycles
 SCF Done:  E(RB3LYP) =  -1013.96845716     A.U. after   10 cycles
 SCF Done:  E(RB3LYP) =  -1013.96847375     A.U. after   11 cycles
 SCF Done:  E(RB3LYP) =  -1013.96847591     A.U. after    9 cycles
 SCF Done:  E(RB3LYP) =  -1013.96847640     A.U. after    8 cycles
 SCF Done:  E(RB3LYP) =  -1013.96847655     A.U. after    8 cycles
 SCF Done:  E(RB3LYP) =  -1013.96847658     A.U. after    7 cycles
 Optimization completed.
    -- Stationary point found.
 Normal termination of Gaussian 16 at Fri Dec 11 00:33:17 2020.

 --------------------------------------------------------------------
 #N Geom=AllCheck Guess=TCheck SCRF=Check GenChk RB3LYP/6-31G(d) Freq
 --------------------------------------------------------------------

 Structure from the checkpoint file:  "JID_6784.chk"
 -------------------------------
 CID_115768099_JID_6784_neutraal
 -------------------------------
 Charge =  0 Multiplicity = 1

 SCF Done:  E(RB3LYP) =  -1013.96847658     A.U. after    1 cycles

  Exact polarizability: 173.689  13.429 172.189 -14.114   4.159 134.548
 Approx polarizability: 215.546  24.122 305.059 -30.151   9.294 217.369

                      1                      2                      3
                      A                      A                      A
 Frequencies --     18.5776                28.7944                45.3516
 Red. masses --      4.6797                 4.4014                 4.7711
 Frc consts  --      0.0010                 0.0022                 0.0058
 IR Inten    --      1.3099                 2.4755                 0.2283

                      4                      5                      6
                      A                      A                      A
 Frequencies --     61.3195                63.4277               101.8909
 Red. masses --      3.8851                 2.8259                 2.3073
 Frc consts  --      0.0086                 0.0067                 0.0141
 IR Inten    --      0.4031                 0.3869                 0.7072

                      7                      8                      9
                      A                      A                      A
 Frequencies --    124.5223               134.1306               163.7388
 Red. masses --      4.5469                 4.4713                 5.1107
 Frc consts  --      0.0415                 0.0474                 0.0807
 IR Inten    --      0.8692                 5.7561                 2.0076

                     10                     11                     12
                      A                      A                      A
 Frequencies --    187.1772               218.0733               242.9506
 Red. masses --      3.7275                 2.0272                 2.3259
 Frc consts  --      0.0769                 0.0568                 0.0809
 IR Inten    --      1.6797                 1.3832                 0.3891

                     13                     14                     15
                      A                      A                      A
 Frequencies --    279.3200               289.2071               306.7634
 Red. masses --      1.4077                 1.4974                 3.3900
 Frc consts  --      0.0647                 0.0738                 0.1880
 IR Inten    --      0.1816                 0.2988                 1.5723

                     16                     17                     18
                      A                      A                      A
 Frequencies --    345.4643               356.5177               391.8513
 Red. masses --      2.3970                 2.4196                 4.2436
 Frc consts  --      0.1685                 0.1812                 0.3839
 IR Inten    --      0.2131                 2.2055                 0.9307

                     19                     20                     21
                      A                      A                      A
 Frequencies --    398.1117               435.7891               459.7274
 Red. masses --      3.4363                 2.5361                 4.2166
 Frc consts  --      0.3209                 0.2838                 0.5251
 IR Inten    --      1.7424                 1.6056                 2.0103

                     22                     23                     24
                      A                      A                      A
 Frequencies --    466.7992               536.2576               567.9235
 Red. masses --      2.7363                 5.9971                 4.6231
 Frc consts  --      0.3513                 1.0161                 0.8785
 IR Inten    --      6.7127                 1.8288                 9.9296

                     25                     26                     27
                      A                      A                      A
 Frequencies --    584.9932               632.5201               656.2256
 Red. masses --      4.9671                 4.6636                 4.2425
 Frc consts  --      1.0015                 1.0993                 1.0764
 IR Inten    --      1.4116                 4.7983                 4.4120

                     28                     29                     30
                      A                      A                      A
 Frequencies --    712.5883               738.9077               746.4611
 Red. masses --      2.3465                 2.7103                 4.1396
 Frc consts  --      0.7020                 0.8719                 1.3590
 IR Inten    --     60.7883                33.8889                 9.4811

                     31                     32                     33
                      A                      A                      A
 Frequencies --    771.2816               774.4342               779.2310
 Red. masses --      1.5361                 2.6277                 1.3398
 Frc consts  --      0.5384                 0.9285                 0.4793
 IR Inten    --     11.8779                 7.3466                38.6114

                     34                     35                     36
                      A                      A                      A
 Frequencies --    828.1887               850.4309               879.9889
 Red. masses --      1.8316                 3.8552                 1.4333
 Frc consts  --      0.7402                 1.6428                 0.6540
 IR Inten    --      8.4489                10.5374                10.1301

                     37                     38                     39
                      A                      A                      A
 Frequencies --    898.4463               931.9416               960.0354
 Red. masses --      1.4858                 1.9865                 1.3770
 Frc consts  --      0.7066                 1.0165                 0.7477
 IR Inten    --      4.4899                 0.5977                 0.9390

                     40                     41                     42
                      A                      A                      A
 Frequencies --    987.3471               990.8289               998.7635
 Red. masses --      1.6329                 1.9152                 1.2941
 Frc consts  --      0.9379                 1.1078                 0.7606
 IR Inten    --      4.5732                 7.6551                 0.3715

                     43                     44                     45
                      A                      A                      A
 Frequencies --   1048.4090              1070.9244              1079.0770
 Red. masses --      1.3860                 2.3883                 1.8020
 Frc consts  --      0.8976                 1.6138                 1.2362
 IR Inten    --      0.4360                 0.6083                 1.6434

                     46                     47                     48
                      A                      A                      A
 Frequencies --   1093.3794              1112.2730              1131.7951
 Red. masses --      2.2098                 1.8207                 2.0836
 Frc consts  --      1.5565                 1.3271                 1.5725
 IR Inten    --      2.7650                10.7316                 2.6113

                     49                     50                     51
                      A                      A                      A
 Frequencies --   1150.3759              1172.2760              1199.9092
 Red. masses --      3.4926                 1.8791                 1.1005
 Frc consts  --      2.7232                 1.5214                 0.9336
 IR Inten    --     40.5725                90.6606                 0.5068

                     52                     53                     54
                      A                      A                      A
 Frequencies --   1211.0874              1234.2781              1237.0642
 Red. masses --      2.4598                 1.3072                 3.0497
 Frc consts  --      2.1257                 1.1733                 2.7497
 IR Inten    --      7.4117                15.5587                 5.9970

                     55                     56                     57
                      A                      A                      A
 Frequencies --   1275.3306              1297.6863              1299.4484
 Red. masses --      1.2761                 1.2834                 1.3099
 Frc consts  --      1.2229                 1.2734                 1.3032
 IR Inten    --      4.0789                 4.8326                 3.7589

                     58                     59                     60
                      A                      A                      A
 Frequencies --   1323.7885              1328.3551              1358.8332
 Red. masses --      1.5371                 1.4360                 2.6651
 Frc consts  --      1.5871                 1.4929                 2.8993
 IR Inten    --      4.9564                 9.1481                10.6467

                     61                     62                     63
                      A                      A                      A
 Frequencies --   1372.6791              1388.0282              1406.3506
 Red. masses --      1.3269                 1.2702                 1.2963
 Frc consts  --      1.4731                 1.4418                 1.5105
 IR Inten    --      0.9095                13.8014                 0.6628

                     64                     65                     66
                      A                      A                      A
 Frequencies --   1431.8183              1440.3402              1487.8431
 Red. masses --      1.2532                 1.2244                 1.0871
 Frc consts  --      1.5137                 1.4966                 1.4179
 IR Inten    --      7.2690                 3.3988                 2.1417

                     67                     68                     69
                      A                      A                      A
 Frequencies --   1494.5548              1499.2759              1500.9582
 Red. masses --      2.0455                 1.1603                 1.0843
 Frc consts  --      2.6920                 1.5367                 1.4393
 IR Inten    --      7.4716                 1.6071                 3.1743

                     70                     71                     72
                      A                      A                      A
 Frequencies --   1521.1231              1522.6780              1526.2671
 Red. masses --      1.1906                 1.0451                 1.1498
 Frc consts  --      1.6231                 1.4276                 1.5781
 IR Inten    --     18.7162                 3.5600                 5.6910

                     73                     74                     75
                      A                      A                      A
 Frequencies --   1528.9223              1530.6886              1545.1990
 Red. masses --      1.0971                 1.7875                 1.0919
 Frc consts  --      1.5111                 2.4675                 1.5361
 IR Inten    --      2.0585                15.7813                 9.4682

                     76                     77                     78
                      A                      A                      A
 Frequencies --   1629.5255              1658.5155              2341.5965
 Red. masses --      5.6772                 5.6996                12.6806
 Frc consts  --      8.8819                 9.2371                40.9651
 IR Inten    --      1.4245                 6.8822                29.9507

                     79                     80                     81
                      A                      A                      A
 Frequencies --   3043.2137              3048.5232              3049.4554
 Red. masses --      1.0584                 1.0387                 1.0585
 Frc consts  --      5.7752                 5.6877                 5.7994
 IR Inten    --      7.2486                30.5271                 7.0269

                     82                     83                     84
                      A                      A                      A
 Frequencies --   3053.3172              3072.1112              3074.3215
 Red. masses --      1.0688                 1.0617                 1.0616
 Frc consts  --      5.8705                 5.9037                 5.9118
 IR Inten    --     38.7767                22.4523                10.9342

                     85                     86                     87
                      A                      A                      A
 Frequencies --   3094.0897              3111.0556              3116.3692
 Red. masses --      1.1056                 1.1003                 1.1026
 Frc consts  --      6.2363                 6.2745                 6.3093
 IR Inten    --     15.6820                24.0455                14.0634

                     88                     89                     90
                      A                      A                      A
 Frequencies --   3121.1874              3135.3168              3140.4876
 Red. masses --      1.0942                 1.1018                 1.1042
 Frc consts  --      6.2801                 6.3815                 6.4163
 IR Inten    --     17.3333                 7.7258                35.4310

                     91                     92                     93
                      A                      A                      A
 Frequencies --   3151.5263              3187.3399              3201.1786
 Red. masses --      1.0999                 1.0874                 1.0893
 Frc consts  --      6.4364                 6.5085                 6.5770
 IR Inten    --     25.9058                 4.2307                 5.6447

                     94                     95                     96
                      A                      A                      A
 Frequencies --   3211.4652              3223.2811              3525.1382
 Red. masses --      1.0926                 1.0971                 1.0742
 Frc consts  --      6.6391                 6.7157                 7.8645
 IR Inten    --     13.2704                12.6235                 2.5477

 - Thermochemistry -
 -------------------
 Temperature   298.150 Kelvin.  Pressure   1.00000 Atm.
 Atom     1 has atomic number  6 and mass  12.00000

 Molecular mass:   234.11907 amu.
 Principal axes and moments of inertia in atomic units:
                           1         2         3
     Eigenvalues --  2129.928438221.413608843.21537
           X            0.99976   0.02041   0.00753
           Y           -0.02037   0.99978  -0.00492
           Z           -0.00763   0.00477   0.99996
 This molecule is an asymmetric top.
 Rotational symmetry number  1.
 Warning -- assumption of classical behavior for rotation
           may cause significant error
 Rotational temperatures (Kelvin)      0.04067     0.01054     0.00979
 Rotational constants (GHZ):           0.84732     0.21952     0.20408
 Zero-point vibrational energy     759367.5 (Joules/Mol)
                                  181.49319 (Kcal/Mol)
 Warning -- explicit consideration of  25 degrees of freedom as
           vibrations may cause significant error
 Vibrational temperatures:     26.73    41.43    65.25    88.23    91.26
          (Kelvin)            146.60   179.16   192.98   235.58   269.31
                              313.76   349.55   401.88   416.10   441.36
                              497.05   512.95   563.79   572.79   627.00
                              661.45   671.62   771.56   817.12   841.67
                              910.06   944.16  1025.26  1063.12  1073.99
                             1109.70  1114.24  1121.14  1191.58  1223.58
                             1266.11  1292.66  1340.86  1381.28  1420.57
                             1425.58  1437.00  1508.43  1540.82  1552.55
                             1573.13  1600.31  1628.40  1655.13  1686.64
                             1726.40  1742.48  1775.85  1779.86  1834.92
                             1867.08  1869.62  1904.64  1911.21  1955.06
                             1974.98  1997.06  2023.42  2060.07  2072.33
                             2140.67  2150.33  2157.12  2159.54  2188.56
                             2190.79  2195.96  2199.78  2202.32  2223.20
                             2344.52  2386.23  3369.04  4378.51  4386.14
                             4387.49  4393.04  4420.08  4423.26  4451.70
                             4476.12  4483.76  4490.69  4511.02  4518.46
                             4534.34  4585.87  4605.78  4620.58  4637.58
                             5071.89

 Zero-point correction=                           0.289228 (Hartree/Particle)
 Thermal correction to Energy=                    0.306292
 Thermal correction to Enthalpy=                  0.307236
 Thermal correction to Gibbs Free Energy=         0.242143
 Sum of electronic and zero-point Energies=          -1013.679249
 Sum of electronic and thermal Energies=             -1013.662185
 Sum of electronic and thermal Enthalpies=           -1013.661241
 Sum of electronic and thermal Free Energies=        -1013.726334

                     E (Thermal)             CV                S
                      KCal/Mol        Cal/Mol-Kelvin    Cal/Mol-Kelvin
 Total                  192.201             63.200            137.000
 Electronic               0.000              0.000              0.000
 Translational            0.889              2.981             42.254
 Rotational               0.889              2.981             33.404
 Vibrational            190.423             57.238             61.343
 Vibration     1          0.593              1.986              6.781
 Vibration     2          0.593              1.984              5.911
 Vibration     3          0.595              1.979              5.010
 Vibration     4          0.597              1.973              4.414
 Vibration     5          0.597              1.972              4.348
 Vibration     6          0.604              1.948              3.418
 Vibration     7          0.610              1.928              3.029
 Vibration     8          0.613              1.919              2.886
 Vibration     9          0.623              1.887              2.506
 Vibration    10          0.632              1.857              2.256
 Vibration    11          0.646              1.814              1.975
 Vibration    12          0.659              1.774              1.781
 Vibration    13          0.680              1.712              1.538
 Vibration    14          0.686              1.694              1.479
 Vibration    15          0.697              1.661              1.380
 Vibration    16          0.724              1.584              1.187
 Vibration    17          0.732              1.562              1.137
 Vibration    18          0.759              1.488              0.993
 Vibration    19          0.764              1.474              0.970
 Vibration    20          0.796              1.392              0.840
 Vibration    21          0.818              1.339              0.767
 Vibration    22          0.824              1.324              0.747
 Vibration    23          0.891              1.170              0.573
 Vibration    24          0.924              1.101              0.508
 Vibration    25          0.942              1.064              0.476

                           ! Non-Optimized Parameters !
 Normal termination of Gaussian 16 at Fri Dec 11 00:44:03 2020.

 ----------------------------------------------------------------------
 # B3LYP/6-311++G(d,p) empiricaldispersion=gd3bj scf=xqc pop=npa geom=c
 heck
 ----------------------------------------------------------------------

 ---------------------------------------
 CID_115768099_JID_6784_Energie_neutraal
 ---------------------------------------
 Structure from the checkpoint file:  "JID_6784.chk"
 Charge =  0 Multiplicity = 1

 SCF Done:  E(RB3LYP) =  -1014.16336818     A.U. after   15 cycles
 Normal termination of Gaussian 16 at Fri Dec 11 00:49:02 2020.

 ----------------------------------------------------------------------
 # B3LYP/6-311++G(d,p) empiricaldispersion=gd3bj scf=xqc pop=npa geom=c
 heck
 ----------------------------------------------------------------------

 -------------------------------------
 CID_115768099_JID_6784_Energie_kation
 -------------------------------------
 Structure from the checkpoint file:  "JID_6784.chk"
 Charge =  1 Multiplicity = 2

 SCF Done:  E(UB3LYP) =  -1013.87682356     A.U. after   23 cycles
 Normal termination of Gaussian 16 at Fri Dec 11 00:59:22 2020.
 Gaussian 16:  ES64L-G16RevA.03 25-Dec-2016

 ----------------------------------------------------------------------
 # B3LYP/6-311++G(d,p) empiricaldispersion=gd3bj scf=xqc pop=npa geom=c
 heck
 ----------------------------------------------------------------------

 ------------------------------------
 CID_115768099_JID_6784_Energie_anion
 ------------------------------------
 Structure from the checkpoint file:  "JID_6784.chk"
 Charge = -1 Multiplicity = 2

                         Standard orientation:
 ---------------------------------------------------------------------
 Center     Atomic      Atomic             Coordinates (Angstroms)
 Number     Number       Type             X           Y           Z
 ---------------------------------------------------------------------
      1          6           0        5.108666    0.933556    0.886115
      2          6           0        4.203854   -0.261578    1.173781
      3         16           0        3.552696   -1.091529   -0.332565
      4          6           0        2.321209    0.130592   -0.938970
      5          6           0        0.859165   -0.169371   -0.561062
      6          6           0        0.629571   -0.160044    0.955307
      7          7           0        0.023736    0.784839   -1.302239
      8          6           0       -1.267654    0.308063   -1.781986
      9          6           0       -2.241489   -0.217658   -0.735868
     10          6           0       -2.574094   -1.570683   -0.674976
     11          6           0       -3.435568   -2.063755    0.307184
     12          6           0       -3.987817   -1.201370    1.254662
     13          6           0       -3.675515    0.154894    1.216933
     14          6           0       -2.807978    0.643057    0.229485
     15          6           0       -2.462319    2.033427    0.220502
     16          7           0       -2.149753    3.154438    0.205572
     17          1           0        5.967639    0.634588    0.278022
     18          1           0        5.478553    1.366097    1.824235
     19          1           0        4.573270    1.721677    0.346067
     20          1           0        4.759476   -1.046301    1.697807
     21          1           0        3.365700    0.022313    1.817443
     22          1           0        2.607129    1.126974   -0.583234
     23          1           0        2.399959    0.149121   -2.028462
     24          1           0        0.618923   -1.169680   -0.943670
     25          1           0        0.838385    0.836245    1.366989
     26          1           0       -0.402924   -0.417830    1.202034
     27          1           0        1.286536   -0.881560    1.450303
     28          1           0       -0.081415    1.655990   -0.788564
     29          1           0       -1.734902    1.137814   -2.325331
     30          1           0       -1.087351   -0.488764   -2.513032
     31          1           0       -2.145828   -2.249099   -1.408098
     32          1           0       -3.673572   -3.123159    0.333076
     33          1           0       -4.657162   -1.581379    2.019969
     34          1           0       -4.093619    0.841710    1.945529
 ---------------------------------------------------------------------

 SCF Done:  E(UB3LYP) =  -1014.17321595     A.U. after   28 cycles

 The electronic state is 2-A.
 Alpha  occ. eigenvalues --  -88.74370 -14.18077 -14.15156 -10.11457 -10.09615
 Alpha  occ. eigenvalues --  -10.09545 -10.08627 -10.07849 -10.05360 -10.04726
 Alpha  occ. eigenvalues --  -10.04428 -10.04181 -10.03984 -10.03929 -10.03911
 Alpha  occ. eigenvalues --  -10.02461  -7.82992  -5.79386  -5.79017  -5.78368
 Alpha  occ. eigenvalues --   -0.79789  -0.75789  -0.72481  -0.71850  -0.67266
 Alpha  occ. eigenvalues --   -0.63271  -0.62450  -0.61333  -0.57249  -0.54510
 Alpha  occ. eigenvalues --   -0.50722  -0.49272  -0.47127  -0.46398  -0.40707
 Alpha  occ. eigenvalues --   -0.38056  -0.37537  -0.36954  -0.34987  -0.34474
 Alpha  occ. eigenvalues --   -0.32459  -0.32417  -0.32025  -0.30711  -0.30275
 Alpha  occ. eigenvalues --   -0.29264  -0.28300  -0.28120  -0.26325  -0.26199
 Alpha  occ. eigenvalues --   -0.24787  -0.24358  -0.23346  -0.22938  -0.22488
 Alpha  occ. eigenvalues --   -0.21305  -0.21104  -0.20518  -0.18658  -0.13563
 Alpha  occ. eigenvalues --   -0.12892  -0.12328  -0.10728   0.04414
 Alpha virt. eigenvalues --    0.05648   0.07833   0.08363   0.08666   0.09273
 Alpha virt. eigenvalues --    0.09735   0.10477   0.10611   0.11256   0.11662
 Alpha virt. eigenvalues --    0.11889   0.12209   0.12517   0.12626   0.13104

  Beta  occ. eigenvalues --  -88.74368 -14.18054 -14.14825 -10.11453 -10.09610
  Beta  occ. eigenvalues --  -10.09541 -10.08613 -10.07861 -10.05350 -10.04725
  Beta  occ. eigenvalues --  -10.04132 -10.04022 -10.03969 -10.03966 -10.03815
  Beta  occ. eigenvalues --  -10.02037  -7.82990  -5.79385  -5.79014  -5.78367
  Beta  occ. eigenvalues --   -0.79730  -0.75293  -0.72255  -0.71620  -0.67213
  Beta  occ. eigenvalues --   -0.62968  -0.61851  -0.61213  -0.57225  -0.54376
  Beta  occ. eigenvalues --   -0.50528  -0.48742  -0.47069  -0.46196  -0.40510
  Beta  occ. eigenvalues --   -0.38046  -0.37451  -0.36918  -0.34676  -0.34405
  Beta  occ. eigenvalues --   -0.32345  -0.32292  -0.31963  -0.30657  -0.30130
  Beta  occ. eigenvalues --   -0.29203  -0.28259  -0.28076  -0.26157  -0.25744
  Beta  occ. eigenvalues --   -0.24642  -0.24083  -0.23096  -0.22476  -0.22302
  Beta  occ. eigenvalues --   -0.21198  -0.20776  -0.19191  -0.18467  -0.13548
  Beta  occ. eigenvalues --   -0.12020  -0.10979  -0.09834
  Beta virt. eigenvalues --    0.05858   0.07777   0.08304   0.08627   0.09187
  Beta virt. eigenvalues --    0.09700   0.10297   0.10470   0.10659   0.11202
  Beta virt. eigenvalues --    0.11602   0.12063   0.12152   0.12437   0.12587

 Mulliken charges and spin densities:
               1          2
     1  C   -0.145061  -0.463226
     2  C   -0.460913   0.153956
     3  S    0.156703  -0.021235
     4  C    0.220875  -0.122861
     5  C   -0.670022   0.225086
     6  C   -0.751651  -0.167109
     7  N    0.205087  -0.047695
     8  C   -0.725307   0.003271
     9  C    0.380085   0.152397
    10  C   -0.223372  -0.049134
    11  C   -0.495642   0.306514
    12  C   -0.232765  -0.008759
    13  C   -0.268690   0.192879
    14  C    1.498042   0.282629
    15  C   -1.214265  -0.177348
    16  N   -0.336110   0.184249
    17  H    0.066592   0.058239
    18  H   -0.088959   0.204644
    19  H    0.034098   0.122178
    20  H    0.067385   0.106693
    21  H    0.175322  -0.010898
    22  H    0.095671  -0.032294
    23  H    0.253205   0.018921
    24  H    0.090196   0.005365
    25  H    0.104009   0.059167
    26  H    0.216046  -0.030071
    27  H    0.113102   0.020432
    28  H    0.188615   0.018890
    29  H    0.172908   0.034563
    30  H    0.116624  -0.000962
    31  H    0.096019   0.009377
    32  H    0.110735  -0.026714
    33  H    0.116352   0.003223
    34  H    0.135086  -0.004366
 Sum of Mulliken charges =  -1.00000   1.00000

 Dipole moment (field-independent basis, Debye):
    X=              5.1514    Y=             -3.8807    Z=             -0.2713  Tot=              6.4552
 Quadrupole moment (field-independent basis, Debye-Ang):
   XX=           -168.9028   YY=           -143.5407   ZZ=           -118.6819
   XY=              7.9184   XZ=              0.9278   YZ=             -0.6176

 Summary of Natural Population Analysis:

                                       Natural Population
                Natural  -----------------------------------------------
    Atom  No    Charge         Core      Valence    Rydberg      Total
 -----------------------------------------------------------------------
      C    1   -0.29057      0.99966     2.28524    0.00567     3.29057
      C    2   -0.25575      0.99961     2.24434    0.01180     3.25575
      S    3    0.07519      4.99963     2.90767    0.01751     7.92481
      C    4   -0.24639      0.99956     2.23690    0.00994     3.24639
      C    5   -0.01854      0.99959     2.00564    0.01331     3.01854
      C    6   -0.29852      0.99964     2.29344    0.00545     3.29852
      N    7   -0.34646      0.99973     2.83361    0.01312     3.84646
      C    8   -0.09162      0.99959     2.08127    0.01076     3.09162
      C    9    0.02541      0.99948     1.96486    0.01025     2.97459
      C   10   -0.12431      0.99952     2.11690    0.00789     3.12431
      C   11   -0.02231      0.99958     2.01355    0.00919     3.02231
      C   12   -0.12365      0.99957     2.11506    0.00903     3.12365
      C   13   -0.04933      0.99954     2.04178    0.00800     3.04933
      C   14   -0.05497      0.99937     2.04516    0.01044     3.05497
      C   15    0.14535      0.99965     1.83500    0.02001     2.85465
      N   16   -0.16696      0.99979     2.65617    0.01101     3.66696
      H   17    0.09816      0.00000     0.39992    0.00192     0.40184
      H   18    0.09755      0.00000     0.40090    0.00155     0.40245
      H   19    0.09891      0.00000     0.39970    0.00140     0.40109
      H   20    0.10139      0.00000     0.39752    0.00109     0.39861
      H   21    0.10341      0.00000     0.39532    0.00127     0.39659
      H   22    0.10042      0.00000     0.39777    0.00181     0.39958
      H   23    0.10964      0.00000     0.38922    0.00114     0.39036
      H   24    0.09219      0.00000     0.40622    0.00159     0.40781
      H   25    0.09437      0.00000     0.40449    0.00114     0.40563
      H   26    0.11560      0.00000     0.38334    0.00106     0.38440
      H   27    0.09666      0.00000     0.40222    0.00112     0.40334
      H   28    0.18362      0.00000     0.31353    0.00284     0.31638
      H   29    0.10179      0.00000     0.39700    0.00120     0.39821
      H   30    0.08783      0.00000     0.41105    0.00112     0.41217
      H   31    0.09081      0.00000     0.40782    0.00137     0.40919
      H   32    0.08493      0.00000     0.41352    0.00155     0.41507
      H   33    0.09155      0.00000     0.40742    0.00103     0.40845
      H   34    0.09460      0.00000     0.40449    0.00091     0.40540
 =======================================================================
   * Total *   -0.00000     19.99350    42.80801    0.19849    63.00000

 Normal termination of Gaussian 16 at Fri Dec 11 01:11:34 2020.
