 Gaussian 16, Revision A.03,

 -----------------------------------------------------------
 # opt freq B3LYP/6-31G(d) empiricaldispersion=gd3bj scf=xqc
 -----------------------------------------------------------

 ------------------------------
 CID_88658038_JID_1543_neutraal
 ------------------------------
 Symbolic Z-matrix:
 Charge =  0 Multiplicity = 1

 SCF Done:  E(RB3LYP) =  -481.923306005     A.U. after   14 cycles
 SCF Done:  E(RB3LYP) =  -481.926062108     A.U. after   12 cycles
 SCF Done:  E(RB3LYP) =  -481.926109656     A.U. after   12 cycles
 SCF Done:  E(RB3LYP) =  -481.926592906     A.U. after   12 cycles
 SCF Done:  E(RB3LYP) =  -481.926667020     A.U. after   11 cycles
 SCF Done:  E(RB3LYP) =  -481.926778354     A.U. after   12 cycles
 SCF Done:  E(RB3LYP) =  -481.926816053     A.U. after   12 cycles
 SCF Done:  E(RB3LYP) =  -481.926792493     A.U. after   10 cycles
 SCF Done:  E(RB3LYP) =  -481.927081963     A.U. after   13 cycles
 SCF Done:  E(RB3LYP) =  -481.924796173     A.U. after   14 cycles
 SCF Done:  E(RB3LYP) =  -481.927795700     A.U. after   11 cycles
 SCF Done:  E(RB3LYP) =  -481.927797689     A.U. after   10 cycles
 SCF Done:  E(RB3LYP) =  -481.927798292     A.U. after    8 cycles
 SCF Done:  E(RB3LYP) =  -481.927798451     A.U. after    8 cycles
 SCF Done:  E(RB3LYP) =  -481.927798513     A.U. after    8 cycles
 Optimization completed.
    -- Stationary point found.
 Normal termination of Gaussian 16 at Tue Dec  8 20:43:43 2020.

 --------------------------------------------------------------------
 #N Geom=AllCheck Guess=TCheck SCRF=Check GenChk RB3LYP/6-31G(d) Freq
 --------------------------------------------------------------------

 Structure from the checkpoint file:  "JID_1543.chk"
 ------------------------------
 CID_88658038_JID_1543_neutraal
 ------------------------------
 Charge =  0 Multiplicity = 1

 SCF Done:  E(RB3LYP) =  -481.927798513     A.U. after    1 cycles

  Exact polarizability: 107.818  -0.292 102.969   7.918   2.328  90.058
 Approx polarizability: 149.480  -5.854 155.350  17.672   4.176 135.400

                      1                      2                      3
                      A                      A                      A
 Frequencies --     19.1829                49.5552               130.7148
 Red. masses --      3.8486                 4.7386                 3.1212
 Frc consts  --      0.0008                 0.0069                 0.0314
 IR Inten    --      0.0526                 0.2181                 0.0589

                      4                      5                      6
                      A                      A                      A
 Frequencies --    178.9198               215.4024               223.4199
 Red. masses --      3.3563                 3.7584                 3.8442
 Frc consts  --      0.0633                 0.1027                 0.1131
 IR Inten    --      0.2522                 0.3830                 0.6269

                      7                      8                      9
                      A                      A                      A
 Frequencies --    292.1372               315.7074               360.9258
 Red. masses --      2.2279                 2.3870                 2.5440
 Frc consts  --      0.1120                 0.1402                 0.1953
 IR Inten    --      0.1786                 2.6469                 0.2257

                     10                     11                     12
                      A                      A                      A
 Frequencies --    396.6677               429.2898               436.4388
 Red. masses --      1.8369                 2.7964                 1.4760
 Frc consts  --      0.1703                 0.3036                 0.1656
 IR Inten    --      8.0248                10.6271                70.8211

                     13                     14                     15
                      A                      A                      A
 Frequencies --    491.4557               516.4978               586.7615
 Red. masses --      1.8789                 2.6443                 2.7307
 Frc consts  --      0.2674                 0.4156                 0.5539
 IR Inten    --      2.7254                19.0249                 7.7447

                     16                     17                     18
                      A                      A                      A
 Frequencies --    649.9258               696.2339               749.4741
 Red. masses --      2.7839                 2.0459                 1.5709
 Frc consts  --      0.6928                 0.5843                 0.5199
 IR Inten    --      7.2771                 1.6377                 0.3084

                     19                     20                     21
                      A                      A                      A
 Frequencies --    801.6081               812.6232               848.2591
 Red. masses --      1.5334                 3.0289                 2.2457
 Frc consts  --      0.5805                 1.1784                 0.9520
 IR Inten    --      0.7967                 6.1521                 6.9624

                     22                     23                     24
                      A                      A                      A
 Frequencies --    873.6872               888.0531               909.1088
 Red. masses --      2.4622                 1.5861                 4.7371
 Frc consts  --      1.1074                 0.7370                 2.3067
 IR Inten    --      0.2027                 7.6928                69.3211

                     25                     26                     27
                      A                      A                      A
 Frequencies --    917.6995               935.3610               955.2898
 Red. masses --      1.3128                 1.5300                 2.0817
 Frc consts  --      0.6514                 0.7887                 1.1193
 IR Inten    --     13.5843                19.2828                42.0052

                     28                     29                     30
                      A                      A                      A
 Frequencies --    956.9336              1008.4245              1044.0855
 Red. masses --      1.4550                 2.4127                 2.4712
 Frc consts  --      0.7850                 1.4456                 1.5872
 IR Inten    --      3.0666                21.9314                 4.3221

                     31                     32                     33
                      A                      A                      A
 Frequencies --   1054.5485              1056.5825              1107.0040
 Red. masses --      1.8332                 1.6615                 1.9941
 Frc consts  --      1.2011                 1.0929                 1.4398
 IR Inten    --      0.4128                 0.1449                 0.0386

                     34                     35                     36
                      A                      A                      A
 Frequencies --   1139.4346              1143.5513              1174.7817
 Red. masses --      1.5498                 1.0753                 1.5099
 Frc consts  --      1.1855                 0.8285                 1.2277
 IR Inten    --      1.0944                 0.3428                 2.0984

                     37                     38                     39
                      A                      A                      A
 Frequencies --   1248.5063              1297.2485              1303.6005
 Red. masses --      1.9402                 1.4191                 1.2834
 Frc consts  --      1.7819                 1.4070                 1.2850
 IR Inten    --      2.4443                 1.3991                 0.4559

                     40                     41                     42
                      A                      A                      A
 Frequencies --   1320.6732              1340.5573              1357.3864
 Red. masses --      1.3150                 1.4220                 1.4247
 Frc consts  --      1.3513                 1.5057                 1.5466
 IR Inten    --      0.1471                 0.6216                22.1778

                     43                     44                     45
                      A                      A                      A
 Frequencies --   1368.2061              1371.4906              1403.4028
 Red. masses --      1.3381                 1.3129                 1.3883
 Frc consts  --      1.4759                 1.4551                 1.6110
 IR Inten    --     24.6621                 6.8911                 1.5517

                     46                     47                     48
                      A                      A                      A
 Frequencies --   1405.5230              1406.8660              1410.5464
 Red. masses --      1.4216                 1.3800                 1.3219
 Frc consts  --      1.6546                 1.6093                 1.5496
 IR Inten    --      8.4473                 9.6982                33.8813

                     49                     50                     51
                      A                      A                      A
 Frequencies --   1416.9737              1470.9355              1511.6812
 Red. masses --      1.4244                 1.2228                 1.0880
 Frc consts  --      1.6850                 1.5588                 1.4648
 IR Inten    --      2.0241                11.1963                 2.1364

                     52                     53                     54
                      A                      A                      A
 Frequencies --   1517.2703              1523.0417              1528.0688
 Red. masses --      1.0893                 1.0885                 1.0848
 Frc consts  --      1.4775                 1.4877                 1.4924
 IR Inten    --      1.5527                 5.3934                 9.4713

                     55                     56                     57
                      A                      A                      A
 Frequencies --   1540.3837              1706.7223              1727.5517
 Red. masses --      1.0976                 5.0329                 6.2447
 Frc consts  --      1.5345                 8.6376                10.9805
 IR Inten    --      3.0192                 4.0176                 5.4215

                     58                     59                     60
                      A                      A                      A
 Frequencies --   3018.8175              3021.5490              3028.0958
 Red. masses --      1.0677                 1.0694                 1.0674
 Frc consts  --      5.7327                 5.7522                 5.7664
 IR Inten    --      6.9014                44.6691                 9.0880

                     61                     62                     63
                      A                      A                      A
 Frequencies --   3042.4576              3043.9151              3051.0886
 Red. masses --      1.0613                 1.0770                 1.0676
 Frc consts  --      5.7880                 5.8794                 5.8557
 IR Inten    --     18.7183                60.7793                44.2364

                     64                     65                     66
                      A                      A                      A
 Frequencies --   3066.2230              3072.4756              3082.3633
 Red. masses --      1.1013                 1.0938                 1.1026
 Frc consts  --      6.1004                 6.0839                 6.1724
 IR Inten    --     41.4912                56.1277                36.4922

                     67                     68                     69
                      A                      A                      A
 Frequencies --   3090.5773              3099.5974              3160.4527
 Red. masses --      1.0966                 1.0987                 1.0720
 Frc consts  --      6.1712                 6.2193                 6.3090
 IR Inten    --     22.1405                77.1159                17.6159

                     70                     71                     72
                      A                      A                      A
 Frequencies --   3162.9495              3252.8378              3753.1176
 Red. masses --      1.0762                 1.1141                 1.0676
 Frc consts  --      6.3436                 6.9454                 8.8601
 IR Inten    --      3.0053                 7.9325                63.0293

 - Thermochemistry -
 -------------------
 Temperature   298.150 Kelvin.  Pressure   1.00000 Atm.
 Atom     1 has atomic number  6 and mass  12.00000

 Molecular mass:   153.11536 amu.
 Principal axes and moments of inertia in atomic units:
                           1         2         3
     Eigenvalues --  1171.980492071.804852267.79798
           X            0.99964   0.02589   0.00720
           Y           -0.02602   0.99949   0.01849
           Z           -0.00671  -0.01867   0.99980
 This molecule is an asymmetric top.
 Rotational symmetry number  1.
 Warning -- assumption of classical behavior for rotation
           may cause significant error
 Rotational temperatures (Kelvin)      0.07390     0.04181     0.03819
 Rotational constants (GHZ):           1.53991     0.87110     0.79581
 Zero-point vibrational energy     607038.4 (Joules/Mol)
                                  145.08567 (Kcal/Mol)
 Warning -- explicit consideration of  15 degrees of freedom as
           vibrations may cause significant error
 Vibrational temperatures:     27.60    71.30   188.07   257.43   309.92
          (Kelvin)            321.45   420.32   454.23   519.29   570.72
                              617.65   627.94   707.10   743.13   844.22
                              935.10  1001.73  1078.33  1153.34  1169.18
                             1220.46  1257.04  1277.71  1308.00  1320.36
                             1345.78  1374.45  1376.81  1450.90  1502.21
                             1517.26  1520.19  1592.73  1639.39  1645.32
                             1690.25  1796.32  1866.45  1875.59  1900.15
                             1928.76  1952.98  1968.54  1973.27  2019.18
                             2022.23  2024.17  2029.46  2038.71  2116.35
                             2174.97  2183.01  2191.32  2198.55  2216.27
                             2455.59  2485.56  4343.41  4347.34  4356.75
                             4377.42  4379.51  4389.84  4411.61  4420.61
                             4434.83  4446.65  4459.63  4547.19  4550.78
                             4680.11  5399.90

 Zero-point correction=                           0.231209 (Hartree/Particle)
 Thermal correction to Energy=                    0.242048
 Thermal correction to Enthalpy=                  0.242992
 Thermal correction to Gibbs Free Energy=         0.193816
 Sum of electronic and zero-point Energies=           -481.696590
 Sum of electronic and thermal Energies=              -481.685751
 Sum of electronic and thermal Enthalpies=            -481.684807
 Sum of electronic and thermal Free Energies=         -481.733983

                     E (Thermal)             CV                S
                      KCal/Mol        Cal/Mol-Kelvin    Cal/Mol-Kelvin
 Total                  151.887             42.158            103.500
 Electronic               0.000              0.000              0.000
 Translational            0.889              2.981             40.988
 Rotational               0.889              2.981             30.089
 Vibrational            150.110             36.196             32.423
 Vibration     1          0.593              1.986              6.717
 Vibration     2          0.595              1.978              4.835
 Vibration     3          0.612              1.923              2.935
 Vibration     4          0.629              1.868              2.340
 Vibration     5          0.645              1.818              1.997
 Vibration     6          0.649              1.805              1.931
 Vibration     7          0.688              1.688              1.462
 Vibration     8          0.703              1.644              1.332
 Vibration     9          0.735              1.553              1.118
 Vibration    10          0.763              1.477              0.975
 Vibration    11          0.791              1.406              0.861
 Vibration    12          0.797              1.391              0.838
 Vibration    13          0.847              1.269              0.680
 Vibration    14          0.872              1.213              0.618
 Vibration    15          0.944              1.060              0.473

 Optimization completed.
    -- Stationary point found.
 Normal termination of Gaussian 16 at Tue Dec  8 20:50:46 2020.

 ----------------------------------------------------------------------
 # B3LYP/6-311++G(d,p) empiricaldispersion=gd3bj scf=xqc pop=npa geom=c
 heck
 ----------------------------------------------------------------------

 --------------------------------------
 CID_88658038_JID_1543_Energie_neutraal
 --------------------------------------
 Structure from the checkpoint file:  "JID_1543.chk"
 Charge =  0 Multiplicity = 1

 SCF Done:  E(RB3LYP) =  -482.069114924     A.U. after   14 cycles
 Normal termination of Gaussian 16 at Tue Dec  8 20:54:43 2020.

 ----------------------------------------------------------------------
 # B3LYP/6-311++G(d,p) empiricaldispersion=gd3bj scf=xqc pop=npa geom=c
 heck
 ----------------------------------------------------------------------

 ------------------------------------
 CID_88658038_JID_1543_Energie_kation
 ------------------------------------
 Structure from the checkpoint file:  "JID_1543.chk"
 Charge =  1 Multiplicity = 2

 SCF Done:  E(UB3LYP) =  -481.748164323     A.U. after   22 cycles
 Normal termination of Gaussian 16 at Tue Dec  8 21:01:37 2020.
 Gaussian 16:  ES64L-G16RevA.03 25-Dec-2016

 ----------------------------------------------------------------------
 # B3LYP/6-311++G(d,p) empiricaldispersion=gd3bj scf=xqc pop=npa geom=c
 heck
 ----------------------------------------------------------------------

 -----------------------------------
 CID_88658038_JID_1543_Energie_anion
 -----------------------------------
 Structure from the checkpoint file:  "JID_1543.chk"
 Charge = -1 Multiplicity = 2

                         Standard orientation:
 ---------------------------------------------------------------------
 Center     Atomic      Atomic             Coordinates (Angstroms)
 Number     Number       Type             X           Y           Z
 ---------------------------------------------------------------------
      1          6           0        1.866785    1.738453    0.221196
      2          6           0        0.944130    0.929482   -0.311639
      3          6           0        1.372222   -0.309161   -1.002400
      4          7           0        2.061516   -1.294619   -0.560219
      5          8           0        2.411425   -1.147012    0.796623
      6          6           0       -0.542494    1.285407   -0.239840
      7          6           0       -1.442831    0.602036   -1.293551
      8          6           0       -1.731569   -0.883704   -1.013326
      9          6           0       -2.231767   -1.113231    0.418760
     10          6           0       -1.273599   -0.496381    1.445849
     11          6           0       -1.095627    1.001796    1.178587
     12          1           0        2.921888    1.487292    0.212865
     13          1           0        1.586212    2.678391    0.691746
     14          1           0        1.074162   -0.443076   -2.041868
     15          1           0        2.864024   -1.986860    0.971618
     16          1           0       -0.608346    2.368611   -0.403219
     17          1           0       -2.398631    1.143468   -1.300156
     18          1           0       -1.018483    0.725972   -2.298327
     19          1           0       -0.826326   -1.481356   -1.166045
     20          1           0       -2.470254   -1.249004   -1.737941
     21          1           0       -2.357381   -2.187184    0.603382
     22          1           0       -3.224793   -0.654633    0.537577
     23          1           0       -0.296118   -0.994957    1.398662
     24          1           0       -1.657267   -0.649325    2.462181
     25          1           0       -0.430688    1.452312    1.923358
     26          1           0       -2.071512    1.500593    1.272897
 ---------------------------------------------------------------------

 SCF Done:  E(UB3LYP) =  -482.053972105     A.U. after   33 cycles
 SCF Done:  E(UB3LYP) =  -482.053972105     a.u. after    1 cycles

 The electronic state is 2-A.
 Alpha  occ. eigenvalues --  -19.05075 -14.24503 -10.08969 -10.06214 -10.05981
 Alpha  occ. eigenvalues --  -10.04879 -10.04820 -10.04695 -10.04575 -10.04508
 Alpha  occ. eigenvalues --  -10.04087  -0.96952  -0.75662  -0.71941  -0.66586
 Alpha  occ. eigenvalues --   -0.62527  -0.60871  -0.51772  -0.49607  -0.49099
 Alpha  occ. eigenvalues --   -0.45089  -0.42719  -0.37570  -0.36198  -0.35777
 Alpha  occ. eigenvalues --   -0.33628  -0.32813  -0.31484  -0.30747  -0.29946
 Alpha  occ. eigenvalues --   -0.27304  -0.26595  -0.26220  -0.25648  -0.22990
 Alpha  occ. eigenvalues --   -0.22774  -0.20649  -0.19284  -0.18652  -0.16390
 Alpha  occ. eigenvalues --   -0.16011  -0.12896   0.05066
 Alpha virt. eigenvalues --    0.07299   0.07614   0.08347   0.08606   0.09664
 Alpha virt. eigenvalues --    0.10263   0.10776   0.11076   0.11349   0.12739
 Alpha virt. eigenvalues --    0.13231   0.13665   0.14149   0.14601   0.15210

  Beta  occ. eigenvalues --  -19.05055 -14.24403 -10.08925 -10.06163 -10.05976
  Beta  occ. eigenvalues --  -10.04856 -10.04805 -10.04674 -10.04557 -10.04495
  Beta  occ. eigenvalues --  -10.03963  -0.96867  -0.75518  -0.71880  -0.66449
  Beta  occ. eigenvalues --   -0.62483  -0.60760  -0.51523  -0.49528  -0.49032
  Beta  occ. eigenvalues --   -0.44967  -0.42618  -0.37474  -0.36128  -0.35676
  Beta  occ. eigenvalues --   -0.33517  -0.32768  -0.31435  -0.30651  -0.29751
  Beta  occ. eigenvalues --   -0.27181  -0.26542  -0.26171  -0.25603  -0.22915
  Beta  occ. eigenvalues --   -0.22706  -0.20574  -0.19186  -0.18606  -0.16233
  Beta  occ. eigenvalues --   -0.15753  -0.12368
  Beta virt. eigenvalues --    0.07326   0.08065   0.08622   0.09032   0.09221
  Beta virt. eigenvalues --    0.10222   0.10632   0.11109   0.11416   0.11702
  Beta virt. eigenvalues --    0.13102   0.13583   0.14108   0.14579   0.14937

 Mulliken charges and spin densities:
               1          2
     1  C    0.532275  -1.089728
     2  C   -0.509947   1.020743
     3  C    0.595672  -1.188728
     4  N   -0.337409   0.170750
     5  O   -0.087457  -0.019008
     6  C   -0.562647   1.155698
     7  C    0.456097  -1.182360
     8  C   -0.179302   0.060952
     9  C    0.681648  -1.209982
    10  C   -0.684921   0.405939
    11  C    0.831386  -1.329856
    12  H    0.065464   0.060007
    13  H   -0.049994   0.156444
    14  H    0.007687   0.226936
    15  H    0.101701   0.156610
    16  H   -0.531523   0.780180
    17  H   -0.506256   0.665241
    18  H   -0.060858   0.213656
    19  H    0.095015   0.055561
    20  H   -0.551566   0.732281
    21  H   -0.192325   0.340819
    22  H    0.023670   0.094418
    23  H    0.110062   0.018163
    24  H   -0.108760   0.274190
    25  H    0.167275  -0.018016
    26  H   -0.304988   0.449090
 Sum of Mulliken charges =  -1.00000   1.00000

 Dipole moment (field-independent basis, Debye):
    X=              3.4399    Y=             -2.1450    Z=              2.0849  Tot=              4.5586
 Quadrupole moment (field-independent basis, Debye-Ang):
   XX=           -116.1605   YY=           -106.7891   ZZ=            -99.5182
   XY=              1.2755   XZ=             -0.9370   YZ=              0.0503

 Summary of Natural Population Analysis:

                                       Natural Population
                Natural  -----------------------------------------------
    Atom  No    Charge         Core      Valence    Rydberg      Total
 -----------------------------------------------------------------------
      C    1   -0.14719      0.99950     2.14145    0.00624     3.14719
      C    2   -0.03420      0.99948     2.02211    0.01262     3.03420
      C    3    0.02869      0.99958     1.95311    0.01862     2.97131
      N    4   -0.07823      0.99965     2.56384    0.01474     3.57823
      O    5   -0.28884      0.99990     3.28141    0.00753     4.28884
      C    6   -0.12111      0.99956     2.10751    0.01404     3.12111
      C    7   -0.18906      0.99962     2.17932    0.01012     3.18906
      C    8   -0.19326      0.99962     2.18525    0.00839     3.19326
      C    9   -0.18712      0.99963     2.17958    0.00791     3.18712
      C   10   -0.19574      0.99962     2.18766    0.00846     3.19574
      C   11   -0.18142      0.99961     2.17253    0.00928     3.18142
      H   12    0.09354      0.00000     0.40539    0.00106     0.40646
      H   13    0.08953      0.00000     0.40948    0.00099     0.41047
      H   14    0.09770      0.00000     0.40029    0.00201     0.40230
      H   15    0.22975      0.00000     0.26685    0.00340     0.27025
      H   16    0.10719      0.00000     0.38928    0.00353     0.39281
      H   17    0.09979      0.00000     0.39833    0.00187     0.40021
      H   18    0.09803      0.00000     0.40057    0.00140     0.40197
      H   19    0.09764      0.00000     0.40075    0.00161     0.40236
      H   20    0.09828      0.00000     0.40025    0.00146     0.40172
      H   21    0.09500      0.00000     0.40401    0.00099     0.40500
      H   22    0.09114      0.00000     0.40747    0.00139     0.40886
      H   23    0.10149      0.00000     0.39657    0.00193     0.39851
      H   24    0.09466      0.00000     0.40442    0.00091     0.40534
      H   25    0.09886      0.00000     0.39999    0.00115     0.40114
      H   26    0.09485      0.00000     0.40360    0.00156     0.40515
 =======================================================================
   * Total *   -0.00000     10.99576    30.86101    0.14323    42.00000

 Normal termination of Gaussian 16 at Tue Dec  8 21:11:58 2020.
