 Gaussian 16, Revision A.03,

 -----------------------------------------------------------
 # opt freq B3LYP/6-31G(d) empiricaldispersion=gd3bj scf=xqc
 -----------------------------------------------------------

 ------------------------------
 CID_82495487_JID_7004_neutraal
 ------------------------------
 Symbolic Z-matrix:
 Charge =  0 Multiplicity = 1

 SCF Done:  E(RB3LYP) =  -745.127029075     A.U. after   15 cycles
 SCF Done:  E(RB3LYP) =  -745.132550119     A.U. after   12 cycles
 SCF Done:  E(RB3LYP) =  -745.133313417     A.U. after   12 cycles
 SCF Done:  E(RB3LYP) =  -745.133470173     A.U. after   11 cycles
 SCF Done:  E(RB3LYP) =  -745.133528783     A.U. after   10 cycles
 SCF Done:  E(RB3LYP) =  -745.133560662     A.U. after   10 cycles
 SCF Done:  E(RB3LYP) =  -745.133575302     A.U. after   10 cycles
 SCF Done:  E(RB3LYP) =  -745.133583330     A.U. after   10 cycles
 SCF Done:  E(RB3LYP) =  -745.133587471     A.U. after    9 cycles
 SCF Done:  E(RB3LYP) =  -745.133588795     A.U. after    8 cycles
 SCF Done:  E(RB3LYP) =  -745.133589336     A.U. after    8 cycles
 SCF Done:  E(RB3LYP) =  -745.133589572     A.U. after    8 cycles
 SCF Done:  E(RB3LYP) =  -745.133589645     A.U. after    7 cycles
 Optimization completed.
    -- Stationary point found.
 Normal termination of Gaussian 16 at Sun Dec 13 16:04:48 2020.

 --------------------------------------------------------------------
 #N Geom=AllCheck Guess=TCheck SCRF=Check GenChk RB3LYP/6-31G(d) Freq
 --------------------------------------------------------------------

 Structure from the checkpoint file:  "JID_7004.chk"
 ------------------------------
 CID_82495487_JID_7004_neutraal
 ------------------------------
 Charge =  0 Multiplicity = 1

 SCF Done:  E(RB3LYP) =  -745.133589645     A.U. after    1 cycles

  Exact polarizability: 196.446  -8.720 152.060 -22.856  -4.184 109.136
 Approx polarizability: 258.755 -20.095 260.529 -48.450 -12.702 179.442

                      1                      2                      3
                      A                      A                      A
 Frequencies --     24.4455                40.6655                70.8313
 Red. masses --      4.0409                 4.4449                 3.7792
 Frc consts  --      0.0014                 0.0043                 0.0112
 IR Inten    --      0.1418                 0.2025                 0.2818

                      4                      5                      6
                      A                      A                      A
 Frequencies --     84.5382               129.8839               157.0106
 Red. masses --      3.1317                 2.4764                 3.6055
 Frc consts  --      0.0132                 0.0246                 0.0524
 IR Inten    --      0.1680                 0.5669                 0.3763

                      7                      8                      9
                      A                      A                      A
 Frequencies --    200.0681               234.4801               256.2821
 Red. masses --      3.0935                 3.7063                 4.9447
 Frc consts  --      0.0730                 0.1201                 0.1914
 IR Inten    --      0.2449                 0.1806                 1.8477

                     10                     11                     12
                      A                      A                      A
 Frequencies --    307.1734               346.1199               364.9078
 Red. masses --      4.4741                 2.7862                 3.2502
 Frc consts  --      0.2487                 0.1967                 0.2550
 IR Inten    --      0.8893                 7.1882                 3.8418

                     13                     14                     15
                      A                      A                      A
 Frequencies --    409.4179               417.2547               441.8809
 Red. masses --      3.9401                 2.8656                 2.7113
 Frc consts  --      0.3891                 0.2939                 0.3119
 IR Inten    --      2.6724                 4.6660                11.7720

                     16                     17                     18
                      A                      A                      A
 Frequencies --    446.6945               462.9434               523.5011
 Red. masses --      2.2120                 2.5301                 3.4715
 Frc consts  --      0.2600                 0.3195                 0.5605
 IR Inten    --      4.2946                 3.4875                 7.1471

                     19                     20                     21
                      A                      A                      A
 Frequencies --    565.9736               593.6875               620.5350
 Red. masses --      1.7088                 3.2053                 5.2502
 Frc consts  --      0.3225                 0.6656                 1.1911
 IR Inten    --      9.1169                 3.9762                 1.1374

                     22                     23                     24
                      A                      A                      A
 Frequencies --    634.9573               698.9017               725.3455
 Red. masses --      3.5095                 3.4378                 2.1294
 Frc consts  --      0.8337                 0.9894                 0.6601
 IR Inten    --      8.8457                32.6080               114.4414

                     25                     26                     27
                      A                      A                      A
 Frequencies --    748.1546               766.8855               781.8586
 Red. masses --      1.7600                 3.4804                 3.0435
 Frc consts  --      0.5804                 1.2060                 1.0962
 IR Inten    --      1.7784                 6.4446                 7.7835

                     28                     29                     30
                      A                      A                      A
 Frequencies --    794.2834               826.6343               848.3199
 Red. masses --      2.7260                 4.4183                 1.5885
 Frc consts  --      1.0133                 1.7788                 0.6735
 IR Inten    --     23.2714                 5.3279                 7.7936

                     31                     32                     33
                      A                      A                      A
 Frequencies --    858.8000               872.9798               887.2314
 Red. masses --      1.5142                 2.7763                 1.5282
 Frc consts  --      0.6580                 1.2466                 0.7088
 IR Inten    --     33.1721                 1.0225                28.5477

                     34                     35                     36
                      A                      A                      A
 Frequencies --    904.1536               935.0374               948.1348
 Red. masses --      1.9602                 5.7371                 3.2707
 Frc consts  --      0.9441                 2.9553                 1.7323
 IR Inten    --      8.4210                11.1090                 3.2931

                     37                     38                     39
                      A                      A                      A
 Frequencies --    954.0239               962.6291               975.2353
 Red. masses --      2.7144                 1.3170                 1.8475
 Frc consts  --      1.4556                 0.7191                 1.0353
 IR Inten    --      7.6009                 0.1821                 9.1927

                     40                     41                     42
                      A                      A                      A
 Frequencies --    998.0624              1035.6713              1066.2682
 Red. masses --      2.1026                 2.1626                 2.2940
 Frc consts  --      1.2340                 1.3667                 1.5367
 IR Inten    --      3.2014                10.6692                 9.6578

                     43                     44                     45
                      A                      A                      A
 Frequencies --   1093.1746              1097.7935              1126.1236
 Red. masses --      2.8598                 4.9723                 2.2108
 Frc consts  --      2.0136                 3.5306                 1.6518
 IR Inten    --     37.8981                34.5430                18.3819

                     46                     47                     48
                      A                      A                      A
 Frequencies --   1130.2486              1143.0662              1157.5609
 Red. masses --      2.3207                 2.0619                 1.6344
 Frc consts  --      1.7467                 1.5873                 1.2903
 IR Inten    --     36.6034                35.3424                 3.4740

                     49                     50                     51
                      A                      A                      A
 Frequencies --   1169.1749              1201.1482              1218.3272
 Red. masses --      1.9245                 3.3250                 1.6830
 Frc consts  --      1.5500                 2.8264                 1.4718
 IR Inten    --      8.2466                30.0872                 0.5915

                     52                     53                     54
                      A                      A                      A
 Frequencies --   1252.9626              1266.9447              1280.1664
 Red. masses --      1.2187                 1.2627                 6.2008
 Frc consts  --      1.1272                 1.1942                 5.9873
 IR Inten    --      4.0651                 6.4234                48.4967

                     55                     56                     57
                      A                      A                      A
 Frequencies --   1301.7548              1319.6535              1337.2606
 Red. masses --      1.4546                 1.2880                 1.7096
 Frc consts  --      1.4523                 1.3215                 1.8012
 IR Inten    --     12.7769                 1.3293                 9.2487

                     58                     59                     60
                      A                      A                      A
 Frequencies --   1342.9315              1359.0743              1371.1835
 Red. masses --      1.3651                 1.7573                 1.2945
 Frc consts  --      1.4505                 1.9124                 1.4340
 IR Inten    --      6.4559                 5.6396                 2.6090

                     61                     62                     63
                      A                      A                      A
 Frequencies --   1385.0459              1394.9738              1401.6972
 Red. masses --      1.2567                 1.2495                 2.4553
 Frc consts  --      1.4204                 1.4326                 2.8423
 IR Inten    --     32.1537                 2.2906                 9.1603

                     64                     65                     66
                      A                      A                      A
 Frequencies --   1407.4655              1416.6110              1430.9439
 Red. masses --      1.3691                 1.2913                 1.3083
 Frc consts  --      1.5980                 1.5268                 1.5784
 IR Inten    --      5.4177                 6.7465                10.3405

                     67                     68                     69
                      A                      A                      A
 Frequencies --   1450.0414              1481.7676              1499.5825
 Red. masses --      1.3271                 3.1409                 1.0764
 Frc consts  --      1.6440                 4.0631                 1.4262
 IR Inten    --      7.9676                25.8568                 2.3879

                     70                     71                     72
                      A                      A                      A
 Frequencies --   1505.4536              1509.6097              1511.8961
 Red. masses --      1.1148                 1.1050                 1.1820
 Frc consts  --      1.4886                 1.4837                 1.5919
 IR Inten    --      6.7046                 3.0097                11.6703

                     73                     74                     75
                      A                      A                      A
 Frequencies --   1520.0127              1526.8338              1528.1536
 Red. masses --      1.1728                 1.7608                 1.3040
 Frc consts  --      1.5965                 2.4184                 1.7942
 IR Inten    --      6.0215                 0.3571                 7.3368

                     76                     77                     78
                      A                      A                      A
 Frequencies --   1537.5135              1576.3406              1647.3103
 Red. masses --      1.1739                 6.7776                 7.5266
 Frc consts  --      1.6351                 9.9226                12.0338
 IR Inten    --     21.1093                43.3189                 5.4371

                     79                     80                     81
                      A                      A                      A
 Frequencies --   1680.3902              2934.8698              2966.4760
 Red. masses --      7.4246                 1.0718                 1.0734
 Frc consts  --     12.3522                 5.4395                 5.5654
 IR Inten    --      6.5647                43.1511                43.7378

                     82                     83                     84
                      A                      A                      A
 Frequencies --   3024.4896              3033.0012              3042.1632
 Red. masses --      1.0630                 1.0624                 1.0666
 Frc consts  --      5.7292                 5.7580                 5.8158
 IR Inten    --     20.7393                58.4095                99.1087

                     85                     86                     87
                      A                      A                      A
 Frequencies --   3051.1585              3063.1657              3063.5793
 Red. masses --      1.0614                 1.0884                 1.0988
 Frc consts  --      5.8219                 6.0171                 6.0762
 IR Inten    --     35.0121                45.0355                20.6934

                     88                     89                     90
                      A                      A                      A
 Frequencies --   3083.2027              3093.6072              3097.9820
 Red. masses --      1.1028                 1.0997                 1.0993
 Frc consts  --      6.1768                 6.2008                 6.2162
 IR Inten    --     24.1318                 4.3561                56.4939

                     91                     92                     93
                      A                      A                      A
 Frequencies --   3101.9825              3197.6913              3215.3214
 Red. masses --      1.0942                 1.0881                 1.0915
 Frc consts  --      6.2031                 6.5553                 6.6487
 IR Inten    --     44.4433                10.2666                 6.3810

                     94                     95                     96
                      A                      A                      A
 Frequencies --   3223.4988              3292.6809              3494.9907
 Red. masses --      1.0941                 1.0989                 1.0736
 Frc consts  --      6.6984                 7.0198                 7.7262
 IR Inten    --      7.5281                 0.1741                 1.4547

 - Thermochemistry -
 -------------------
 Temperature   298.150 Kelvin.  Pressure   1.00000 Atm.
 Atom     1 has atomic number  6 and mass  12.00000

 Molecular mass:   231.13716 amu.
 Principal axes and moments of inertia in atomic units:
                           1         2         3
     Eigenvalues --  1587.493907935.133578502.73159
           X            0.99999   0.00416   0.00190
           Y           -0.00415   0.99998  -0.00373
           Z           -0.00191   0.00372   0.99999
 This molecule is an asymmetric top.
 Rotational symmetry number  1.
 Warning -- assumption of classical behavior for rotation
           may cause significant error
 Rotational temperatures (Kelvin)      0.05456     0.01092     0.01019
 Rotational constants (GHZ):           1.13685     0.22744     0.21225
 Zero-point vibrational energy     768492.5 (Joules/Mol)
                                  183.67412 (Kcal/Mol)
 Warning -- explicit consideration of  21 degrees of freedom as
           vibrations may cause significant error
 Vibrational temperatures:     35.17    58.51   101.91   121.63   186.87
          (Kelvin)            225.90   287.85   337.36   368.73   441.95
                              497.99   525.02   589.06   600.34   635.77
                              642.69   666.07   753.20   814.31   854.18
                              892.81   913.56  1005.56  1043.61  1076.43
                             1103.38  1124.92  1142.80  1189.34  1220.54
                             1235.62  1256.02  1276.53  1300.88  1345.31
                             1364.15  1372.63  1385.01  1403.15  1435.99
                             1490.10  1534.12  1572.83  1579.48  1620.24
                             1626.18  1644.62  1665.47  1682.18  1728.18
                             1752.90  1802.73  1822.85  1841.87  1872.93
                             1898.69  1924.02  1932.18  1955.40  1972.83
                             1992.77  2007.06  2016.73  2025.03  2038.19
                             2058.81  2086.29  2131.93  2157.56  2166.01
                             2171.99  2175.28  2186.96  2196.77  2198.67
                             2212.14  2268.00  2370.11  2417.71  4222.62
                             4268.10  4351.57  4363.81  4376.99  4389.94
                             4407.21  4407.81  4436.04  4451.01  4457.31
                             4463.06  4600.76  4626.13  4637.90  4737.43
                             5028.51

 Zero-point correction=                           0.292703 (Hartree/Particle)
 Thermal correction to Energy=                    0.306674
 Thermal correction to Enthalpy=                  0.307618
 Thermal correction to Gibbs Free Energy=         0.250457
 Sum of electronic and zero-point Energies=           -744.840886
 Sum of electronic and thermal Energies=              -744.826916
 Sum of electronic and thermal Enthalpies=            -744.825972
 Sum of electronic and thermal Free Energies=         -744.883133

                     E (Thermal)             CV                S
                      KCal/Mol        Cal/Mol-Kelvin    Cal/Mol-Kelvin
 Total                  192.441             55.928            120.305
 Electronic               0.000              0.000              0.000
 Translational            0.889              2.981             42.215
 Rotational               0.889              2.981             33.038
 Vibrational            190.663             49.967             45.052
 Vibration     1          0.593              1.985              6.236
 Vibration     2          0.594              1.981              5.226
 Vibration     3          0.598              1.968              4.130
 Vibration     4          0.601              1.960              3.783
 Vibration     5          0.612              1.923              2.948
 Vibration     6          0.621              1.895              2.585
 Vibration     7          0.638              1.840              2.132
 Vibration     8          0.654              1.788              1.844
 Vibration     9          0.666              1.752              1.687
 Vibration    10          0.697              1.660              1.378
 Vibration    11          0.724              1.583              1.184
 Vibration    12          0.738              1.544              1.101
 Vibration    13          0.774              1.450              0.929
 Vibration    14          0.780              1.433              0.901
 Vibration    15          0.802              1.379              0.821
 Vibration    16          0.806              1.368              0.806
 Vibration    17          0.821              1.332              0.758
 Vibration    18          0.878              1.198              0.602
 Vibration    19          0.922              1.105              0.512
 Vibration    20          0.951              1.045              0.461
 Vibration    21          0.981              0.989              0.416

 Optimization completed.
    -- Stationary point found.
 Normal termination of Gaussian 16 at Sun Dec 13 16:17:18 2020.

 ----------------------------------------------------------------------
 # B3LYP/6-311++G(d,p) empiricaldispersion=gd3bj scf=xqc pop=npa geom=c
 heck
 ----------------------------------------------------------------------

 --------------------------------------
 CID_82495487_JID_7004_Energie_neutraal
 --------------------------------------
 Structure from the checkpoint file:  "JID_7004.chk"
 Charge =  0 Multiplicity = 1

 SCF Done:  E(RB3LYP) =  -745.331985632     A.U. after   15 cycles
 Normal termination of Gaussian 16 at Sun Dec 13 16:23:36 2020.

 ----------------------------------------------------------------------
 # B3LYP/6-311++G(d,p) empiricaldispersion=gd3bj scf=xqc pop=npa geom=c
 heck
 ----------------------------------------------------------------------

 ------------------------------------
 CID_82495487_JID_7004_Energie_kation
 ------------------------------------
 Structure from the checkpoint file:  "JID_7004.chk"
 Charge =  1 Multiplicity = 2

 SCF Done:  E(UB3LYP) =  -745.053048029     A.U. after   24 cycles
 Normal termination of Gaussian 16 at Sun Dec 13 16:37:49 2020.
 Gaussian 16:  ES64L-G16RevA.03 25-Dec-2016

 ----------------------------------------------------------------------
 # B3LYP/6-311++G(d,p) empiricaldispersion=gd3bj scf=xqc pop=npa geom=c
 heck
 ----------------------------------------------------------------------

 -----------------------------------
 CID_82495487_JID_7004_Energie_anion
 -----------------------------------
 Structure from the checkpoint file:  "JID_7004.chk"
 Charge = -1 Multiplicity = 2

                         Standard orientation:
 ---------------------------------------------------------------------
 Center     Atomic      Atomic             Coordinates (Angstroms)
 Number     Number       Type             X           Y           Z
 ---------------------------------------------------------------------
      1          6           0       -3.113788   -1.846043   -0.051129
      2          6           0       -4.315490   -0.935755   -0.385176
      3          7           0       -4.071101    0.212961   -1.253222
      4          6           0       -3.490711    1.370224   -0.583505
      5          6           0       -2.038921    1.274458   -0.089958
      6          7           0       -1.794600    0.130192    0.787415
      7          6           0       -1.758160   -1.133071    0.041637
      8          6           0       -0.637284    0.317347    1.675641
      9          6           0        0.722356    0.402341    0.996500
     10          6           0        1.507775   -0.749468    0.857669
     11          6           0        2.703420   -0.608210    0.172321
     12          6           0        3.156349    0.602228   -0.368038
     13          6           0        2.382947    1.754816   -0.218283
     14          6           0        1.176543    1.631067    0.465960
     15          7           0        4.398169    0.385107   -0.980952
     16          6           0        4.620420   -0.871500   -0.790795
     17          8           0        3.656037   -1.564193   -0.101586
     18          1           0       -3.015965   -2.633651   -0.811641
     19          1           0       -3.324404   -2.356722    0.897603
     20          1           0       -5.106917   -1.550566   -0.833973
     21          1           0       -4.727171   -0.532458    0.545864
     22          1           0       -3.526936   -0.049299   -2.072824
     23          1           0       -4.135037    1.595550    0.274907
     24          1           0       -3.553616    2.229486   -1.265272
     25          1           0       -1.821640    2.192901    0.469796
     26          1           0       -1.355292    1.265954   -0.960852
     27          1           0       -1.053810   -1.813805    0.528894
     28          1           0       -1.354365   -0.965623   -0.972073
     29          1           0       -0.815377    1.231253    2.253690
     30          1           0       -0.634562   -0.515663    2.387672
     31          1           0        1.200606   -1.702376    1.275498
     32          1           0        2.719592    2.706923   -0.614570
     33          1           0        0.561061    2.514139    0.608811
     34          1           0        5.475533   -1.450941   -1.108590
 ---------------------------------------------------------------------

 SCF Done:  E(UB3LYP) =  -745.324707125     A.U. after   33 cycles
 SCF Done:  E(UB3LYP) =  -745.324707125     a.u. after    1 cycles

 The electronic state is 2-A.
 Alpha  occ. eigenvalues --  -19.07252 -14.19877 -14.19794 -14.19108 -10.13030
 Alpha  occ. eigenvalues --  -10.10980 -10.09246 -10.09000 -10.08649 -10.08622
 Alpha  occ. eigenvalues --  -10.08412 -10.07534 -10.06238 -10.05473 -10.05180
 Alpha  occ. eigenvalues --  -10.05113 -10.05098  -1.00610  -0.82736  -0.80476
 Alpha  occ. eigenvalues --   -0.79572  -0.73343  -0.67632  -0.64959  -0.63391
 Alpha  occ. eigenvalues --   -0.60776  -0.57977  -0.55480  -0.52293  -0.49563
 Alpha  occ. eigenvalues --   -0.48616  -0.47901  -0.45069  -0.40449  -0.39702
 Alpha  occ. eigenvalues --   -0.39438  -0.37619  -0.36630  -0.36453  -0.35550
 Alpha  occ. eigenvalues --   -0.34991  -0.33311  -0.32590  -0.31472  -0.30713
 Alpha  occ. eigenvalues --   -0.29601  -0.29304  -0.27461  -0.27225  -0.25766
 Alpha  occ. eigenvalues --   -0.24968  -0.24094  -0.24042  -0.23590  -0.23251
 Alpha  occ. eigenvalues --   -0.22317  -0.21135  -0.17620  -0.13212  -0.12696
 Alpha  occ. eigenvalues --   -0.12254  -0.10720   0.04763
 Alpha virt. eigenvalues --    0.06568   0.07319   0.07828   0.08185   0.08710
 Alpha virt. eigenvalues --    0.09484   0.09972   0.10339   0.10847   0.11174
 Alpha virt. eigenvalues --    0.11419   0.12287   0.12806   0.13235   0.13408

  Beta  occ. eigenvalues --  -19.07164 -14.19870 -14.19773 -14.19104 -10.12724
  Beta  occ. eigenvalues --  -10.11027 -10.09238 -10.08985 -10.08647 -10.08612
  Beta  occ. eigenvalues --  -10.08410 -10.07456 -10.06221 -10.05527 -10.05004
  Beta  occ. eigenvalues --  -10.04949 -10.04932  -1.00415  -0.82701  -0.80296
  Beta  occ. eigenvalues --   -0.79537  -0.73110  -0.67604  -0.64730  -0.63157
  Beta  occ. eigenvalues --   -0.60617  -0.57937  -0.55315  -0.52100  -0.49493
  Beta  occ. eigenvalues --   -0.48418  -0.47729  -0.44974  -0.40310  -0.39604
  Beta  occ. eigenvalues --   -0.39317  -0.37538  -0.36547  -0.36406  -0.34968
  Beta  occ. eigenvalues --   -0.34889  -0.33224  -0.32495  -0.31385  -0.30617
  Beta  occ. eigenvalues --   -0.29537  -0.29222  -0.27413  -0.27157  -0.25729
  Beta  occ. eigenvalues --   -0.24879  -0.23997  -0.23866  -0.23429  -0.22959
  Beta  occ. eigenvalues --   -0.22234  -0.20478  -0.17580  -0.12813  -0.12374
  Beta  occ. eigenvalues --   -0.11428  -0.10419
  Beta virt. eigenvalues --    0.06790   0.07576   0.08060   0.08190   0.08804
  Beta virt. eigenvalues --    0.09143   0.09579   0.10138   0.10468   0.11061
  Beta virt. eigenvalues --    0.11248   0.11634   0.12290   0.12897   0.13441

 Mulliken charges and spin densities:
               1          2
     1  C    0.331002  -0.535570
     2  C   -0.176208  -0.291651
     3  N   -0.247094   0.149288
     4  C    0.491641  -1.144496
     5  C   -0.701506   0.503057
     6  N    0.216429   0.055785
     7  C   -0.358767  -0.028931
     8  C   -0.060193  -0.729310
     9  C    0.161972   0.485363
    10  C   -0.355681   0.008543
    11  C    0.057986  -0.137451
    12  C    0.043374  -0.134710
    13  C   -0.386141   0.160069
    14  C   -0.217514   0.015802
    15  N   -0.131617  -0.019354
    16  C    0.204229   0.280663
    17  O   -0.120760   0.004754
    18  H    0.050469   0.073172
    19  H   -0.267820   0.419263
    20  H   -0.232541   0.413378
    21  H    0.143902   0.000374
    22  H    0.108796   0.109025
    23  H   -0.082826   0.248764
    24  H    0.090976   0.058095
    25  H    0.043219   0.090576
    26  H    0.165314  -0.010935
    27  H    0.105414   0.015910
    28  H    0.148316  -0.013752
    29  H   -0.020512   0.192571
    30  H   -0.184330   0.371712
    31  H   -0.090560   0.242861
    32  H    0.119923   0.018652
    33  H   -0.017076   0.133044
    34  H    0.168185  -0.004563
 Sum of Mulliken charges =  -1.00000   1.00000

 Dipole moment (field-independent basis, Debye):
    X=             -0.0992    Y=              0.5611    Z=             -1.3188  Tot=              1.4366
 Quadrupole moment (field-independent basis, Debye-Ang):
   XX=           -188.8173   YY=           -127.0113   ZZ=           -128.0412
   XY=             -9.2780   XZ=              1.0685   YZ=              3.3740

 Summary of Natural Population Analysis:

                                       Natural Population
                Natural  -----------------------------------------------
    Atom  No    Charge         Core      Valence    Rydberg      Total
 -----------------------------------------------------------------------
      C    1   -0.20064      0.99962     2.19162    0.00940     3.20064
      C    2   -0.08887      0.99962     2.07677    0.01248     3.08887
      N    3   -0.34129      0.99976     2.83001    0.01153     3.84129
      C    4   -0.08641      0.99961     2.07587    0.01092     3.08641
      C    5   -0.09290      0.99960     2.08124    0.01205     3.09290
      N    6   -0.28432      0.99971     2.77028    0.01434     3.78432
      C    7   -0.08696      0.99960     2.07555    0.01180     3.08696
      C    8   -0.08418      0.99958     2.07165    0.01295     3.08418
      C    9   -0.00099      0.99952     1.99278    0.00869     3.00099
      C   10   -0.09897      0.99947     2.09028    0.00922     3.09897
      C   11    0.12995      0.99934     1.85702    0.01370     2.87005
      C   12    0.04334      0.99943     1.94199    0.01524     2.95666
      C   13   -0.07278      0.99953     2.06518    0.00807     3.07278
      C   14   -0.12004      0.99954     2.11106    0.00945     3.12004
      N   15   -0.25781      0.99970     2.74942    0.00869     3.75781
      C   16    0.23807      0.99965     1.74205    0.02024     2.76193
      O   17   -0.24070      0.99987     3.23372    0.00712     4.24070
      H   18    0.09137      0.00000     0.40739    0.00124     0.40863
      H   19    0.09784      0.00000     0.40043    0.00173     0.40216
      H   20    0.09044      0.00000     0.40852    0.00105     0.40956
      H   21    0.09262      0.00000     0.40567    0.00171     0.40738
      H   22    0.16886      0.00000     0.32871    0.00243     0.33114
      H   23    0.09001      0.00000     0.40847    0.00152     0.40999
      H   24    0.08965      0.00000     0.40944    0.00091     0.41035
      H   25    0.09595      0.00000     0.40268    0.00137     0.40405
      H   26    0.08172      0.00000     0.41669    0.00160     0.41828
      H   27    0.10060      0.00000     0.39793    0.00146     0.39940
      H   28    0.08215      0.00000     0.41629    0.00156     0.41785
      H   29    0.09607      0.00000     0.40277    0.00116     0.40393
      H   30    0.09779      0.00000     0.40093    0.00128     0.40221
      H   31    0.10017      0.00000     0.39812    0.00172     0.39983
      H   32    0.09702      0.00000     0.40162    0.00136     0.40298
      H   33    0.09449      0.00000     0.40409    0.00142     0.40551
      H   34    0.07874      0.00000     0.42045    0.00081     0.42126
 =======================================================================
   * Total *   -0.00000     16.99314    44.78667    0.22019    62.00000

 Normal termination of Gaussian 16 at Sun Dec 13 16:57:44 2020.
