 Gaussian 16, Revision A.03,

 -----------------------------------------------------------
 # opt freq B3LYP/6-31G(d) empiricaldispersion=gd3bj scf=xqc
 -----------------------------------------------------------

 -------------------------------
 CID_114959631_JID_3556_neutraal
 -------------------------------
 Symbolic Z-matrix:
 Charge =  0 Multiplicity = 1

 SCF Done:  E(RB3LYP) =  -989.834741439     A.U. after   14 cycles
 SCF Done:  E(RB3LYP) =  -989.841589441     A.U. after   12 cycles
 SCF Done:  E(RB3LYP) =  -989.842910696     A.U. after   12 cycles
 SCF Done:  E(RB3LYP) =  -989.843578495     A.U. after   11 cycles
 SCF Done:  E(RB3LYP) =  -989.844486909     A.U. after   12 cycles
 SCF Done:  E(RB3LYP) =  -989.845811665     A.U. after   12 cycles
 SCF Done:  E(RB3LYP) =  -989.848102982     A.U. after   14 cycles
 SCF Done:  E(RB3LYP) =  -989.848835833     A.U. after   12 cycles
 SCF Done:  E(RB3LYP) =  -989.849173797     A.U. after   12 cycles
 SCF Done:  E(RB3LYP) =  -989.849231810     A.U. after   10 cycles
 SCF Done:  E(RB3LYP) =  -989.849266948     A.U. after   10 cycles
 SCF Done:  E(RB3LYP) =  -989.849269005     A.U. after    9 cycles
 SCF Done:  E(RB3LYP) =  -989.849270710     A.U. after    9 cycles
 SCF Done:  E(RB3LYP) =  -989.849271465     A.U. after    9 cycles
 SCF Done:  E(RB3LYP) =  -989.849271701     A.U. after    8 cycles
 SCF Done:  E(RB3LYP) =  -989.849271745     A.U. after    7 cycles
 Optimization completed.
    -- Stationary point found.
 Normal termination of Gaussian 16 at Wed Dec  9 23:43:18 2020.

 --------------------------------------------------------------------
 #N Geom=AllCheck Guess=TCheck SCRF=Check GenChk RB3LYP/6-31G(d) Freq
 --------------------------------------------------------------------

 Structure from the checkpoint file:  "JID_3556.chk"
 -------------------------------
 CID_114959631_JID_3556_neutraal
 -------------------------------
 Charge =  0 Multiplicity = 1

 SCF Done:  E(RB3LYP) =  -989.849271745     A.U. after    1 cycles

  Exact polarizability: 121.794   1.249 111.742  -1.485   0.527 102.497
 Approx polarizability: 157.913   0.315 162.063   1.016   5.098 156.912

                      1                      2                      3
                      A                      A                      A
 Frequencies --     21.2375                51.5741                72.0460
 Red. masses --      4.8052                 4.6570                 3.1415
 Frc consts  --      0.0013                 0.0073                 0.0096
 IR Inten    --      1.3976                 1.5581                 0.0990

                      4                      5                      6
                      A                      A                      A
 Frequencies --     97.7050               135.3459               157.3095
 Red. masses --      4.0518                 2.9861                 2.8495
 Frc consts  --      0.0228                 0.0322                 0.0415
 IR Inten    --      1.2727                 3.5537                 6.9311

                      7                      8                      9
                      A                      A                      A
 Frequencies --    194.7726               207.3508               235.1133
 Red. masses --      3.7777                 2.7010                 1.3621
 Frc consts  --      0.0844                 0.0684                 0.0444
 IR Inten    --      3.9143                 3.5812                33.3776

                     10                     11                     12
                      A                      A                      A
 Frequencies --    242.7462               269.4165               321.2747
 Red. masses --      1.3601                 1.9733                 2.4652
 Frc consts  --      0.0472                 0.0844                 0.1499
 IR Inten    --     40.3115                 3.0234                10.6838

                     13                     14                     15
                      A                      A                      A
 Frequencies --    350.9885               352.0390               419.8617
 Red. masses --      2.8316                 1.9803                 2.7036
 Frc consts  --      0.2055                 0.1446                 0.2808
 IR Inten    --     12.1988                 3.3623                 1.8417

                     16                     17                     18
                      A                      A                      A
 Frequencies --    435.5687               465.3835               485.6062
 Red. masses --      3.0327                 3.7800                 4.3750
 Frc consts  --      0.3390                 0.4824                 0.6079
 IR Inten    --     15.5749                14.3385                15.1194

                     19                     20                     21
                      A                      A                      A
 Frequencies --    499.7913               538.7892               568.3329
 Red. masses --      3.8404                 2.6973                 2.6108
 Frc consts  --      0.5652                 0.4613                 0.4968
 IR Inten    --     23.3621                32.7364                24.8280

                     22                     23                     24
                      A                      A                      A
 Frequencies --    613.3648               648.7606               713.5822
 Red. masses --      2.8574                 1.7109                 3.9463
 Frc consts  --      0.6334                 0.4243                 1.1839
 IR Inten    --     39.9148                67.8075               164.5363

                     25                     26                     27
                      A                      A                      A
 Frequencies --    732.4761               817.9546               850.0153
 Red. masses --      2.2098                 1.8737                 1.8255
 Frc consts  --      0.6985                 0.7386                 0.7771
 IR Inten    --      4.2772                25.7712                32.3659

                     28                     29                     30
                      A                      A                      A
 Frequencies --    859.5546               877.5730               885.9505
 Red. masses --      1.4857                 1.6599                 1.7346
 Frc consts  --      0.6467                 0.7532                 0.8022
 IR Inten    --     59.6120                26.0634                17.1723

                     31                     32                     33
                      A                      A                      A
 Frequencies --    907.7214               923.6334               940.0085
 Red. masses --      1.9183                 2.4312                 2.2888
 Frc consts  --      0.9312                 1.2220                 1.1916
 IR Inten    --     69.0208                 4.1302                94.8203

                     34                     35                     36
                      A                      A                      A
 Frequencies --    965.6063              1005.8018              1020.7087
 Red. masses --      1.6862                 1.7725                 2.1132
 Frc consts  --      0.9263                 1.0565                 1.2972
 IR Inten    --     19.9738                 5.5982                 4.7165

                     37                     38                     39
                      A                      A                      A
 Frequencies --   1048.1812              1079.1049              1084.9291
 Red. masses --      1.8183                 3.2642                 1.5746
 Frc consts  --      1.1770                 2.2395                 1.0920
 IR Inten    --      3.6508                82.7645                 4.4608

                     40                     41                     42
                      A                      A                      A
 Frequencies --   1096.5346              1114.2092              1121.6993
 Red. masses --      1.6694                 2.3120                 1.9642
 Frc consts  --      1.1826                 1.6911                 1.4561
 IR Inten    --      4.0397                84.7182                 2.1135

                     43                     44                     45
                      A                      A                      A
 Frequencies --   1147.1079              1153.7018              1206.3688
 Red. masses --      2.1503                 2.3446                 1.5676
 Frc consts  --      1.6671                 1.8387                 1.3441
 IR Inten    --      8.9279               130.0471                 4.2485

                     46                     47                     48
                      A                      A                      A
 Frequencies --   1239.4256              1261.7921              1275.5049
 Red. masses --      1.7158                 1.4241                 1.6053
 Frc consts  --      1.5530                 1.3359                 1.5387
 IR Inten    --      2.7880                 8.4186                 1.8244

                     49                     50                     51
                      A                      A                      A
 Frequencies --   1286.8926              1312.5665              1337.8481
 Red. masses --      1.3645                 1.3977                 1.2867
 Frc consts  --      1.3314                 1.4188                 1.3569
 IR Inten    --      3.2489                16.1359                 2.2653

                     52                     53                     54
                      A                      A                      A
 Frequencies --   1349.3063              1355.7548              1363.6792
 Red. masses --      3.9776                 1.4975                 1.3917
 Frc consts  --      4.2668                 1.6217                 1.5248
 IR Inten    --    147.3804                25.9427                 7.0209

                     55                     56                     57
                      A                      A                      A
 Frequencies --   1371.0575              1390.8813              1406.8774
 Red. masses --      1.2553                 1.4595                 1.3927
 Frc consts  --      1.3903                 1.6636                 1.6241
 IR Inten    --      0.8498                 2.2449                18.0170

                     58                     59                     60
                      A                      A                      A
 Frequencies --   1438.2456              1459.8137              1515.1181
 Red. masses --      1.4063                 1.2725                 1.0889
 Frc consts  --      1.7140                 1.5977                 1.4728
 IR Inten    --     31.0814                46.0873                 1.3800

                     61                     62                     63
                      A                      A                      A
 Frequencies --   1520.3276              1524.0294              1533.2268
 Red. masses --      1.0843                 1.0895                 1.0781
 Frc consts  --      1.4767                 1.4910                 1.4933
 IR Inten    --      1.9249                 3.1931                 7.2301

                     64                     65                     66
                      A                      A                      A
 Frequencies --   1534.2955              1546.1480              1627.3471
 Red. masses --      1.0876                 1.1026                 1.1016
 Frc consts  --      1.5084                 1.5530                 1.7189
 IR Inten    --      5.5115                 2.4748                49.3658

                     67                     68                     69
                      A                      A                      A
 Frequencies --   1695.8632              2949.8391              3032.0796
 Red. masses --      1.0887                 1.0731                 1.0662
 Frc consts  --      1.8448                 5.5014                 5.7751
 IR Inten    --     35.5320                74.6584                32.3095

                     70                     71                     72
                      A                      A                      A
 Frequencies --   3039.8673              3059.9876              3061.5992
 Red. masses --      1.0684                 1.0636                 1.0742
 Frc consts  --      5.8172                 5.8675                 5.9327
 IR Inten    --     31.3472                17.1256                 7.1333

                     73                     74                     75
                      A                      A                      A
 Frequencies --   3065.7299              3079.7255              3085.9225
 Red. masses --      1.0765                 1.0940                 1.0587
 Frc consts  --      5.9612                 6.1133                 5.9399
 IR Inten    --     58.8696                38.5719                14.5518

                     76                     77                     78
                      A                      A                      A
 Frequencies --   3095.6041              3106.6514              3114.0169
 Red. masses --      1.0962                 1.1048                 1.1044
 Frc consts  --      6.1894                 6.2824                 6.3098
 IR Inten    --     30.1478                25.7314                66.9959

                     79                     80                     81
                      A                      A                      A
 Frequencies --   3135.8457              3475.1491              3493.6497
 Red. masses --      1.1080                 1.0499                 1.0469
 Frc consts  --      6.4193                 7.4703                 7.5287
 IR Inten    --      8.4797                 1.0559                25.9905

                     82                     83                     84
                      A                      A                      A
 Frequencies --   3546.9182              3559.0644              3604.2938
 Red. masses --      1.0747                 1.0923                 1.0976
 Frc consts  --      7.9662                 8.1517                 8.4013
 IR Inten    --     20.5091                 0.0844                27.7486

 - Thermochemistry -
 -------------------
 Temperature   298.150 Kelvin.  Pressure   1.00000 Atm.
 Atom     1 has atomic number  6 and mass  12.00000

 Molecular mass:   207.10415 amu.
 Principal axes and moments of inertia in atomic units:
                           1         2         3
     Eigenvalues --  1659.546334214.273994887.75635
           X            0.99994   0.00590  -0.00963
           Y           -0.00597   0.99996  -0.00703
           Z            0.00958   0.00709   0.99993
 This molecule is an asymmetric top.
 Rotational symmetry number  1.
 Warning -- assumption of classical behavior for rotation
           may cause significant error
 Rotational temperatures (Kelvin)      0.05219     0.02055     0.01772
 Rotational constants (GHZ):           1.08749     0.42824     0.36924
 Zero-point vibrational energy     686589.2 (Joules/Mol)
                                  164.09875 (Kcal/Mol)
 Warning -- explicit consideration of  22 degrees of freedom as
           vibrations may cause significant error
 Vibrational temperatures:     30.56    74.20   103.66   140.58   194.73
          (Kelvin)            226.33   280.23   298.33   338.28   349.26
                              387.63   462.24   504.99   506.51   604.09
                              626.69   669.58   698.68   719.09   775.20
                              817.70   882.50   933.42  1026.69  1053.87
                             1176.85  1222.98  1236.71  1262.63  1274.69
                             1306.01  1328.90  1352.46  1389.29  1447.12
                             1468.57  1508.10  1552.59  1560.97  1577.67
                             1603.10  1613.88  1650.43  1659.92  1735.70
                             1783.26  1815.44  1835.17  1851.55  1888.49
                             1924.86  1941.35  1950.63  1962.03  1972.65
                             2001.17  2024.18  2069.31  2100.35  2179.92
                             2187.41  2192.74  2205.97  2207.51  2224.56
                             2341.39  2439.97  4244.16  4362.49  4373.69
                             4402.64  4404.96  4410.90  4431.04  4439.95
                             4453.88  4469.78  4480.38  4511.78  4999.96
                             5026.58  5103.22  5120.70  5185.77

 Zero-point correction=                           0.261508 (Hartree/Particle)
 Thermal correction to Energy=                    0.275696
 Thermal correction to Enthalpy=                  0.276641
 Thermal correction to Gibbs Free Energy=         0.219671
 Sum of electronic and zero-point Energies=           -989.587764
 Sum of electronic and thermal Energies=              -989.573575
 Sum of electronic and thermal Enthalpies=            -989.572631
 Sum of electronic and thermal Free Energies=         -989.629600

                     E (Thermal)             CV                S
                      KCal/Mol        Cal/Mol-Kelvin    Cal/Mol-Kelvin
 Total                  173.002             53.916            119.902
 Electronic               0.000              0.000              0.000
 Translational            0.889              2.981             41.888
 Rotational               0.889              2.981             31.903
 Vibrational            171.225             47.954             46.111
 Vibration     1          0.593              1.985              6.515
 Vibration     2          0.596              1.977              4.756
 Vibration     3          0.598              1.967              4.097
 Vibration     4          0.603              1.951              3.500
 Vibration     5          0.613              1.918              2.869
 Vibration     6          0.621              1.894              2.582
 Vibration     7          0.635              1.847              2.182
 Vibration     8          0.641              1.829              2.067
 Vibration     9          0.655              1.787              1.840
 Vibration    10          0.659              1.775              1.783
 Vibration    11          0.674              1.729              1.600
 Vibration    12          0.707              1.633              1.304
 Vibration    13          0.728              1.573              1.162
 Vibration    14          0.729              1.571              1.157
 Vibration    15          0.783              1.427              0.892
 Vibration    16          0.796              1.393              0.841
 Vibration    17          0.823              1.327              0.751
 Vibration    18          0.842              1.282              0.695
 Vibration    19          0.855              1.250              0.659
 Vibration    20          0.894              1.164              0.568
 Vibration    21          0.924              1.100              0.507
 Vibration    22          0.973              1.004              0.427

                           ! Non-Optimized Parameters !
 Normal termination of Gaussian 16 at Wed Dec  9 23:51:22 2020.

 ----------------------------------------------------------------------
 # B3LYP/6-311++G(d,p) empiricaldispersion=gd3bj scf=xqc pop=npa geom=c
 heck
 ----------------------------------------------------------------------

 ---------------------------------------
 CID_114959631_JID_3556_Energie_neutraal
 ---------------------------------------
 Structure from the checkpoint file:  "JID_3556.chk"
 Charge =  0 Multiplicity = 1

 SCF Done:  E(RB3LYP) =  -990.065639098     A.U. after   15 cycles
 Normal termination of Gaussian 16 at Wed Dec  9 23:55:29 2020.

 ----------------------------------------------------------------------
 # B3LYP/6-311++G(d,p) empiricaldispersion=gd3bj scf=xqc pop=npa geom=c
 heck
 ----------------------------------------------------------------------

 -------------------------------------
 CID_114959631_JID_3556_Energie_kation
 -------------------------------------
 Structure from the checkpoint file:  "JID_3556.chk"
 Charge =  1 Multiplicity = 2

 SCF Done:  E(UB3LYP) =  -989.743095238     A.U. after   22 cycles
 Normal termination of Gaussian 16 at Thu Dec 10 00:03:43 2020.
 Gaussian 16:  ES64L-G16RevA.03 25-Dec-2016

 ----------------------------------------------------------------------
 # B3LYP/6-311++G(d,p) empiricaldispersion=gd3bj scf=xqc pop=npa geom=c
 heck
 ----------------------------------------------------------------------

 ------------------------------------
 CID_114959631_JID_3556_Energie_anion
 ------------------------------------
 Structure from the checkpoint file:  "JID_3556.chk"
 Charge = -1 Multiplicity = 2

                         Standard orientation:
 ---------------------------------------------------------------------
 Center     Atomic      Atomic             Coordinates (Angstroms)
 Number     Number       Type             X           Y           Z
 ---------------------------------------------------------------------
      1          6           0        1.881468   -1.927956   -0.928454
      2          6           0        2.251877   -2.092549    0.551656
      3          6           0        1.535227   -0.911445    1.228502
      4          6           0        1.530481    0.251619    0.189234
      5          6           0        2.012861   -0.411314   -1.141760
      6          6           0        2.498203    1.364781    0.630362
      7          7           0        2.594346    2.435410   -0.367156
      8          6           0        0.126100    0.863616    0.056045
      9          7           0       -0.833429   -0.121255   -0.478716
     10         16           0       -2.451919    0.097790   -0.133165
     11          8           0       -2.840175    1.500758    0.003416
     12          8           0       -3.157550   -0.784245   -1.064539
     13          7           0       -2.448338   -0.497646    1.448372
     14          1           0        0.843626   -2.244370   -1.084603
     15          1           0        2.515369   -2.509970   -1.605996
     16          1           0        1.960686   -3.062974    0.967285
     17          1           0        3.339602   -1.998474    0.671799
     18          1           0        2.011041   -0.611546    2.169251
     19          1           0        0.502439   -1.189175    1.461365
     20          1           0        3.071504   -0.170575   -1.309448
     21          1           0        1.472273   -0.043878   -2.022051
     22          1           0        2.123477    1.812624    1.559472
     23          1           0        3.467716    0.893473    0.875816
     24          1           0        3.133365    3.212155    0.009557
     25          1           0        3.107000    2.103161   -1.182188
     26          1           0       -0.233432    1.151521    1.047853
     27          1           0        0.162033    1.764992   -0.562197
     28          1           0       -0.755309   -0.282597   -1.479896
     29          1           0       -3.271179   -0.141180    1.930880
     30          1           0       -2.443053   -1.516011    1.441725
 ---------------------------------------------------------------------

 SCF Done:  E(UB3LYP) =  -990.057936268     A.U. after   28 cycles

 The electronic state is 2-A.
 Alpha  occ. eigenvalues --  -88.98364 -19.02294 -19.02249 -14.24768 -14.24500
 Alpha  occ. eigenvalues --  -14.19748 -10.10407 -10.09637 -10.08657 -10.07060
 Alpha  occ. eigenvalues --  -10.06784 -10.06739 -10.06334  -8.04314  -6.00569
 Alpha  occ. eigenvalues --   -6.00547  -6.00507  -1.03470  -0.91742  -0.84040
 Alpha  occ. eigenvalues --   -0.81037  -0.79163  -0.74020  -0.65820  -0.61598
 Alpha  occ. eigenvalues --   -0.58853  -0.54236  -0.54061  -0.48090  -0.45015
 Alpha  occ. eigenvalues --   -0.44526  -0.42489  -0.41706  -0.39845  -0.39321
 Alpha  occ. eigenvalues --   -0.38037  -0.36343  -0.35818  -0.34603  -0.32922
 Alpha  occ. eigenvalues --   -0.31575  -0.29841  -0.29201  -0.26643  -0.25704
 Alpha  occ. eigenvalues --   -0.25113  -0.24498  -0.24098  -0.23339  -0.22953
 Alpha  occ. eigenvalues --   -0.22561  -0.22235  -0.21144  -0.20202  -0.17627
 Alpha  occ. eigenvalues --   -0.14661   0.03891
 Alpha virt. eigenvalues --    0.05497   0.07046   0.07592   0.08595   0.09042
 Alpha virt. eigenvalues --    0.09591   0.10312   0.10629   0.11680   0.12206
 Alpha virt. eigenvalues --    0.12769   0.13242   0.13683   0.13734   0.14597

  Beta  occ. eigenvalues --  -88.98358 -19.02285 -19.02232 -14.24744 -14.24419
  Beta  occ. eigenvalues --  -14.19713 -10.10400 -10.09614 -10.08660 -10.07028
  Beta  occ. eigenvalues --  -10.06771 -10.06724 -10.06323  -8.04305  -6.00560
  Beta  occ. eigenvalues --   -6.00542  -6.00501  -1.03433  -0.91706  -0.83994
  Beta  occ. eigenvalues --   -0.80910  -0.79104  -0.73988  -0.65785  -0.61555
  Beta  occ. eigenvalues --   -0.58800  -0.54178  -0.53981  -0.48035  -0.44964
  Beta  occ. eigenvalues --   -0.44471  -0.42433  -0.41666  -0.39802  -0.39284
  Beta  occ. eigenvalues --   -0.38004  -0.36307  -0.35792  -0.34539  -0.32891
  Beta  occ. eigenvalues --   -0.31542  -0.29811  -0.29167  -0.26608  -0.25674
  Beta  occ. eigenvalues --   -0.25086  -0.24462  -0.24072  -0.23304  -0.22927
  Beta  occ. eigenvalues --   -0.22528  -0.22210  -0.21121  -0.20152  -0.17597
  Beta  occ. eigenvalues --   -0.14623
  Beta virt. eigenvalues --    0.06256   0.06909   0.07627   0.07994   0.09280
  Beta virt. eigenvalues --    0.09517   0.09946   0.10700   0.10992   0.12042
  Beta virt. eigenvalues --    0.12660   0.12970   0.13524   0.13814   0.13961

 Mulliken charges and spin densities:
               1          2
     1  C   -0.597157   0.107584
     2  C    0.355098  -0.742431
     3  C   -0.543011  -0.193137
     4  C   -1.013900   2.007718
     5  C    0.669431  -1.043622
     6  C    1.405528  -2.008960
     7  N   -0.407926   0.089326
     8  C   -0.108532  -0.439160
     9  N   -0.530033   0.185571
    10  S    1.396420  -1.002355
    11  O   -0.251107   0.008118
    12  O   -0.209409   0.008949
    13  N   -0.468144  -0.022741
    14  H    0.063164   0.051956
    15  H   -0.212057   0.380965
    16  H   -0.174517   0.347290
    17  H    0.128875  -0.000546
    18  H   -0.084160   0.227307
    19  H    0.386776  -0.213469
    20  H   -0.422795   0.568622
    21  H   -0.054357   0.219832
    22  H   -0.025610   0.202817
    23  H   -0.282049   0.438849
    24  H   -0.041881   0.293654
    25  H   -0.054851   0.274615
    26  H    0.020888   0.172872
    27  H    0.277802  -0.032090
    28  H    0.268014   0.034906
    29  H   -0.174255   0.476764
    30  H   -0.316243   0.600796
 Sum of Mulliken charges =  -1.00000   1.00000

 Dipole moment (field-independent basis, Debye):
    X=              0.1216    Y=             -0.5082    Z=             -0.4116  Tot=              0.6652
 Quadrupole moment (field-independent basis, Debye-Ang):
   XX=           -164.1888   YY=           -130.8798   ZZ=           -121.3189
   XY=             -6.4246   XZ=              5.6753   YZ=              3.7122

 Summary of Natural Population Analysis:

                                       Natural Population
                Natural  -----------------------------------------------
    Atom  No    Charge         Core      Valence    Rydberg      Total
 -----------------------------------------------------------------------
      C    1   -0.19057      0.99963     2.18385    0.00709     3.19057
      C    2   -0.18897      0.99963     2.18216    0.00717     3.18897
      C    3   -0.19109      0.99959     2.18176    0.00974     3.19109
      C    4   -0.04672      0.99956     2.03095    0.01622     3.04672
      C    5   -0.19375      0.99960     2.18413    0.01003     3.19375
      C    6   -0.08181      0.99956     2.06941    0.01284     3.08181
      N    7   -0.42622      0.99977     2.91581    0.01064     3.92622
      C    8   -0.09206      0.99954     2.08056    0.01196     3.09206
      N    9   -0.43441      0.99974     2.92211    0.01256     3.93441
      S   10    1.15500      4.99939     1.74046    0.10514     6.84500
      O   11   -0.46089      0.99990     3.45559    0.00540     4.46089
      O   12   -0.46351      0.99990     3.45813    0.00548     4.46351
      N   13   -0.50771      0.99978     2.99726    0.01067     4.00771
      H   14    0.09669      0.00000     0.40143    0.00188     0.40331
      H   15    0.09764      0.00000     0.40133    0.00103     0.40236
      H   16    0.09927      0.00000     0.39971    0.00101     0.40073
      H   17    0.09242      0.00000     0.40599    0.00159     0.40758
      H   18    0.09902      0.00000     0.39981    0.00117     0.40098
      H   19    0.10595      0.00000     0.39206    0.00199     0.39405
      H   20    0.09971      0.00000     0.39843    0.00186     0.40029
      H   21    0.09847      0.00000     0.40036    0.00118     0.40153
      H   22    0.09119      0.00000     0.40759    0.00122     0.40881
      H   23    0.08333      0.00000     0.41465    0.00201     0.41667
      H   24    0.17737      0.00000     0.32084    0.00179     0.32263
      H   25    0.17545      0.00000     0.32221    0.00233     0.32455
      H   26    0.10616      0.00000     0.39229    0.00156     0.39384
      H   27    0.10685      0.00000     0.39148    0.00167     0.39315
      H   28    0.19833      0.00000     0.29978    0.00188     0.30167
      H   29    0.19706      0.00000     0.29926    0.00368     0.30294
      H   30    0.19780      0.00000     0.29694    0.00526     0.30220
 =======================================================================
   * Total *   -0.00000     16.99561    38.74633    0.25806    56.00000

 Normal termination of Gaussian 16 at Thu Dec 10 00:14:06 2020.
