 Gaussian 16, Revision A.03,

 -----------------------------------------------------------
 # opt freq B3LYP/6-31G(d) empiricaldispersion=gd3bj scf=xqc
 -----------------------------------------------------------

 -------------------------------
 CID_151965132_JID_6783_neutraal
 -------------------------------
 Symbolic Z-matrix:
 Charge =  0 Multiplicity = 1

 SCF Done:  E(RB3LYP) =  -669.856735566     A.U. after   15 cycles
 SCF Done:  E(RB3LYP) =  -669.857916054     A.U. after   15 cycles
 SCF Done:  E(RB3LYP) =  -669.859793786     A.U. after   13 cycles
 SCF Done:  E(RB3LYP) =  -669.860207389     A.U. after   13 cycles
 SCF Done:  E(RB3LYP) =  -669.860455029     A.U. after   13 cycles
 SCF Done:  E(RB3LYP) =  -669.860579766     A.U. after   12 cycles
 SCF Done:  E(RB3LYP) =  -669.860613107     A.U. after   12 cycles
 SCF Done:  E(RB3LYP) =  -669.860650424     A.U. after   11 cycles
 SCF Done:  E(RB3LYP) =  -669.860691457     A.U. after   12 cycles
 SCF Done:  E(RB3LYP) =  -669.860731492     A.U. after   14 cycles
 SCF Done:  E(RB3LYP) =  -669.863245632     A.U. after    9 cycles
 SCF Done:  E(RB3LYP) =  -669.863246572     A.U. after   10 cycles
 SCF Done:  E(RB3LYP) =  -669.863246655     A.U. after    8 cycles
 SCF Done:  E(RB3LYP) =  -669.863246675     A.U. after    7 cycles
 Optimization completed.
    -- Stationary point found.
 Normal termination of Gaussian 16 at Fri Dec 11 00:58:28 2020.

 --------------------------------------------------------------------
 #N Geom=AllCheck Guess=TCheck SCRF=Check GenChk RB3LYP/6-31G(d) Freq
 --------------------------------------------------------------------

 Structure from the checkpoint file:  "JID_6783.chk"
 -------------------------------
 CID_151965132_JID_6783_neutraal
 -------------------------------
 Charge =  0 Multiplicity = 1

 SCF Done:  E(RB3LYP) =  -669.863246675     A.U. after    1 cycles

  Exact polarizability: 185.133 -18.685 152.367  14.916  14.554 120.497
 Approx polarizability: 299.851 -41.588 231.899  32.250  25.963 183.940

                      1                      2                      3
                      A                      A                      A
 Frequencies --     12.9680                36.9392                44.5933
 Red. masses --      4.8085                 1.0497                 2.4096
 Frc consts  --      0.0005                 0.0008                 0.0028
 IR Inten    --      0.1429                 0.2158                 0.0538

                      4                      5                      6
                      A                      A                      A
 Frequencies --     56.7474                61.2558                76.3424
 Red. masses --      3.9545                 4.2889                 6.9467
 Frc consts  --      0.0075                 0.0095                 0.0239
 IR Inten    --      0.4413                 0.5436                 0.2777

                      7                      8                      9
                      A                      A                      A
 Frequencies --    104.5952               138.8529               144.1461
 Red. masses --      3.9078                 3.5371                 3.2591
 Frc consts  --      0.0252                 0.0402                 0.0399
 IR Inten    --      0.9962                 0.1616                 0.3544

                     10                     11                     12
                      A                      A                      A
 Frequencies --    206.6752               217.7816               223.7487
 Red. masses --      2.5261                 2.8218                 1.6429
 Frc consts  --      0.0636                 0.0789                 0.0485
 IR Inten    --      0.4716                 2.8734                 1.2606

                     13                     14                     15
                      A                      A                      A
 Frequencies --    246.4706               276.6684               307.8770
 Red. masses --      4.5246                 2.1419                 2.2682
 Frc consts  --      0.1619                 0.0966                 0.1267
 IR Inten    --      0.8050                 1.6512                 0.3026

                     16                     17                     18
                      A                      A                      A
 Frequencies --    322.4466               339.4368               363.4379
 Red. masses --      2.6339                 2.9179                 2.8508
 Frc consts  --      0.1614                 0.1981                 0.2219
 IR Inten    --      1.5307                 2.0311                 0.9366

                     19                     20                     21
                      A                      A                      A
 Frequencies --    455.6726               484.8644               518.7518
 Red. masses --      2.7645                 2.9415                 4.4283
 Frc consts  --      0.3382                 0.4074                 0.7021
 IR Inten    --      0.5479                 2.0125                 0.7942

                     22                     23                     24
                      A                      A                      A
 Frequencies --    547.3787               559.2585               563.7455
 Red. masses --      4.3252                 9.2426                 3.9020
 Frc consts  --      0.7635                 1.7032                 0.7306
 IR Inten    --      0.2051                10.6094                 4.4967

                     25                     26                     27
                      A                      A                      A
 Frequencies --    629.2012               653.7882               711.2592
 Red. masses --      3.2606                 6.5599                 2.7421
 Frc consts  --      0.7606                 1.6520                 0.8173
 IR Inten    --      1.5768                10.3165                 4.9369

                     28                     29                     30
                      A                      A                      A
 Frequencies --    727.5289               748.8386               802.7961
 Red. masses --      2.4709                 2.4678                 1.1770
 Frc consts  --      0.7706                 0.8153                 0.4469
 IR Inten    --      9.3359                16.9585                 0.4006

                     31                     32                     33
                      A                      A                      A
 Frequencies --    846.2595               876.8740               899.1816
 Red. masses --      3.4733                 1.5099                 1.4417
 Frc consts  --      1.4655                 0.6840                 0.6868
 IR Inten    --      5.6730                 9.9548                 1.1239

                     34                     35                     36
                      A                      A                      A
 Frequencies --    908.3906               913.6430               931.2319
 Red. masses --      1.4975                 1.9605                 2.5557
 Frc consts  --      0.7280                 0.9642                 1.3058
 IR Inten    --      2.0191                 0.6485                11.1715

                     37                     38                     39
                      A                      A                      A
 Frequencies --    944.4535               958.7691              1008.3128
 Red. masses --      1.3553                 2.9410                 2.3182
 Frc consts  --      0.7123                 1.5928                 1.3886
 IR Inten    --     36.2689                 0.9902                 1.7035

                     40                     41                     42
                      A                      A                      A
 Frequencies --   1022.4980              1023.3358              1034.4087
 Red. masses --      2.6390                 4.8831                 1.4817
 Frc consts  --      1.6256                 3.0129                 0.9341
 IR Inten    --      6.6147                 1.6429                 1.0968

                     43                     44                     45
                      A                      A                      A
 Frequencies --   1042.3825              1069.1491              1075.3155
 Red. masses --      1.1918                 1.9190                 1.5256
 Frc consts  --      0.7630                 1.2924                 1.0394
 IR Inten    --     14.7610                 1.0488                 8.2423

                     46                     47                     48
                      A                      A                      A
 Frequencies --   1098.1528              1105.3197              1171.5974
 Red. masses --      1.7533                 1.5536                 2.1266
 Frc consts  --      1.2458                 1.1183                 1.7198
 IR Inten    --      7.6129                 1.5251                 3.6262

                     49                     50                     51
                      A                      A                      A
 Frequencies --   1202.4824              1205.8568              1261.0493
 Red. masses --      1.4723                 1.4501                 1.4045
 Frc consts  --      1.2543                 1.2423                 1.3160
 IR Inten    --      0.3524                 0.3131                 4.9753

                     52                     53                     54
                      A                      A                      A
 Frequencies --   1283.3095              1292.5205              1304.7778
 Red. masses --      1.4551                 1.2987                 1.7862
 Frc consts  --      1.4119                 1.2783                 1.7916
 IR Inten    --      2.0354                 0.2701                 1.6611

                     55                     56                     57
                      A                      A                      A
 Frequencies --   1331.1967              1333.4325              1355.5636
 Red. masses --      2.2104                 1.2774                 1.6619
 Frc consts  --      2.3079                 1.3382                 1.7993
 IR Inten    --      2.1045                 7.2895                35.5951

                     58                     59                     60
                      A                      A                      A
 Frequencies --   1367.4228              1371.4715              1378.8362
 Red. masses --      2.5338                 2.0358                 1.8239
 Frc consts  --      2.7914                 2.2561                 2.0430
 IR Inten    --     60.7570                43.3439                 3.1871

                     61                     62                     63
                      A                      A                      A
 Frequencies --   1400.0977              1439.2175              1442.5673
 Red. masses --      1.4998                 1.2160                 1.2615
 Frc consts  --      1.7322                 1.4840                 1.5467
 IR Inten    --      5.0841                 1.1869                 0.1001

                     64                     65                     66
                      A                      A                      A
 Frequencies --   1478.0305              1490.3815              1510.2406
 Red. masses --      1.3225                 1.8051                 2.8280
 Frc consts  --      1.7022                 2.3624                 3.8004
 IR Inten    --      6.5450                 1.2878                 9.4332

                     67                     68                     69
                      A                      A                      A
 Frequencies --   1515.0149              1518.4521              1518.9418
 Red. masses --      1.0906                 1.0503                 1.0614
 Frc consts  --      1.4748                 1.4268                 1.4428
 IR Inten    --     10.4172                 5.5921                 0.4005

                     70                     71                     72
                      A                      A                      A
 Frequencies --   1526.2028              1534.3396              1539.9113
 Red. masses --      1.0404                 1.3002                 1.0955
 Frc consts  --      1.4278                 1.8034                 1.5306
 IR Inten    --      5.5985                10.1988                 5.6822

                     73                     74                     75
                      A                      A                      A
 Frequencies --   1660.8032              1663.5198              1734.1703
 Red. masses --      5.5315                 5.6464                 4.5588
 Frc consts  --      8.9893                 9.2061                 8.0776
 IR Inten    --     15.9169                23.9494                 4.2036

                     76                     77                     78
                      A                      A                      A
 Frequencies --   2263.6345              3040.0826              3042.0891
 Red. masses --     13.6424                 1.0809                 1.0405
 Frc consts  --     41.1863                 5.8860                 5.6733
 IR Inten    --    451.2781                 6.6709                34.6686

                     79                     80                     81
                      A                      A                      A
 Frequencies --   3044.1447              3050.9870              3058.5428
 Red. masses --      1.0600                 1.0354                 1.0651
 Frc consts  --      5.7873                 5.6784                 5.8704
 IR Inten    --     33.3085                34.3660                39.8010

                     82                     83                     84
                      A                      A                      A
 Frequencies --   3079.8289              3099.4356              3118.4506
 Red. masses --      1.1035                 1.0959                 1.1027
 Frc consts  --      6.1668                 6.2027                 6.3180
 IR Inten    --     13.1315                20.4150                46.0357

                     85                     86                     87
                      A                      A                      A
 Frequencies --   3125.5269              3125.7885              3133.1920
 Red. masses --      1.1028                 1.1042                 1.1027
 Frc consts  --      6.3472                 6.3566                 6.3778
 IR Inten    --     16.1189                24.2112                24.2591

                     88                     89                     90
                      A                      A                      A
 Frequencies --   3155.0023              3163.5808              3167.3050
 Red. masses --      1.0592                 1.0894                 1.0899
 Frc consts  --      6.2121                 6.4239                 6.4416
 IR Inten    --     12.6629                22.3164                15.6410

                     91                     92                     93
                      A                      A                      A
 Frequencies --   3176.2192              3197.4199              3237.1095
 Red. masses --      1.0912                 1.0894                 1.1152
 Frc consts  --      6.4861                 6.5618                 6.8853
 IR Inten    --      1.8902                 9.2752                18.1693

 - Thermochemistry -
 -------------------
 Temperature   298.150 Kelvin.  Pressure   1.00000 Atm.
 Atom     1 has atomic number  6 and mass  12.00000

 Molecular mass:   215.14225 amu.
 Principal axes and moments of inertia in atomic units:
                           1         2         3
     Eigenvalues --  3049.432374285.440215363.45725
           X            0.99904  -0.04327   0.00616
           Y            0.04270   0.99634   0.07399
           Z           -0.00934  -0.07365   0.99724
 This molecule is an asymmetric top.
 Rotational symmetry number  1.
 Warning -- assumption of classical behavior for rotation
           may cause significant error
 Rotational temperatures (Kelvin)      0.02840     0.02021     0.01615
 Rotational constants (GHZ):           0.59183     0.42113     0.33649
 Zero-point vibrational energy     732422.6 (Joules/Mol)
                                  175.05320 (Kcal/Mol)
 Warning -- explicit consideration of  24 degrees of freedom as
           vibrations may cause significant error
 Vibrational temperatures:     18.66    53.15    64.16    81.65    88.13
          (Kelvin)            109.84   150.49   199.78   207.39   297.36
                              313.34   321.92   354.62   398.06   442.97
                              463.93   488.37   522.91   655.61   697.61
                              746.37   787.56   804.65   811.10   905.28
                              940.66  1023.34  1046.75  1077.41  1155.04
                             1217.58  1261.63  1293.72  1306.97  1314.53
                             1339.84  1358.86  1379.45  1450.74  1471.15
                             1472.35  1488.28  1499.76  1538.27  1547.14
                             1580.00  1590.31  1685.67  1730.10  1734.96
                             1814.37  1846.40  1859.65  1877.28  1915.30
                             1918.51  1950.35  1967.42  1973.24  1983.84
                             2014.43  2070.71  2075.53  2126.56  2144.33
                             2172.90  2179.77  2184.71  2185.42  2195.87
                             2207.57  2215.59  2389.53  2393.43  2495.08
                             3256.87  4374.00  4376.89  4379.85  4389.69
                             4400.56  4431.19  4459.40  4486.75  4496.94
                             4497.31  4507.96  4539.34  4551.69  4557.05
                             4569.87  4600.37  4657.48

 Zero-point correction=                           0.278965 (Hartree/Particle)
 Thermal correction to Energy=                    0.295784
 Thermal correction to Enthalpy=                  0.296728
 Thermal correction to Gibbs Free Energy=         0.231854
 Sum of electronic and zero-point Energies=           -669.584282
 Sum of electronic and thermal Energies=              -669.567463
 Sum of electronic and thermal Enthalpies=            -669.566519
 Sum of electronic and thermal Free Energies=         -669.631393

                     E (Thermal)             CV                S
                      KCal/Mol        Cal/Mol-Kelvin    Cal/Mol-Kelvin
 Total                  185.607             60.898            136.538
 Electronic               0.000              0.000              0.000
 Translational            0.889              2.981             42.002
 Rotational               0.889              2.981             32.616
 Vibrational            183.830             54.937             61.920
 Vibration     1          0.593              1.987              7.495
 Vibration     2          0.594              1.982              5.417
 Vibration     3          0.595              1.980              5.044
 Vibration     4          0.596              1.975              4.567
 Vibration     5          0.597              1.973              4.416
 Vibration     6          0.599              1.965              3.983
 Vibration     7          0.605              1.946              3.367
 Vibration     8          0.614              1.914              2.820
 Vibration     9          0.616              1.909              2.748
 Vibration    10          0.641              1.830              2.073
 Vibration    11          0.646              1.814              1.977
 Vibration    12          0.649              1.805              1.929
 Vibration    13          0.661              1.769              1.756
 Vibration    14          0.678              1.717              1.554
 Vibration    15          0.698              1.659              1.374
 Vibration    16          0.707              1.630              1.298
 Vibration    17          0.719              1.597              1.215
 Vibration    18          0.737              1.548              1.107
 Vibration    19          0.814              1.348              0.779
 Vibration    20          0.841              1.284              0.697
 Vibration    21          0.874              1.208              0.613
 Vibration    22          0.903              1.145              0.550
 Vibration    23          0.915              1.119              0.525
 Vibration    24          0.920              1.110              0.516

 Optimization completed.
    -- Stationary point found.
 Normal termination of Gaussian 16 at Fri Dec 11 01:11:07 2020.

 ----------------------------------------------------------------------
 # B3LYP/6-311++G(d,p) empiricaldispersion=gd3bj scf=xqc pop=npa geom=c
 heck
 ----------------------------------------------------------------------

 ---------------------------------------
 CID_151965132_JID_6783_Energie_neutraal
 ---------------------------------------
 Structure from the checkpoint file:  "JID_6783.chk"
 Charge =  0 Multiplicity = 1

 SCF Done:  E(RB3LYP) =  -670.040515229     A.U. after   16 cycles
 Normal termination of Gaussian 16 at Fri Dec 11 01:17:31 2020.

 ----------------------------------------------------------------------
 # B3LYP/6-311++G(d,p) empiricaldispersion=gd3bj scf=xqc pop=npa geom=c
 heck
 ----------------------------------------------------------------------

 -------------------------------------
 CID_151965132_JID_6783_Energie_kation
 -------------------------------------
 Structure from the checkpoint file:  "JID_6783.chk"
 Charge =  1 Multiplicity = 2

 SCF Done:  E(UB3LYP) =  -669.734681162     A.U. after   33 cycles
 SCF Done:  E(UB3LYP) =  -669.735265368     a.u. after   12 cycles
 Normal termination of Gaussian 16 at Fri Dec 11 04:37:41 2020.
 Gaussian 16:  ES64L-G16RevA.03 25-Dec-2016

 ----------------------------------------------------------------------
 # B3LYP/6-311++G(d,p) empiricaldispersion=gd3bj scf=xqc pop=npa geom=c
 heck
 ----------------------------------------------------------------------

 ------------------------------------
 CID_151965132_JID_6783_Energie_anion
 ------------------------------------
 Structure from the checkpoint file:  "JID_6783.chk"
 Charge = -1 Multiplicity = 2

                         Standard orientation:
 ---------------------------------------------------------------------
 Center     Atomic      Atomic             Coordinates (Angstroms)
 Number     Number       Type             X           Y           Z
 ---------------------------------------------------------------------
      1          6           0       -2.857654    2.332833    0.711896
      2          6           0       -2.375107    1.211094    1.646608
      3          6           0       -1.617283    0.137991    0.899064
      4          6           0       -0.221693    0.168427    0.830250
      5          6           0        0.486008   -0.779096    0.083711
      6          6           0       -0.227944   -1.774436   -0.589976
      7          6           0       -1.623666   -1.838601   -0.530937
      8          6           0       -2.302565   -0.870386    0.214300
      9          6           0       -2.376577   -2.944574   -1.230081
     10          6           0        1.998861   -0.715281   -0.064447
     11          6           0        2.393360    0.267751   -1.196561
     12          7           0        2.043973    1.669684   -0.881882
     13          7           0        0.969530    2.079143   -1.329588
     14          7           0        0.018243    2.592063   -1.699545
     15          6           0        2.722129   -0.377512    1.215048
     16          6           0        3.522369   -1.220217    1.865641
     17          1           0       -3.388504    3.110674    1.272479
     18          1           0       -3.537744    1.936533   -0.050298
     19          1           0       -2.013500    2.793601    0.189030
     20          1           0       -3.238302    0.766790    2.158208
     21          1           0       -1.732493    1.637298    2.426513
     22          1           0        0.313007    0.950086    1.361484
     23          1           0        0.314543   -2.518794   -1.170256
     24          1           0       -3.389482   -0.902251    0.264618
     25          1           0       -1.822677   -3.320608   -2.096519
     26          1           0       -2.546632   -3.795191   -0.556916
     27          1           0       -3.357886   -2.603102   -1.575910
     28          1           0        2.346061   -1.701403   -0.400280
     29          1           0        3.479153    0.254117   -1.322592
     30          1           0        1.925904   -0.046217   -2.137438
     31          1           0        2.577681    0.631489    1.596068
     32          1           0        4.031097   -0.933142    2.781664
     33          1           0        3.696119   -2.234064    1.510156
 ---------------------------------------------------------------------

 SCF Done:  E(UB3LYP) =  -670.029199511     A.U. after   33 cycles
 SCF Done:  E(UB3LYP) =  -670.029199511     a.u. after    1 cycles

 The electronic state is 2-A.
 Alpha  occ. eigenvalues --  -14.34887 -14.24954 -14.23801 -10.10963 -10.08930
 Alpha  occ. eigenvalues --  -10.08356 -10.08226 -10.08169 -10.08064 -10.07765
 Alpha  occ. eigenvalues --  -10.07146 -10.07073 -10.06801 -10.06752 -10.06627
 Alpha  occ. eigenvalues --  -10.06349  -1.01500  -0.85889  -0.76795  -0.72407
 Alpha  occ. eigenvalues --   -0.69533  -0.66538  -0.64603  -0.62562  -0.58928
 Alpha  occ. eigenvalues --   -0.56014  -0.53761  -0.49328  -0.47370  -0.46133
 Alpha  occ. eigenvalues --   -0.41631  -0.40757  -0.39745  -0.39362  -0.38252
 Alpha  occ. eigenvalues --   -0.37003  -0.34904  -0.34019  -0.33421  -0.32723
 Alpha  occ. eigenvalues --   -0.32452  -0.31447  -0.31055  -0.30671  -0.29549
 Alpha  occ. eigenvalues --   -0.28793  -0.27558  -0.27431  -0.26385  -0.24799
 Alpha  occ. eigenvalues --   -0.24055  -0.23183  -0.23094  -0.18642  -0.17492
 Alpha  occ. eigenvalues --   -0.14611  -0.14214  -0.13478   0.04474
 Alpha virt. eigenvalues --    0.06341   0.06545   0.07189   0.07760   0.08214
 Alpha virt. eigenvalues --    0.08373   0.08775   0.09238   0.09393   0.09523
 Alpha virt. eigenvalues --    0.10312   0.10654   0.10978   0.11620   0.11884

  Beta  occ. eigenvalues --  -14.34698 -14.24682 -14.23843 -10.10883 -10.08920
  Beta  occ. eigenvalues --  -10.08354 -10.08227 -10.08165 -10.08067 -10.07756
  Beta  occ. eigenvalues --  -10.07127 -10.07043 -10.06785 -10.06736 -10.06607
  Beta  occ. eigenvalues --  -10.06335  -1.01123  -0.85696  -0.76776  -0.72372
  Beta  occ. eigenvalues --   -0.69515  -0.66513  -0.64518  -0.62511  -0.58879
  Beta  occ. eigenvalues --   -0.55909  -0.53725  -0.49288  -0.47330  -0.46081
  Beta  occ. eigenvalues --   -0.41544  -0.40625  -0.39323  -0.39056  -0.38210
  Beta  occ. eigenvalues --   -0.36915  -0.34820  -0.33751  -0.33377  -0.32536
  Beta  occ. eigenvalues --   -0.32203  -0.31323  -0.31002  -0.30587  -0.29518
  Beta  occ. eigenvalues --   -0.28759  -0.27450  -0.27387  -0.26350  -0.24766
  Beta  occ. eigenvalues --   -0.24024  -0.23153  -0.23057  -0.18210  -0.17445
  Beta  occ. eigenvalues --   -0.14573  -0.14167  -0.13405
  Beta virt. eigenvalues --    0.06411   0.07040   0.07274   0.07934   0.08165
  Beta virt. eigenvalues --    0.08526   0.08814   0.09180   0.09300   0.09508
  Beta virt. eigenvalues --    0.10149   0.10673   0.10973   0.11178   0.11799

 Mulliken charges and spin densities:
               1          2
     1  C   -0.105641  -0.469551
     2  C   -0.819793   0.361987
     3  C    0.340259   0.446836
     4  C   -1.335449   0.365496
     5  C    0.269824   0.206039
     6  C    0.063344  -0.290001
     7  C    0.470933  -0.037319
     8  C   -0.241405  -0.474570
     9  C    1.776931  -2.233181
    10  C    0.459081   0.073944
    11  C    1.676430  -2.396360
    12  N   -0.063013  -0.213709
    13  N    0.244330   0.263094
    14  N   -0.565666   0.410019
    15  C   -1.682361   1.406797
    16  C    0.194517  -0.710187
    17  H   -0.050887   0.164939
    18  H    0.056096   0.069381
    19  H   -0.040375   0.199062
    20  H   -0.037676   0.172280
    21  H   -0.026646   0.176264
    22  H    0.271489  -0.119389
    23  H   -0.445892   0.604799
    24  H    0.005416   0.147797
    25  H   -0.258495   0.410759
    26  H   -0.044683   0.208435
    27  H   -0.122759   0.263374
    28  H   -0.251527   0.458428
    29  H   -0.293006   0.501371
    30  H   -0.073070   0.246114
    31  H   -0.234273   0.419273
    32  H    0.041262   0.071526
    33  H   -0.177292   0.296251
 Sum of Mulliken charges =  -1.00000   1.00000

 Dipole moment (field-independent basis, Debye):
    X=             -1.4333    Y=              1.0978    Z=              3.1314  Tot=              3.6145
 Quadrupole moment (field-independent basis, Debye-Ang):
   XX=           -151.9236   YY=           -150.5504   ZZ=           -132.8343
   XY=              0.1012   XZ=              1.9742   YZ=             -3.1804

 Summary of Natural Population Analysis:

                                       Natural Population
                Natural  -----------------------------------------------
    Atom  No    Charge         Core      Valence    Rydberg      Total
 -----------------------------------------------------------------------
      C    1   -0.28208      0.99966     2.27829    0.00414     3.28208
      C    2   -0.19445      0.99961     2.18726    0.00758     3.19445
      C    3   -0.00654      0.99951     1.99739    0.00964     3.00654
      C    4   -0.10419      0.99946     2.09557    0.00917     3.10419
      C    5   -0.00436      0.99949     1.99341    0.01146     3.00436
      C    6   -0.10248      0.99946     2.09360    0.00943     3.10248
      C    7   -0.00961      0.99952     2.00106    0.00903     3.00961
      C    8   -0.10478      0.99946     2.09587    0.00945     3.10478
      C    9   -0.29258      0.99964     2.28725    0.00570     3.29258
      C   10   -0.14036      0.99953     2.12540    0.01544     3.14036
      C   11   -0.07973      0.99956     2.06815    0.01202     3.07973
      N   12   -0.20771      0.99970     2.69358    0.01442     3.70771
      N   13    0.13246      0.99970     2.35242    0.01542     3.36754
      N   14   -0.02328      0.99981     2.51042    0.01305     3.52328
      C   15   -0.07438      0.99954     2.06467    0.01017     3.07438
      C   16   -0.18870      0.99956     2.18299    0.00616     3.18870
      H   17    0.09275      0.00000     0.40617    0.00108     0.40725
      H   18    0.09641      0.00000     0.40241    0.00118     0.40359
      H   19    0.10758      0.00000     0.39110    0.00132     0.39242
      H   20    0.09651      0.00000     0.40228    0.00120     0.40349
      H   21    0.09788      0.00000     0.40088    0.00124     0.40212
      H   22    0.10142      0.00000     0.39655    0.00203     0.39858
      H   23    0.10021      0.00000     0.39787    0.00193     0.39979
      H   24    0.09663      0.00000     0.40237    0.00100     0.40337
      H   25    0.10495      0.00000     0.39386    0.00119     0.39505
      H   26    0.10350      0.00000     0.39558    0.00092     0.39650
      H   27    0.10212      0.00000     0.39692    0.00096     0.39788
      H   28    0.10604      0.00000     0.39152    0.00244     0.39396
      H   29    0.10052      0.00000     0.39764    0.00185     0.39948
      H   30    0.09687      0.00000     0.40139    0.00174     0.40313
      H   31    0.09781      0.00000     0.40021    0.00198     0.40219
      H   32    0.09126      0.00000     0.40770    0.00104     0.40874
      H   33    0.09032      0.00000     0.40837    0.00131     0.40968
 =======================================================================
   * Total *    0.00000     15.99320    41.82013    0.18667    58.00000

 Normal termination of Gaussian 16 at Fri Dec 11 04:56:26 2020.
