 Gaussian 16, Revision A.03,

 -----------------------------------------------------------
 # opt freq B3LYP/6-31G(d) empiricaldispersion=gd3bj scf=xqc
 -----------------------------------------------------------

 ------------------------------
 CID_101810437_JID_956_neutraal
 ------------------------------
 Symbolic Z-matrix:
 Charge =  0 Multiplicity = 1

 SCF Done:  E(RB3LYP) =  -1181.52036835     A.U. after   16 cycles
 SCF Done:  E(RB3LYP) =  -1181.52346639     A.U. after   12 cycles
 SCF Done:  E(RB3LYP) =  -1181.52392622     A.U. after   11 cycles
 SCF Done:  E(RB3LYP) =  -1181.52399910     A.U. after   11 cycles
 SCF Done:  E(RB3LYP) =  -1181.52402941     A.U. after   11 cycles
 SCF Done:  E(RB3LYP) =  -1181.52398407     A.U. after   12 cycles
 SCF Done:  E(RB3LYP) =  -1181.52400368     A.U. after   12 cycles
 SCF Done:  E(RB3LYP) =  -1181.52402762     A.U. after   11 cycles
 SCF Done:  E(RB3LYP) =  -1181.52403056     A.U. after   10 cycles
 SCF Done:  E(RB3LYP) =  -1181.52403457     A.U. after    9 cycles
 SCF Done:  E(RB3LYP) =  -1181.52403456     A.U. after    8 cycles
 SCF Done:  E(RB3LYP) =  -1181.52403466     A.U. after    8 cycles
 Optimization completed.
    -- Stationary point found.
 Normal termination of Gaussian 16 at Tue Dec  8 13:36:06 2020.

 --------------------------------------------------------------------
 #N Geom=AllCheck Guess=TCheck SCRF=Check GenChk RB3LYP/6-31G(d) Freq
 --------------------------------------------------------------------

 Structure from the checkpoint file:  "JID_956.chk"
 ------------------------------
 CID_101810437_JID_956_neutraal
 ------------------------------
 Charge =  0 Multiplicity = 1

 SCF Done:  E(RB3LYP) =  -1181.52403466     A.U. after    1 cycles

  Exact polarizability: 120.709   5.340 121.255  -0.001  -0.000  68.842
 Approx polarizability: 152.742  12.983 246.055  -0.002  -0.000  98.947

                      1                      2                      3
                      A                      A                      A
 Frequencies --     25.1533                60.9448               114.0478
 Red. masses --      5.9207                 4.7585                 3.9213
 Frc consts  --      0.0022                 0.0104                 0.0301
 IR Inten    --      1.0036                 1.9462                 0.4707

                      4                      5                      6
                      A                      A                      A
 Frequencies --    114.6124               207.7612               219.0247
 Red. masses --      6.1143                 1.0653                 5.2686
 Frc consts  --      0.0473                 0.0271                 0.1489
 IR Inten    --      1.4158                 0.0534                 4.3715

                      7                      8                      9
                      A                      A                      A
 Frequencies --    250.2179               256.7983               271.1514
 Red. masses --      3.0468                 1.2430                 1.0717
 Frc consts  --      0.1124                 0.0483                 0.0464
 IR Inten    --      2.9386                 0.5238                 0.0969

                     10                     11                     12
                      A                      A                      A
 Frequencies --    329.6118               339.9404               350.9505
 Red. masses --      3.7283                 2.9425                 5.4146
 Frc consts  --      0.2387                 0.2003                 0.3929
 IR Inten    --     13.1104                 0.5487                 0.1097

                     13                     14                     15
                      A                      A                      A
 Frequencies --    392.8682               427.4056               467.7937
 Red. masses --      4.6534                 3.1356                 1.1931
 Frc consts  --      0.4232                 0.3375                 0.1538
 IR Inten    --      0.6970                 6.2911                16.8371

                     16                     17                     18
                      A                      A                      A
 Frequencies --    469.5805               476.8212               500.1397
 Red. masses --      2.9211                 2.6883                 8.1365
 Frc consts  --      0.3795                 0.3601                 1.1991
 IR Inten    --      8.9606                 0.5307                 1.2615

                     19                     20                     21
                      A                      A                      A
 Frequencies --    719.8788               763.8498               803.8813
 Red. masses --      5.4705                11.7724                 4.3537
 Frc consts  --      1.6703                 4.0470                 1.6577
 IR Inten    --      9.5310                18.1447                25.6299

                     22                     23                     24
                      A                      A                      A
 Frequencies --    856.1151               934.0873               939.8747
 Red. masses --      4.2761                 1.5970                 1.6242
 Frc consts  --      1.8466                 0.8210                 0.8453
 IR Inten    --     46.8174                13.0553                 0.1359

                     25                     26                     27
                      A                      A                      A
 Frequencies --    944.9771               985.4397              1027.5812
 Red. masses --      1.6476                 1.1985                 3.5223
 Frc consts  --      0.8668                 0.6857                 2.1913
 IR Inten    --      5.1364                 0.1550               152.2098

                     28                     29                     30
                      A                      A                      A
 Frequencies --   1066.8918              1075.0794              1194.8556
 Red. masses --      1.4094                 1.4707                 5.5520
 Frc consts  --      0.9452                 1.0015                 4.6702
 IR Inten    --      0.3986                10.1477                89.7307

                     31                     32                     33
                      A                      A                      A
 Frequencies --   1216.2536              1288.8898              1300.2756
 Red. masses --      2.2553                 2.7170                 2.9660
 Frc consts  --      1.9657                 2.6593                 2.9546
 IR Inten    --    266.5845                15.7748                60.3599

                     34                     35                     36
                      A                      A                      A
 Frequencies --   1330.0596              1426.3972              1430.1664
 Red. masses --      7.6467                 1.2747                 1.2854
 Frc consts  --      7.9702                 1.5281                 1.5490
 IR Inten    --    287.4423                17.5900                20.9426

                     37                     38                     39
                      A                      A                      A
 Frequencies --   1455.3284              1500.0457              1518.7128
 Red. masses --      1.2333                 1.0462                 1.0460
 Frc consts  --      1.5390                 1.3869                 1.4215
 IR Inten    --     13.0343                 0.4208                 0.4602

                     40                     41                     42
                      A                      A                      A
 Frequencies --   1520.3164              1526.2366              1533.7124
 Red. masses --      1.0522                 1.0644                 1.0531
 Frc consts  --      1.4328                 1.4609                 1.4595
 IR Inten    --      0.5616                13.7638                 1.2595

                     43                     44                     45
                      A                      A                      A
 Frequencies --   1555.6137              1780.5120              2691.7266
 Red. masses --      1.0552                12.0481                 1.0379
 Frc consts  --      1.5044                22.5040                 4.4305
 IR Inten    --      9.8683               168.1397                 6.3193

                     46                     47                     48
                      A                      A                      A
 Frequencies --   3063.1651              3064.1386              3071.1016
 Red. masses --      1.0355                 1.0376                 1.0376
 Frc consts  --      5.7246                 5.7397                 5.7661
 IR Inten    --      6.0305                19.0824                16.4201

                     49                     50                     51
                      A                      A                      A
 Frequencies --   3128.1168              3129.5813              3142.1617
 Red. masses --      1.1026                 1.1025                 1.1027
 Frc consts  --      6.3568                 6.3624                 6.4143
 IR Inten    --      7.0375                12.7546                39.5437

                     52                     53                     54
                      A                      A                      A
 Frequencies --   3143.3448              3170.5681              3173.4976
 Red. masses --      1.1035                 1.1007                 1.1000
 Frc consts  --      6.4241                 6.5193                 6.5273
 IR Inten    --     22.8324                 0.8893                12.4040

 - Thermochemistry -
 -------------------
 Temperature   298.150 Kelvin.  Pressure   1.00000 Atm.
 Atom     1 has atomic number  6 and mass  12.00000

 Molecular mass:   178.01222 amu.
 Principal axes and moments of inertia in atomic units:
                           1         2         3
     Eigenvalues --  1080.201113053.829483729.27584
           X            1.00000   0.00312  -0.00000
           Y           -0.00312   1.00000   0.00000
           Z            0.00000  -0.00000   1.00000
 This molecule is an asymmetric top.
 Rotational symmetry number  1.
 Warning -- assumption of classical behavior for rotation
           may cause significant error
 Rotational temperatures (Kelvin)      0.08018     0.02836     0.02323
 Rotational constants (GHZ):           1.67075     0.59098     0.48394
 Zero-point vibrational energy     405218.6 (Joules/Mol)
                                   96.84957 (Kcal/Mol)
 Warning -- explicit consideration of  18 degrees of freedom as
           vibrations may cause significant error
 Vibrational temperatures:     36.19    87.69   164.09   164.90   298.92
          (Kelvin)            315.13   360.01   369.48   390.13   474.24
                              489.10   504.94   565.25   614.94   673.05
                              675.62   686.04   719.59  1035.74  1099.01
                             1156.61  1231.76  1343.94  1352.27  1359.61
                             1417.83  1478.46  1535.02  1546.80  1719.13
                             1749.92  1854.42  1870.81  1913.66  2052.27
                             2057.69  2093.89  2158.23  2185.09  2187.40
                             2195.91  2206.67  2238.18  2561.76  3872.79
                             4407.21  4408.61  4418.63  4500.66  4502.77
                             4520.87  4522.57  4561.74  4565.96

 Zero-point correction=                           0.154340 (Hartree/Particle)
 Thermal correction to Energy=                    0.166184
 Thermal correction to Enthalpy=                  0.167128
 Thermal correction to Gibbs Free Energy=         0.115553
 Sum of electronic and zero-point Energies=          -1181.369695
 Sum of electronic and thermal Energies=             -1181.357851
 Sum of electronic and thermal Enthalpies=           -1181.356907
 Sum of electronic and thermal Free Energies=        -1181.408482

                     E (Thermal)             CV                S
                      KCal/Mol        Cal/Mol-Kelvin    Cal/Mol-Kelvin
 Total                  104.282             42.513            108.549
 Electronic               0.000              0.000              0.000
 Translational            0.889              2.981             41.437
 Rotational               0.889              2.981             30.887
 Vibrational            102.504             36.552             36.224
 Vibration     1          0.593              1.985              6.179
 Vibration     2          0.597              1.973              4.426
 Vibration     3          0.607              1.938              3.199
 Vibration     4          0.608              1.937              3.189
 Vibration     5          0.641              1.829              2.063
 Vibration     6          0.647              1.812              1.967
 Vibration     7          0.663              1.762              1.729
 Vibration     8          0.666              1.751              1.683
 Vibration     9          0.675              1.726              1.589
 Vibration    10          0.712              1.616              1.262
 Vibration    11          0.720              1.596              1.212
 Vibration    12          0.728              1.573              1.162
 Vibration    13          0.760              1.485              0.989
 Vibration    14          0.789              1.411              0.867
 Vibration    15          0.825              1.321              0.744
 Vibration    16          0.827              1.318              0.739
 Vibration    17          0.833              1.301              0.719
 Vibration    18          0.856              1.250              0.658

 Optimization completed.
    -- Stationary point found.
 Normal termination of Gaussian 16 at Tue Dec  8 13:39:50 2020.

 ----------------------------------------------------------------------
 # B3LYP/6-311++G(d,p) empiricaldispersion=gd3bj scf=xqc pop=npa geom=c
 heck
 ----------------------------------------------------------------------

 --------------------------------------
 CID_101810437_JID_956_Energie_neutraal
 --------------------------------------
 Structure from the checkpoint file:  "JID_956.chk"
 Charge =  0 Multiplicity = 1

 SCF Done:  E(RB3LYP) =  -1181.69179850     A.U. after   15 cycles
 Normal termination of Gaussian 16 at Tue Dec  8 13:42:57 2020.

 ----------------------------------------------------------------------
 # B3LYP/6-311++G(d,p) empiricaldispersion=gd3bj scf=xqc pop=npa geom=c
 heck
 ----------------------------------------------------------------------

 ------------------------------------
 CID_101810437_JID_956_Energie_kation
 ------------------------------------
 Structure from the checkpoint file:  "JID_956.chk"
 Charge =  1 Multiplicity = 2

 SCF Done:  E(UB3LYP) =  -1181.37653825     A.U. after   21 cycles
 Normal termination of Gaussian 16 at Tue Dec  8 13:47:32 2020.
 Gaussian 16:  ES64L-G16RevA.03 25-Dec-2016

 ----------------------------------------------------------------------
 # B3LYP/6-311++G(d,p) empiricaldispersion=gd3bj scf=xqc pop=npa geom=c
 heck
 ----------------------------------------------------------------------

 -----------------------------------
 CID_101810437_JID_956_Energie_anion
 -----------------------------------
 Structure from the checkpoint file:  "JID_956.chk"
 Charge = -1 Multiplicity = 2

                         Standard orientation:
 ---------------------------------------------------------------------
 Center     Atomic      Atomic             Coordinates (Angstroms)
 Number     Number       Type             X           Y           Z
 ---------------------------------------------------------------------
      1          6           0        2.901450    1.382201    0.000101
      2          6           0        2.176120    0.038897    0.000015
      3          6           0        2.478563   -0.752731   -1.272236
      4          6           0        2.478411   -0.752813    1.272252
      5          8           0        0.752830    0.450951   -0.000054
      6          6           0       -0.222607   -0.441895   -0.000116
      7          8           0       -0.113774   -1.653949   -0.000039
      8          6           0       -1.604921    0.212361   -0.000063
      9         16           0       -1.873026    1.824119   -0.000006
     10         16           0       -2.822910   -1.060357    0.000035
     11          1           0        3.983858    1.219545    0.000160
     12          1           0        2.634162    1.963634    0.887418
     13          1           0        2.634267    1.963690   -0.887211
     14          1           0        3.555577   -0.943014   -1.329177
     15          1           0        1.953929   -1.709100   -1.280425
     16          1           0        2.186845   -0.176560   -2.156307
     17          1           0        2.186591   -0.176697    2.156325
     18          1           0        1.953773   -1.709180    1.280319
     19          1           0        3.555418   -0.943104    1.329306
     20          1           0       -3.863979   -0.201558    0.000136
 ---------------------------------------------------------------------

 SCF Done:  E(UB3LYP) =  -1181.74065276     A.U. after   19 cycles

 The electronic state is 2-A.
 Alpha  occ. eigenvalues --  -88.69389 -88.62620 -19.01454 -18.94384 -10.13311
 Alpha  occ. eigenvalues --  -10.13107 -10.06051 -10.05485 -10.05484 -10.04934
 Alpha  occ. eigenvalues --   -7.78071  -7.71414  -5.74435  -5.74020  -5.73563
 Alpha  occ. eigenvalues --   -5.67699  -5.67510  -5.66942  -0.95616  -0.86701
 Alpha  occ. eigenvalues --   -0.70458  -0.64980  -0.59169  -0.59047  -0.54937
 Alpha  occ. eigenvalues --   -0.50860  -0.43406  -0.39487  -0.35312  -0.35064
 Alpha  occ. eigenvalues --   -0.32609  -0.31319  -0.29913  -0.29684  -0.27461
 Alpha  occ. eigenvalues --   -0.27176  -0.26567  -0.24969  -0.24217  -0.23617
 Alpha  occ. eigenvalues --   -0.20312  -0.18225  -0.17263  -0.16182  -0.12904
 Alpha  occ. eigenvalues --   -0.08300  -0.04226   0.01923
 Alpha virt. eigenvalues --    0.07387   0.09914   0.09961   0.10866   0.11993
 Alpha virt. eigenvalues --    0.12736   0.13074   0.14046   0.14114   0.15052
 Alpha virt. eigenvalues --    0.15657   0.16383   0.16934   0.17189   0.17629

  Beta  occ. eigenvalues --  -88.69367 -88.62451 -19.01379 -18.94083 -10.13183
  Beta  occ. eigenvalues --  -10.13112 -10.06050 -10.05480 -10.05480 -10.04277
  Beta  occ. eigenvalues --   -7.78051  -7.71262  -5.74433  -5.74022  -5.73469
  Beta  occ. eigenvalues --   -5.67625  -5.66964  -5.66846  -0.95364  -0.86243
  Beta  occ. eigenvalues --   -0.70387  -0.64108  -0.59162  -0.59038  -0.54463
  Beta  occ. eigenvalues --   -0.50476  -0.42628  -0.39320  -0.35185  -0.34949
  Beta  occ. eigenvalues --   -0.32411  -0.30898  -0.29731  -0.29542  -0.27031
  Beta  occ. eigenvalues --   -0.26799  -0.26443  -0.24523  -0.23789  -0.23441
  Beta  occ. eigenvalues --   -0.20081  -0.17746  -0.16059  -0.14186  -0.12523
  Beta  occ. eigenvalues --   -0.06442  -0.03823
  Beta virt. eigenvalues --    0.07373   0.09340   0.09890   0.10118   0.10847
  Beta virt. eigenvalues --    0.11976   0.12718   0.13047   0.14025   0.14120
  Beta virt. eigenvalues --    0.15108   0.15648   0.16441   0.17021   0.17427

 Mulliken charges and spin densities:
               1          2
     1  C   -0.353352  -0.005545
     2  C   -0.054468  -0.019869
     3  C   -0.412962   0.004824
     4  C   -0.413069   0.004839
     5  O    0.181426   0.002982
     6  C   -0.810586   0.070172
     7  O   -0.277806   0.108399
     8  C    0.793899   0.356744
     9  S   -0.678957   0.370890
    10  S   -0.298648   0.097902
    11  H    0.114444  -0.000220
    12  H    0.148888   0.002171
    13  H    0.148887   0.002167
    14  H    0.123327   0.002096
    15  H    0.189579   0.001813
    16  H    0.136760   0.001152
    17  H    0.136770   0.001152
    18  H    0.189583   0.001814
    19  H    0.123305   0.002100
    20  H    0.012981  -0.005583
 Sum of Mulliken charges =  -1.00000   1.00000

 Dipole moment (field-independent basis, Debye):
    X=              7.7064    Y=             -1.3119    Z=              0.0001  Tot=              7.8172
 Quadrupole moment (field-independent basis, Debye-Ang):
   XX=            -96.9440   YY=           -100.6735   ZZ=            -82.9466
   XY=              4.6017   XZ=             -0.0004   YZ=              0.0001

 Summary of Natural Population Analysis:

                                       Natural Population
                Natural  -----------------------------------------------
    Atom  No    Charge         Core      Valence    Rydberg      Total
 -----------------------------------------------------------------------
      C    1   -0.28804      0.99961     2.28251    0.00592     3.28804
      C    2    0.13431      0.99955     1.85522    0.01092     2.86569
      C    3   -0.30098      0.99961     2.29603    0.00534     3.30098
      C    4   -0.30098      0.99961     2.29603    0.00534     3.30098
      O    5   -0.27731      0.99984     3.26644    0.01102     4.27731
      C    6    0.39593      0.99959     1.57562    0.02886     2.60407
      O    7   -0.29706      0.99987     3.29189    0.00530     4.29706
      C    8   -0.09379      0.99966     2.07639    0.01774     3.09379
      S    9    0.02575      4.99938     2.95775    0.01712     7.97425
      S   10    0.02597      4.99948     2.95582    0.01873     7.97403
      H   11    0.09125      0.00000     0.40792    0.00083     0.40875
      H   12    0.10502      0.00000     0.39414    0.00083     0.39498
      H   13    0.10502      0.00000     0.39414    0.00083     0.39498
      H   14    0.09174      0.00000     0.40741    0.00085     0.40826
      H   15    0.11752      0.00000     0.38158    0.00090     0.38248
      H   16    0.10209      0.00000     0.39708    0.00083     0.39791
      H   17    0.10209      0.00000     0.39708    0.00083     0.39791
      H   18    0.11752      0.00000     0.38158    0.00090     0.38248
      H   19    0.09174      0.00000     0.40741    0.00085     0.40826
      H   20    0.05220      0.00000     0.44384    0.00396     0.44780
 =======================================================================
   * Total *    0.00000     17.99620    28.86590    0.13790    47.00000

 Normal termination of Gaussian 16 at Tue Dec  8 13:53:13 2020.
