 Gaussian 16, Revision A.03,

 -----------------------------------------------------------
 # opt freq B3LYP/6-31G(d) empiricaldispersion=gd3bj scf=xqc
 -----------------------------------------------------------

 -------------------------------
 CID_117374149_JID_8623_neutraal
 -------------------------------
 Symbolic Z-matrix:
 Charge =  0 Multiplicity = 1

 SCF Done:  E(RB3LYP) =  -805.510727799     A.U. after   14 cycles
 SCF Done:  E(RB3LYP) =  -805.520465828     A.U. after   12 cycles
 SCF Done:  E(RB3LYP) =  -805.521581074     A.U. after   11 cycles
 SCF Done:  E(RB3LYP) =  -805.521777388     A.U. after   11 cycles
 SCF Done:  E(RB3LYP) =  -805.521817488     A.U. after   11 cycles
 SCF Done:  E(RB3LYP) =  -805.521826201     A.U. after    9 cycles
 SCF Done:  E(RB3LYP) =  -805.521829691     A.U. after    8 cycles
 SCF Done:  E(RB3LYP) =  -805.521830936     A.U. after    8 cycles
 SCF Done:  E(RB3LYP) =  -805.521832140     A.U. after    9 cycles
 SCF Done:  E(RB3LYP) =  -805.521832903     A.U. after    8 cycles
 SCF Done:  E(RB3LYP) =  -805.521934736     A.U. after    7 cycles
 SCF Done:  E(RB3LYP) =  -805.521934949     A.U. after    8 cycles
 SCF Done:  E(RB3LYP) =  -805.521935144     A.U. after    7 cycles
 SCF Done:  E(RB3LYP) =  -805.521935185     A.U. after    7 cycles
 SCF Done:  E(RB3LYP) =  -805.521935233     A.U. after    7 cycles
 Optimization completed.
    -- Stationary point found.
 Normal termination of Gaussian 16 at Fri Dec 11 21:42:36 2020.

 --------------------------------------------------------------------
 #N Geom=AllCheck Guess=TCheck SCRF=Check GenChk RB3LYP/6-31G(d) Freq
 --------------------------------------------------------------------

 Structure from the checkpoint file:  "JID_8623.chk"
 -------------------------------
 CID_117374149_JID_8623_neutraal
 -------------------------------
 Charge =  0 Multiplicity = 1

 SCF Done:  E(RB3LYP) =  -805.521935233     A.U. after    1 cycles

  Exact polarizability: 220.145  -2.026 150.200  -7.083  -6.107 119.505
 Approx polarizability: 287.258  -5.224 252.185 -15.939 -17.376 173.789

                      1                      2                      3
                      A                      A                      A
 Frequencies --     19.7841                32.6565                62.1880
 Red. masses --      3.9683                 4.2823                 3.2789
 Frc consts  --      0.0009                 0.0027                 0.0075
 IR Inten    --      0.1349                 0.1948                 0.0699

                      4                      5                      6
                      A                      A                      A
 Frequencies --     96.1390               109.6258               125.9817
 Red. masses --      2.6914                 3.1734                 1.8820
 Frc consts  --      0.0147                 0.0225                 0.0176
 IR Inten    --      9.0107                 1.5925                 8.5548

                      7                      8                      9
                      A                      A                      A
 Frequencies --    136.9056               150.1076               162.5224
 Red. masses --      1.1309                 2.8203                 3.8093
 Frc consts  --      0.0125                 0.0374                 0.0593
 IR Inten    --      0.8091                 3.8415                 0.5967

                     10                     11                     12
                      A                      A                      A
 Frequencies --    208.3384               218.0110               223.1661
 Red. masses --      3.7259                 3.0450                 1.6461
 Frc consts  --      0.0953                 0.0853                 0.0483
 IR Inten    --      0.0898                 4.1856                16.2684

                     13                     14                     15
                      A                      A                      A
 Frequencies --    255.8230               266.5128               277.2047
 Red. masses --      1.0883                 1.7891                 4.8282
 Frc consts  --      0.0420                 0.0749                 0.2186
 IR Inten    --      6.8147                28.6913                 0.8591

                     16                     17                     18
                      A                      A                      A
 Frequencies --    284.3594               344.2276               362.7038
 Red. masses --      3.4503                 3.3374                 2.9581
 Frc consts  --      0.1644                 0.2330                 0.2293
 IR Inten    --      1.2638                 2.2755                 1.2649

                     19                     20                     21
                      A                      A                      A
 Frequencies --    383.3807               413.8598               471.6176
 Red. masses --      2.6213                 3.8020                 3.0457
 Frc consts  --      0.2270                 0.3837                 0.3991
 IR Inten    --      1.7499                 1.6631                 6.8249

                     22                     23                     24
                      A                      A                      A
 Frequencies --    488.4116               507.1459               523.4422
 Red. masses --      4.1947                 3.6744                 5.6261
 Frc consts  --      0.5895                 0.5568                 0.9082
 IR Inten    --      7.3922                 0.3452                 2.1656

                     25                     26                     27
                      A                      A                      A
 Frequencies --    581.9281               642.8813               664.6054
 Red. masses --      3.7916                 4.3547                 4.3537
 Frc consts  --      0.7565                 1.0604                 1.1330
 IR Inten    --      2.5107                 2.9555                 0.4391

                     28                     29                     30
                      A                      A                      A
 Frequencies --    675.8817               682.8563               729.0008
 Red. masses --      4.8904                 3.4911                 6.7937
 Frc consts  --      1.3162                 0.9591                 2.1272
 IR Inten    --      3.0096                 7.4533                 0.0663

                     31                     32                     33
                      A                      A                      A
 Frequencies --    761.4288               786.9982               827.2079
 Red. masses --      8.7062                 3.9429                 2.3848
 Frc consts  --      2.9740                 1.4388                 0.9615
 IR Inten    --      1.3417                 2.4135                11.6826

                     34                     35                     36
                      A                      A                      A
 Frequencies --    833.6157               863.5689               875.3409
 Red. masses --      1.4786                 2.2978                 1.4847
 Frc consts  --      0.6054                 1.0096                 0.6703
 IR Inten    --     18.4872                21.9985               140.9056

                     37                     38                     39
                      A                      A                      A
 Frequencies --    929.0644               943.0642               946.9939
 Red. masses --      2.0009                 2.2234                 1.3008
 Frc consts  --      1.0176                 1.1651                 0.6873
 IR Inten    --     16.6135                15.5443                 1.7403

                     40                     41                     42
                      A                      A                      A
 Frequencies --    964.2215               977.3259               999.2138
 Red. masses --      2.0425                 6.4245                 1.8874
 Frc consts  --      1.1188                 3.6155                 1.1103
 IR Inten    --      6.4185                35.3533                10.4482

                     43                     44                     45
                      A                      A                      A
 Frequencies --   1014.8206              1036.0476              1057.5778
 Red. masses --      2.5909                 3.0139                 2.0607
 Frc consts  --      1.5721                 1.9061                 1.3579
 IR Inten    --      0.6009                20.2217                 1.3198

                     46                     47                     48
                      A                      A                      A
 Frequencies --   1070.7703              1072.1219              1084.4455
 Red. masses --      1.7001                 2.1800                 3.0735
 Frc consts  --      1.1485                 1.4764                 2.1296
 IR Inten    --     11.1574                 8.6855                26.5330

                     49                     50                     51
                      A                      A                      A
 Frequencies --   1087.7567              1116.6772              1145.9619
 Red. masses --      2.2030                 2.3370                 1.8789
 Frc consts  --      1.5358                 1.7170                 1.4538
 IR Inten    --    123.2336                70.5721                23.8935

                     52                     53                     54
                      A                      A                      A
 Frequencies --   1156.9974              1159.1622              1162.2763
 Red. masses --      1.5355                 1.5142                 1.3169
 Frc consts  --      1.2111                 1.1987                 1.0482
 IR Inten    --     14.2737                 7.8292                 6.5535

                     55                     56                     57
                      A                      A                      A
 Frequencies --   1202.2174              1205.7254              1211.5697
 Red. masses --      1.8025                 1.4107                 1.6083
 Frc consts  --      1.5349                 1.2084                 1.3910
 IR Inten    --     13.5067                 9.3971                 6.3919

                     58                     59                     60
                      A                      A                      A
 Frequencies --   1219.7874              1229.0672              1256.4807
 Red. masses --      1.2900                 2.0731                 1.9547
 Frc consts  --      1.1309                 1.8451                 1.8182
 IR Inten    --      0.6013                 9.3787                11.5679

                     61                     62                     63
                      A                      A                      A
 Frequencies --   1279.9982              1285.1334              1297.8909
 Red. masses --      1.8296                 1.9776                 3.8272
 Frc consts  --      1.7661                 1.9244                 3.7984
 IR Inten    --     12.8166                14.8866               229.1659

                     64                     65                     66
                      A                      A                      A
 Frequencies --   1304.3679              1327.0726              1334.1629
 Red. masses --      1.3378                 1.4214                 1.3494
 Frc consts  --      1.3410                 1.4748                 1.4151
 IR Inten    --     11.1943                 1.7291                 2.7252

                     67                     68                     69
                      A                      A                      A
 Frequencies --   1362.9271              1380.9248              1391.9511
 Red. masses --      1.2355                 2.8616                 1.3899
 Frc consts  --      1.3522                 3.2152                 1.5867
 IR Inten    --      1.8748                72.5919                14.7347

                     70                     71                     72
                      A                      A                      A
 Frequencies --   1402.3089              1428.8680              1443.0989
 Red. masses --      1.5383                 1.7683                 1.2632
 Frc consts  --      1.7822                 2.1271                 1.5500
 IR Inten    --      0.6377                11.0154                 1.3303

                     73                     74                     75
                      A                      A                      A
 Frequencies --   1447.6104              1451.7330              1480.0751
 Red. masses --      1.4700                 1.3850                 1.2052
 Frc consts  --      1.8150                 1.7198                 1.5555
 IR Inten    --     14.2090                 1.2322                 2.9746

                     76                     77                     78
                      A                      A                      A
 Frequencies --   1497.6737              1517.6961              1520.8048
 Red. masses --      2.4329                 2.2859                 1.1219
 Frc consts  --      3.2153                 3.1022                 1.5288
 IR Inten    --    158.8752                 9.5477                 5.4658

                     79                     80                     81
                      A                      A                      A
 Frequencies --   1522.9117              1524.6256              1531.9280
 Red. masses --      1.0639                 1.1004                 1.1155
 Frc consts  --      1.4538                 1.5071                 1.5424
 IR Inten    --      4.4210                18.6820                18.1671

                     82                     83                     84
                      A                      A                      A
 Frequencies --   1532.5319              1536.3228              1544.1754
 Red. masses --      1.3555                 1.0880                 1.1079
 Frc consts  --      1.8757                 1.5130                 1.5565
 IR Inten    --    104.2056                 3.9250                 3.5351

                     85                     86                     87
                      A                      A                      A
 Frequencies --   1572.7591              1661.3325              1694.2985
 Red. masses --      1.1290                 7.1313                 8.3898
 Frc consts  --      1.6454                11.5966                14.1899
 IR Inten    --      2.2493                 5.5825                 3.5943

                     88                     89                     90
                      A                      A                      A
 Frequencies --   1698.8020              2918.5423              2926.8963
 Red. masses --      1.0892                 1.0756                 1.0765
 Frc consts  --      1.8521                 5.3981                 5.4337
 IR Inten    --     32.3772                37.8162                29.6891

                     91                     92                     93
                      A                      A                      A
 Frequencies --   2939.7050              2961.8321              3016.2028
 Red. masses --      1.0647                 1.0718                 1.0686
 Frc consts  --      5.4212                 5.5396                 5.7278
 IR Inten    --    149.4120                61.4580               153.8104

                     94                     95                     96
                      A                      A                      A
 Frequencies --   3049.2603              3063.5346              3065.8426
 Red. masses --      1.0393                 1.0854                 1.0885
 Frc consts  --      5.6935                 6.0021                 6.0278
 IR Inten    --     25.3796                46.3003                32.0866

                     97                     98                     99
                      A                      A                      A
 Frequencies --   3072.5318              3085.5560              3089.9041
 Red. masses --      1.0626                 1.0716                 1.0885
 Frc consts  --      5.9102                 6.0110                 6.1230
 IR Inten    --     25.1588                43.8747                29.8195

                    100                    101                    102
                      A                      A                      A
 Frequencies --   3099.1259              3118.4152              3120.9227
 Red. masses --      1.1004                 1.1038                 1.1022
 Frc consts  --      6.2273                 6.3242                 6.3254
 IR Inten    --     16.7134                33.3162                58.9379

                    103                    104                    105
                      A                      A                      A
 Frequencies --   3135.3243              3146.4229              3213.8700
 Red. masses --      1.1021                 1.0991                 1.0877
 Frc consts  --      6.3832                 6.4110                 6.6193
 IR Inten    --     24.9159                12.6413                 1.6413

                    106                    107                    108
                      A                      A                      A
 Frequencies --   3228.4775              3465.3566              3547.0139
 Red. masses --      1.0944                 1.0499                 1.0916
 Frc consts  --      6.7205                 7.4287                 8.0915
 IR Inten    --      7.5995                 3.2400                 1.1881

 - Thermochemistry -
 -------------------
 Temperature   298.150 Kelvin.  Pressure   1.00000 Atm.
 Atom     1 has atomic number  6 and mass  12.00000

 Molecular mass:   248.15248 amu.
 Principal axes and moments of inertia in atomic units:
                           1         2         3
     Eigenvalues --  1864.982938840.878679113.25979
           X            0.99997   0.00742   0.00026
           Y           -0.00742   0.99984   0.01610
           Z           -0.00014  -0.01610   0.99987
 This molecule is an asymmetric top.
 Rotational symmetry number  1.
 Warning -- assumption of classical behavior for rotation
           may cause significant error
 Rotational temperatures (Kelvin)      0.04644     0.00980     0.00950
 Rotational constants (GHZ):           0.96770     0.20414     0.19803
 Zero-point vibrational energy     864526.2 (Joules/Mol)
                                  206.62673 (Kcal/Mol)
 Warning -- explicit consideration of  25 degrees of freedom as
           vibrations may cause significant error
 Vibrational temperatures:     28.46    46.99    89.47   138.32   157.73
          (Kelvin)            181.26   196.98   215.97   233.83   299.75
                              313.67   321.09   368.07   383.45   398.84
                              409.13   495.27   521.85   551.60   595.45
                              678.55   702.72   729.67   753.12   837.26
                              924.96   956.22   972.44   982.48  1048.87
                             1095.53  1132.31  1190.17  1199.39  1242.48
                             1259.42  1336.72  1356.86  1362.51  1387.30
                             1406.15  1437.65  1460.10  1490.64  1521.62
                             1540.60  1542.54  1560.28  1565.04  1606.65
                             1648.78  1664.66  1667.78  1672.26  1729.72
                             1734.77  1743.18  1755.00  1768.35  1807.80
                             1841.63  1849.02  1867.38  1876.69  1909.36
                             1919.56  1960.95  1986.84  2002.71  2017.61
                             2055.82  2076.30  2082.79  2088.72  2129.50
                             2154.82  2183.63  2188.10  2191.13  2193.60
                             2204.10  2204.97  2210.43  2221.72  2262.85
                             2390.29  2437.72  2444.20  4199.13  4211.15
                             4229.58  4261.42  4339.64  4387.21  4407.74
                             4411.06  4420.69  4439.43  4445.68  4458.95
                             4486.70  4490.31  4511.03  4527.00  4624.04
                             4645.06  4985.88  5103.36

 Zero-point correction=                           0.329281 (Hartree/Particle)
 Thermal correction to Energy=                    0.346502
 Thermal correction to Enthalpy=                  0.347446
 Thermal correction to Gibbs Free Energy=         0.283312
 Sum of electronic and zero-point Energies=           -805.192655
 Sum of electronic and thermal Energies=              -805.175434
 Sum of electronic and thermal Enthalpies=            -805.174489
 Sum of electronic and thermal Free Energies=         -805.238623

                     E (Thermal)             CV                S
                      KCal/Mol        Cal/Mol-Kelvin    Cal/Mol-Kelvin
 Total                  217.433             65.670            134.981
 Electronic               0.000              0.000              0.000
 Translational            0.889              2.981             42.427
 Rotational               0.889              2.981             33.374
 Vibrational            215.656             59.708             59.180
 Vibration     1          0.593              1.986              6.656
 Vibration     2          0.594              1.983              5.661
 Vibration     3          0.597              1.972              4.387
 Vibration     4          0.603              1.952              3.531
 Vibration     5          0.606              1.942              3.276
 Vibration     6          0.611              1.927              3.006
 Vibration     7          0.614              1.916              2.847
 Vibration     8          0.618              1.903              2.671
 Vibration     9          0.623              1.888              2.520
 Vibration    10          0.642              1.828              2.058
 Vibration    11          0.646              1.814              1.976
 Vibration    12          0.649              1.806              1.933
 Vibration    13          0.666              1.753              1.690
 Vibration    14          0.672              1.735              1.619
 Vibration    15          0.678              1.716              1.551
 Vibration    16          0.683              1.703              1.507
 Vibration    17          0.723              1.587              1.192
 Vibration    18          0.737              1.549              1.110
 Vibration    19          0.753              1.506              1.026
 Vibration    20          0.777              1.440              0.913
 Vibration    21          0.829              1.313              0.733
 Vibration    22          0.844              1.276              0.688
 Vibration    23          0.862              1.234              0.640
 Vibration    24          0.878              1.198              0.602
 Vibration    25          0.939              1.070              0.482

 Optimization completed.
    -- Stationary point found.
 Normal termination of Gaussian 16 at Fri Dec 11 22:00:47 2020.

 ----------------------------------------------------------------------
 # B3LYP/6-311++G(d,p) empiricaldispersion=gd3bj scf=xqc pop=npa geom=c
 heck
 ----------------------------------------------------------------------

 ---------------------------------------
 CID_117374149_JID_8623_Energie_neutraal
 ---------------------------------------
 Structure from the checkpoint file:  "JID_8623.chk"
 Charge =  0 Multiplicity = 1

 SCF Done:  E(RB3LYP) =  -805.745448532     A.U. after   15 cycles
 Normal termination of Gaussian 16 at Fri Dec 11 22:09:00 2020.

 ----------------------------------------------------------------------
 # B3LYP/6-311++G(d,p) empiricaldispersion=gd3bj scf=xqc pop=npa geom=c
 heck
 ----------------------------------------------------------------------

 -------------------------------------
 CID_117374149_JID_8623_Energie_kation
 -------------------------------------
 Structure from the checkpoint file:  "JID_8623.chk"
 Charge =  1 Multiplicity = 2

 SCF Done:  E(UB3LYP) =  -805.474785153     A.U. after   25 cycles
 Normal termination of Gaussian 16 at Fri Dec 11 22:28:39 2020.
 Gaussian 16:  ES64L-G16RevA.03 25-Dec-2016

 ----------------------------------------------------------------------
 # B3LYP/6-311++G(d,p) empiricaldispersion=gd3bj scf=xqc pop=npa geom=c
 heck
 ----------------------------------------------------------------------

 ------------------------------------
 CID_117374149_JID_8623_Energie_anion
 ------------------------------------
 Structure from the checkpoint file:  "JID_8623.chk"
 Charge = -1 Multiplicity = 2

                         Standard orientation:
 ---------------------------------------------------------------------
 Center     Atomic      Atomic             Coordinates (Angstroms)
 Number     Number       Type             X           Y           Z
 ---------------------------------------------------------------------
      1          6           0        1.391865    2.399696   -0.526817
      2          6           0        1.480035    0.931954   -0.190970
      3          6           0        0.362085    0.137480    0.173470
      4          6           0        0.514932   -1.222739    0.454745
      5          6           0        1.762618   -1.866379    0.402755
      6          6           0        2.841857   -1.082440    0.053408
      7          6           0        2.694921    0.270961   -0.233251
      8          8           0        3.922811    0.800579   -0.582830
      9          6           0        4.874499   -0.224541   -0.286255
     10          8           0        4.160610   -1.450720   -0.101851
     11          6           0       -1.023112    0.749542    0.204426
     12          6           0       -1.798164    0.601705   -1.130003
     13          6           0       -3.288573    0.427563   -0.730094
     14          6           0       -3.254381    0.565967    0.804315
     15          7           0       -1.918916    0.112511    1.175193
     16          6           0       -1.576144    0.381895    2.558880
     17          6           0       -3.830791   -0.928594   -1.189712
     18          7           0       -5.276672   -1.029379   -0.961112
     19          1           0        1.032953    2.987848    0.326462
     20          1           0        0.702063    2.583097   -1.358557
     21          1           0        2.373243    2.786112   -0.811810
     22          1           0       -0.371043   -1.783503    0.732294
     23          1           0        1.873983   -2.922026    0.623789
     24          1           0        5.568128   -0.330373   -1.124317
     25          1           0        5.410859    0.029640    0.640069
     26          1           0       -0.935484    1.827617    0.439222
     27          1           0       -1.436768   -0.282905   -1.664222
     28          1           0       -1.635450    1.465258   -1.781180
     29          1           0       -3.922896    1.204644   -1.167053
     30          1           0       -4.013828   -0.031534    1.323455
     31          1           0       -3.418214    1.622609    1.096308
     32          1           0       -0.567766    0.014357    2.768102
     33          1           0       -1.609916    1.462689    2.800888
     34          1           0       -2.277351   -0.137592    3.220706
     35          1           0       -3.662476   -1.023745   -2.269561
     36          1           0       -3.235580   -1.721322   -0.701194
     37          1           0       -5.620817   -1.908502   -1.343840
     38          1           0       -5.461791   -1.075581    0.039938
 ---------------------------------------------------------------------

 SCF Done:  E(UB3LYP) =  -805.732082747     A.U. after   33 cycles
 SCF Done:  E(UB3LYP) =  -805.732082748     a.u. after    1 cycles

 The electronic state is 2-A.
 Alpha  occ. eigenvalues --  -19.08024 -19.07872 -14.21385 -14.19821 -10.20097
 Alpha  occ. eigenvalues --  -10.14455 -10.14227 -10.11134 -10.09963 -10.09774
 Alpha  occ. eigenvalues --  -10.09645 -10.09348 -10.09016 -10.08875 -10.08187
 Alpha  occ. eigenvalues --  -10.08058 -10.08004 -10.07781  -1.04159  -0.94996
 Alpha  occ. eigenvalues --   -0.85048  -0.78904  -0.77687  -0.70144  -0.69272
 Alpha  occ. eigenvalues --   -0.68192  -0.63779  -0.60499  -0.59735  -0.58274
 Alpha  occ. eigenvalues --   -0.54977  -0.53645  -0.51578  -0.48560  -0.47172
 Alpha  occ. eigenvalues --   -0.43592  -0.43192  -0.42465  -0.41460  -0.40627
 Alpha  occ. eigenvalues --   -0.39260  -0.37164  -0.36051  -0.35365  -0.34070
 Alpha  occ. eigenvalues --   -0.33867  -0.33782  -0.33210  -0.32241  -0.31074
 Alpha  occ. eigenvalues --   -0.30598  -0.30512  -0.29557  -0.29252  -0.28317
 Alpha  occ. eigenvalues --   -0.27747  -0.26630  -0.26328  -0.26077  -0.24860
 Alpha  occ. eigenvalues --   -0.23679  -0.23081  -0.21726  -0.15468  -0.15153
 Alpha  occ. eigenvalues --   -0.13271  -0.12111   0.04002
 Alpha virt. eigenvalues --    0.05253   0.06264   0.06927   0.07636   0.07789
 Alpha virt. eigenvalues --    0.07982   0.08410   0.08747   0.08974   0.09193
 Alpha virt. eigenvalues --    0.10287   0.10565   0.10700   0.11351   0.11528

  Beta  occ. eigenvalues --  -19.08023 -19.07867 -14.21379 -14.19779 -10.20059
  Beta  occ. eigenvalues --  -10.14455 -10.14226 -10.11127 -10.09961 -10.09750
  Beta  occ. eigenvalues --  -10.09633 -10.09327 -10.09013 -10.08874 -10.08164
  Beta  occ. eigenvalues --  -10.08054 -10.08002 -10.07775  -1.04151  -0.94988
  Beta  occ. eigenvalues --   -0.85035  -0.78838  -0.77676  -0.70125  -0.69249
  Beta  occ. eigenvalues --   -0.68172  -0.63742  -0.60471  -0.59691  -0.58229
  Beta  occ. eigenvalues --   -0.54931  -0.53623  -0.51560  -0.48536  -0.47136
  Beta  occ. eigenvalues --   -0.43559  -0.43163  -0.42446  -0.41438  -0.40585
  Beta  occ. eigenvalues --   -0.39220  -0.37112  -0.36000  -0.35340  -0.34044
  Beta  occ. eigenvalues --   -0.33837  -0.33761  -0.33192  -0.32224  -0.31050
  Beta  occ. eigenvalues --   -0.30576  -0.30490  -0.29537  -0.29235  -0.28288
  Beta  occ. eigenvalues --   -0.27738  -0.26609  -0.26307  -0.26059  -0.24845
  Beta  occ. eigenvalues --   -0.23656  -0.23064  -0.21711  -0.15443  -0.15122
  Beta  occ. eigenvalues --   -0.13233  -0.12101
  Beta virt. eigenvalues --    0.05954   0.06464   0.06872   0.07311   0.07686
  Beta virt. eigenvalues --    0.07955   0.08511   0.08783   0.08838   0.09181
  Beta virt. eigenvalues --    0.09626   0.10459   0.10743   0.10752   0.11435

 Mulliken charges and spin densities:
               1          2
     1  C    0.676334  -1.217895
     2  C   -0.205005   0.552787
     3  C    0.049487   0.261012
     4  C   -0.313703   0.100931
     5  C   -0.266907  -0.193090
     6  C   -0.349970   0.081816
     7  C    0.071268   0.098636
     8  O   -0.237188   0.074747
     9  C    1.062188  -1.109874
    10  O   -0.203239   0.052616
    11  C   -0.307478   0.150113
    12  C   -0.279207  -0.784737
    13  C   -0.586554   0.976107
    14  C    0.348356  -0.774540
    15  N    0.153837   0.073313
    16  C    0.262888  -0.607459
    17  C    0.520112  -1.192225
    18  N   -0.367112   0.030332
    19  H   -0.150565   0.320435
    20  H    0.013441   0.161337
    21  H   -0.091689   0.279439
    22  H    0.150219   0.048863
    23  H    0.037663   0.136052
    24  H   -0.382366   0.563842
    25  H   -0.378522   0.570642
    26  H    0.266653  -0.081304
    27  H    0.123550   0.040158
    28  H    0.054958   0.078965
    29  H    0.024729   0.183607
    30  H   -0.139874   0.311191
    31  H   -0.049764   0.156039
    32  H    0.079065   0.046429
    33  H   -0.094951   0.218290
    34  H   -0.174367   0.325102
    35  H   -0.002838   0.166304
    36  H   -0.129759   0.281724
    37  H   -0.120097   0.355584
    38  H   -0.063589   0.264712
 Sum of Mulliken charges =  -1.00000   1.00000

 Dipole moment (field-independent basis, Debye):
    X=              2.0677    Y=              0.0537    Z=             -0.4403  Tot=              2.1147
 Quadrupole moment (field-independent basis, Debye-Ang):
   XX=           -237.6707   YY=           -146.3782   ZZ=           -145.3361
   XY=            -10.9057   XZ=              1.3057   YZ=             -2.5820

 Summary of Natural Population Analysis:

                                       Natural Population
                Natural  -----------------------------------------------
    Atom  No    Charge         Core      Valence    Rydberg      Total
 -----------------------------------------------------------------------
      C    1   -0.29570      0.99964     2.29109    0.00497     3.29570
      C    2   -0.03325      0.99944     2.02386    0.00996     3.03325
      C    3   -0.01985      0.99947     2.00908    0.01129     3.01985
      C    4   -0.10123      0.99952     2.09361    0.00809     3.10123
      C    5   -0.12487      0.99952     2.11641    0.00894     3.12487
      C    6    0.13098      0.99932     1.85739    0.01231     2.86902
      C    7    0.13299      0.99927     1.85432    0.01342     2.86701
      O    8   -0.27427      0.99987     3.26655    0.00785     4.27427
      C    9    0.15614      0.99963     1.82833    0.01590     2.84386
      O   10   -0.27407      0.99987     3.26651    0.00769     4.27407
      C   11   -0.01017      0.99956     1.99790    0.01271     3.01017
      C   12   -0.18283      0.99960     2.17583    0.00740     3.18283
      C   13   -0.11911      0.99959     2.10842    0.01111     3.11911
      C   14   -0.08007      0.99960     2.06891    0.01156     3.08007
      N   15   -0.28209      0.99970     2.76960    0.01278     3.78209
      C   16   -0.17788      0.99964     2.16960    0.00864     3.17788
      C   17   -0.08547      0.99960     2.07402    0.01185     3.08547
      N   18   -0.42315      0.99977     2.91289    0.01048     3.92315
      H   19    0.10742      0.00000     0.39127    0.00132     0.39258
      H   20    0.10464      0.00000     0.39421    0.00115     0.39536
      H   21    0.11030      0.00000     0.38829    0.00141     0.38970
      H   22    0.11050      0.00000     0.38747    0.00203     0.38950
      H   23    0.10594      0.00000     0.39312    0.00094     0.39406
      H   24    0.08267      0.00000     0.41500    0.00233     0.41733
      H   25    0.07330      0.00000     0.42409    0.00260     0.42670
      H   26    0.08761      0.00000     0.40993    0.00246     0.41239
      H   27    0.10108      0.00000     0.39748    0.00144     0.39892
      H   28    0.10110      0.00000     0.39802    0.00088     0.39890
      H   29    0.10232      0.00000     0.39647    0.00120     0.39768
      H   30    0.09683      0.00000     0.40152    0.00165     0.40317
      H   31    0.08181      0.00000     0.41661    0.00157     0.41819
      H   32    0.10015      0.00000     0.39870    0.00114     0.39985
      H   33    0.08110      0.00000     0.41758    0.00131     0.41890
      H   34    0.09657      0.00000     0.40248    0.00095     0.40343
      H   35    0.08913      0.00000     0.40980    0.00107     0.41087
      H   36    0.08205      0.00000     0.41570    0.00225     0.41795
      H   37    0.17584      0.00000     0.32196    0.00221     0.32416
      H   38    0.17352      0.00000     0.32387    0.00261     0.32648
 =======================================================================
   * Total *    0.00000     17.99262    48.78789    0.21950    67.00000

 Normal termination of Gaussian 16 at Fri Dec 11 22:54:13 2020.
