 Gaussian 16, Revision A.03,

 -----------------------------------------------------------
 # opt freq B3LYP/6-31G(d) empiricaldispersion=gd3bj scf=xqc
 -----------------------------------------------------------

 -------------------------------
 CID_104735746_JID_8104_neutraal
 -------------------------------
 Symbolic Z-matrix:
 Charge =  0 Multiplicity = 1

 SCF Done:  E(RB3LYP) =  -754.807125095     A.U. after   14 cycles
 SCF Done:  E(RB3LYP) =  -754.809706072     A.U. after   12 cycles
 SCF Done:  E(RB3LYP) =  -754.809880845     A.U. after   12 cycles
 SCF Done:  E(RB3LYP) =  -754.811523154     A.U. after   12 cycles
 SCF Done:  E(RB3LYP) =  -754.812155962     A.U. after   12 cycles
 SCF Done:  E(RB3LYP) =  -754.812210787     A.U. after   11 cycles
 SCF Done:  E(RB3LYP) =  -754.812270670     A.U. after   10 cycles
 SCF Done:  E(RB3LYP) =  -754.812277827     A.U. after    9 cycles
 SCF Done:  E(RB3LYP) =  -754.812279164     A.U. after    8 cycles
 SCF Done:  E(RB3LYP) =  -754.812279671     A.U. after    7 cycles
 SCF Done:  E(RB3LYP) =  -754.812279765     A.U. after    7 cycles
 Optimization completed.
    -- Stationary point found.
 Normal termination of Gaussian 16 at Fri Dec 11 18:47:01 2020.

 --------------------------------------------------------------------
 #N Geom=AllCheck Guess=TCheck SCRF=Check GenChk RB3LYP/6-31G(d) Freq
 --------------------------------------------------------------------

 Structure from the checkpoint file:  "JID_8104.chk"
 -------------------------------
 CID_104735746_JID_8104_neutraal
 -------------------------------
 Charge =  0 Multiplicity = 1

 SCF Done:  E(RB3LYP) =  -754.812279765     A.U. after    1 cycles

  Exact polarizability: 169.472 -11.336 178.699  12.128   4.777 152.081
 Approx polarizability: 221.625 -25.093 273.519  28.514   8.671 252.414

                      1                      2                      3
                      A                      A                      A
 Frequencies --     27.3195                47.4882                74.2893
 Red. masses --      3.8737                 3.7923                 3.2809
 Frc consts  --      0.0017                 0.0050                 0.0107
 IR Inten    --      0.9127                 0.0815                 0.6487

                      4                      5                      6
                      A                      A                      A
 Frequencies --     76.7965                94.9223               121.7921
 Red. masses --      4.1860                 3.0361                 2.9998
 Frc consts  --      0.0145                 0.0161                 0.0262
 IR Inten    --      0.0877                 0.6961                 0.5266

                      7                      8                      9
                      A                      A                      A
 Frequencies --    139.7351               218.7539               229.9082
 Red. masses --      3.1419                 3.2164                 1.6249
 Frc consts  --      0.0361                 0.0907                 0.0506
 IR Inten    --      0.1454                 0.7985                 0.2680

                     10                     11                     12
                      A                      A                      A
 Frequencies --    236.6328               254.6065               263.5217
 Red. masses --      1.4608                 2.7163                 3.4625
 Frc consts  --      0.0482                 0.1037                 0.1417
 IR Inten    --      0.0563                 0.9198                 1.0220

                     13                     14                     15
                      A                      A                      A
 Frequencies --    278.3248               292.3855               304.7133
 Red. masses --      1.3495                 1.6051                 2.1648
 Frc consts  --      0.0616                 0.0808                 0.1184
 IR Inten    --      0.6433                 6.0328                 5.1201

                     16                     17                     18
                      A                      A                      A
 Frequencies --    320.2538               330.3896               350.2568
 Red. masses --      2.6438                 1.2537                 3.1405
 Frc consts  --      0.1598                 0.0806                 0.2270
 IR Inten    --      1.8388                74.9923                15.4345

                     19                     20                     21
                      A                      A                      A
 Frequencies --    371.5613               398.9347               412.0212
 Red. masses --      2.6019                 2.1331                 2.5790
 Frc consts  --      0.2116                 0.2000                 0.2580
 IR Inten    --      2.2595                 0.9492                 0.8970

                     22                     23                     24
                      A                      A                      A
 Frequencies --    428.9820               440.8565               470.0443
 Red. masses --      2.7680                 2.5690                 2.7809
 Frc consts  --      0.3001                 0.2942                 0.3620
 IR Inten    --     14.9939                 4.4485                 0.3708

                     25                     26                     27
                      A                      A                      A
 Frequencies --    503.1092               521.3036               534.3820
 Red. masses --      2.2680                 2.4636                 3.0320
 Frc consts  --      0.3382                 0.3945                 0.5101
 IR Inten    --      1.7915                 1.4755                 6.0472

                     28                     29                     30
                      A                      A                      A
 Frequencies --    604.0059               631.4471               664.3780
 Red. masses --      2.6235                 6.2971                 5.8589
 Frc consts  --      0.5639                 1.4793                 1.5237
 IR Inten    --      1.7596                 2.5263                 2.6345

                     31                     32                     33
                      A                      A                      A
 Frequencies --    698.7634               733.5699               738.1314
 Red. masses --      2.9526                 2.3393                 2.0983
 Frc consts  --      0.8494                 0.7417                 0.6736
 IR Inten    --      3.1271                16.2615                14.1491

                     34                     35                     36
                      A                      A                      A
 Frequencies --    811.6786               844.6573               851.1308
 Red. masses --      1.8444                 2.3237                 2.1671
 Frc consts  --      0.7159                 0.9768                 0.9250
 IR Inten    --      7.7080                 1.6027                 4.7622

                     37                     38                     39
                      A                      A                      A
 Frequencies --    864.4152               867.6852               914.7264
 Red. masses --      3.9005                 1.6601                 1.9672
 Frc consts  --      1.7172                 0.7364                 0.9698
 IR Inten    --      5.7345                 0.8821                10.9070

                     40                     41                     42
                      A                      A                      A
 Frequencies --    924.3679               939.1103               940.7756
 Red. masses --      2.0860                 1.3527                 1.7825
 Frc consts  --      1.0502                 0.7029                 0.9295
 IR Inten    --      1.6924                 2.7334                 2.2332

                     43                     44                     45
                      A                      A                      A
 Frequencies --    951.6035               962.4086               974.0708
 Red. masses --      1.3805                 2.0250                 1.4923
 Frc consts  --      0.7365                 1.1051                 0.8342
 IR Inten    --      0.2180                10.8323                 3.5976

                     46                     47                     48
                      A                      A                      A
 Frequencies --    975.3863               995.7451              1003.9032
 Red. masses --      1.4820                 1.3573                 2.2215
 Frc consts  --      0.8307                 0.7929                 1.3191
 IR Inten    --      1.1778                 0.1651                 9.3132

                     49                     50                     51
                      A                      A                      A
 Frequencies --   1045.8125              1047.2515              1047.4709
 Red. masses --      2.2199                 3.4939                 2.3720
 Frc consts  --      1.4305                 2.2577                 1.5334
 IR Inten    --     23.6261                 7.1730                16.1333

                     52                     53                     54
                      A                      A                      A
 Frequencies --   1059.9375              1077.8055              1080.8467
 Red. masses --      2.3287                 2.6081                 2.7970
 Frc consts  --      1.5415                 1.7851                 1.9252
 IR Inten    --     42.3062                 0.5367                11.4945

                     55                     56                     57
                      A                      A                      A
 Frequencies --   1098.1217              1112.4596              1137.7642
 Red. masses --      1.7616                 1.6820                 1.9813
 Frc consts  --      1.2516                 1.2264                 1.5111
 IR Inten    --     19.6609                 9.2037                 6.6506

                     58                     59                     60
                      A                      A                      A
 Frequencies --   1143.0512              1161.6565              1193.2954
 Red. masses --      1.7987                 1.5453                 1.8525
 Frc consts  --      1.3847                 1.2287                 1.5542
 IR Inten    --      4.1230                 9.1434                 6.1456

                     61                     62                     63
                      A                      A                      A
 Frequencies --   1212.6394              1222.1544              1232.5221
 Red. masses --      1.7783                 1.5118                 1.7096
 Frc consts  --      1.5407                 1.3305                 1.5302
 IR Inten    --      1.7184                 2.2299                 6.1164

                     64                     65                     66
                      A                      A                      A
 Frequencies --   1235.8932              1262.5153              1264.1331
 Red. masses --      1.4235                 1.6583                 1.2291
 Frc consts  --      1.2810                 1.5574                 1.1572
 IR Inten    --      9.6721                 2.7774                 6.2773

                     67                     68                     69
                      A                      A                      A
 Frequencies --   1273.0276              1287.2858              1318.6708
 Red. masses --      1.2423                 1.3120                 3.8035
 Frc consts  --      1.1862                 1.2810                 3.8968
 IR Inten    --     15.0374                 3.3161                 1.3634

                     70                     71                     72
                      A                      A                      A
 Frequencies --   1334.2181              1344.0275              1354.0209
 Red. masses --      1.2824                 1.2524                 1.4125
 Frc consts  --      1.3450                 1.3330                 1.5257
 IR Inten    --      3.2128                 5.9012                 2.9641

                     73                     74                     75
                      A                      A                      A
 Frequencies --   1359.4225              1375.4704              1385.6459
 Red. masses --      1.4046                 1.3171                 1.2606
 Frc consts  --      1.5293                 1.4682                 1.4260
 IR Inten    --      0.3795                 9.2769                 5.3597

                     76                     77                     78
                      A                      A                      A
 Frequencies --   1385.8343              1398.0564              1408.4020
 Red. masses --      1.3627                 1.4064                 1.5455
 Frc consts  --      1.5420                 1.6196                 1.8062
 IR Inten    --      2.8297                 5.3178                28.0404

                     79                     80                     81
                      A                      A                      A
 Frequencies --   1416.5035              1419.3980              1424.9192
 Red. masses --      1.3771                 1.3804                 1.4377
 Frc consts  --      1.6280                 1.6386                 1.7199
 IR Inten    --      2.2864                 4.0041                 6.1176

                     82                     83                     84
                      A                      A                      A
 Frequencies --   1433.1516              1437.1785              1452.7800
 Red. masses --      1.2787                 1.5971                 1.2512
 Frc consts  --      1.5474                 1.9436                 1.5559
 IR Inten    --      8.5265                14.0055                 6.4805

                     85                     86                     87
                      A                      A                      A
 Frequencies --   1474.8850              1502.5966              1516.6991
 Red. masses --      2.2145                 1.0967                 1.0748
 Frc consts  --      2.8383                 1.4589                 1.4567
 IR Inten    --     14.1970                 6.6151                 3.6360

                     88                     89                     90
                      A                      A                      A
 Frequencies --   1518.4210              1520.4407              1523.1623
 Red. masses --      1.0607                 1.0849                 1.1065
 Frc consts  --      1.4408                 1.4777                 1.5124
 IR Inten    --      1.5416                 3.2346                 1.2540

                     91                     92                     93
                      A                      A                      A
 Frequencies --   1527.8741              1528.9287              1531.7340
 Red. masses --      1.3162                 1.3923                 1.1288
 Frc consts  --      1.8102                 1.9177                 1.5604
 IR Inten    --      4.8545                13.7557                 1.4732

                     94                     95                     96
                      A                      A                      A
 Frequencies --   1537.8752              1541.1078              1546.6760
 Red. masses --      1.0868                 1.0576                 1.0629
 Frc consts  --      1.5144                 1.4800                 1.4981
 IR Inten    --      2.6645                 6.1834                12.2170

                     97                     98                     99
                      A                      A                      A
 Frequencies --   1630.4497              1651.4828              3000.3562
 Red. masses --      5.0481                 5.6673                 1.0831
 Frc consts  --      7.9066                 9.1070                 5.7449
 IR Inten    --     10.5960                 2.5474                15.7695

                    100                    101                    102
                      A                      A                      A
 Frequencies --   3007.1869              3015.5688              3026.7988
 Red. masses --      1.0840                 1.0652                 1.0665
 Frc consts  --      5.7757                 5.7073                 5.7566
 IR Inten    --     26.7738                14.7503                47.7506

                    103                    104                    105
                      A                      A                      A
 Frequencies --   3033.5443              3040.0717              3047.9320
 Red. masses --      1.0608                 1.0364                 1.0456
 Frc consts  --      5.7515                 5.6435                 5.7228
 IR Inten    --     25.4519                21.3013                25.7962

                    106                    107                    108
                      A                      A                      A
 Frequencies --   3049.8593              3051.1947              3062.0271
 Red. masses --      1.0616                 1.0675                 1.0988
 Frc consts  --      5.8180                 5.8553                 6.0701
 IR Inten    --     13.7800                32.0839                26.8445

                    109                    110                    111
                      A                      A                      A
 Frequencies --   3068.5275              3071.7307              3091.7413
 Red. masses --      1.0726                 1.0979                 1.0955
 Frc consts  --      5.9502                 6.1035                 6.1695
 IR Inten    --     43.2672                45.9085                20.0824

                    112                    113                    114
                      A                      A                      A
 Frequencies --   3100.6084              3102.7103              3107.1156
 Red. masses --      1.0960                 1.1009                 1.0985
 Frc consts  --      6.2082                 6.2444                 6.2483
 IR Inten    --     27.7316                 6.4251                73.7500

                    115                    116                    117
                      A                      A                      A
 Frequencies --   3109.2340              3111.9882              3119.4587
 Red. masses --      1.1017                 1.0991                 1.1010
 Frc consts  --      6.2750                 6.2712                 6.3125
 IR Inten    --     40.2724                41.8533                40.1520

                    118                    119                    120
                      A                      A                      A
 Frequencies --   3147.2197              3162.1232              3175.0326
 Red. masses --      1.0874                 1.0891                 1.0890
 Frc consts  --      6.3457                 6.4159                 6.4680
 IR Inten    --     20.2141                31.3817                13.8969

                    121                    122                    123
                      A                      A                      A
 Frequencies --   3185.5148              3211.4106              3721.9192
 Red. masses --      1.0899                 1.0963                 1.0659
 Frc consts  --      6.5161                 6.6617                 8.6999
 IR Inten    --     16.6419                19.2333                 5.6440

 - Thermochemistry -
 -------------------
 Temperature   298.150 Kelvin.  Pressure   1.00000 Atm.
 Atom     1 has atomic number  6 and mass  12.00000

 Molecular mass:   247.19361 amu.
 Principal axes and moments of inertia in atomic units:
                           1         2         3
     Eigenvalues --  3151.818286125.065417378.50347
           X            0.99969   0.02496   0.00078
           Y           -0.02497   0.99930   0.02794
           Z           -0.00008  -0.02795   0.99961
 This molecule is an asymmetric top.
 Rotational symmetry number  1.
 Warning -- assumption of classical behavior for rotation
           may cause significant error
 Rotational temperatures (Kelvin)      0.02748     0.01414     0.01174
 Rotational constants (GHZ):           0.57260     0.29465     0.24459
 Zero-point vibrational energy    1019528.2 (Joules/Mol)
                                  243.67308 (Kcal/Mol)
 Warning -- explicit consideration of  28 degrees of freedom as
           vibrations may cause significant error
 Vibrational temperatures:     39.31    68.32   106.89   110.49   136.57
          (Kelvin)            175.23   201.05   314.74   330.79   340.46
                              366.32   379.15   400.45   420.68   438.41
                              460.77   475.36   503.94   534.59   573.98
                              592.81   617.21   634.29   676.29   723.86
                              750.04   768.86   869.03   908.51   955.89
                             1005.36  1055.44  1062.01  1167.82  1215.27
                             1224.59  1243.70  1248.41  1316.09  1329.96
                             1351.17  1353.57  1369.15  1384.69  1401.47
                             1403.36  1432.66  1444.39  1504.69  1506.76
                             1507.08  1525.01  1550.72  1555.10  1579.95
                             1600.58  1636.99  1644.60  1671.36  1716.89
                             1744.72  1758.41  1773.32  1778.17  1816.48
                             1818.81  1831.60  1852.12  1897.27  1919.64
                             1933.76  1948.13  1955.91  1979.00  1993.64
                             1993.91  2011.49  2026.38  2038.03  2042.20
                             2050.14  2061.99  2067.78  2090.23  2122.03
                             2161.90  2182.19  2184.67  2187.58  2191.49
                             2198.27  2199.79  2203.82  2212.66  2217.31
                             2225.32  2345.85  2376.12  4316.84  4326.67
                             4338.73  4354.89  4364.59  4373.99  4385.29
                             4388.07  4389.99  4405.57  4414.93  4419.54
                             4448.33  4461.08  4464.11  4470.45  4473.49
                             4477.46  4488.21  4528.15  4549.59  4568.16
                             4583.25  4620.50  5355.01

 Zero-point correction=                           0.388318 (Hartree/Particle)
 Thermal correction to Energy=                    0.405952
 Thermal correction to Enthalpy=                  0.406896
 Thermal correction to Gibbs Free Energy=         0.343250
 Sum of electronic and zero-point Energies=           -754.423962
 Sum of electronic and thermal Energies=              -754.406328
 Sum of electronic and thermal Enthalpies=            -754.405383
 Sum of electronic and thermal Free Energies=         -754.469030

                     E (Thermal)             CV                S
                      KCal/Mol        Cal/Mol-Kelvin    Cal/Mol-Kelvin
 Total                  254.739             70.466            133.956
 Electronic               0.000              0.000              0.000
 Translational            0.889              2.981             42.416
 Rotational               0.889              2.981             33.321
 Vibrational            252.961             64.504             58.219
 Vibration     1          0.593              1.984              6.015
 Vibration     2          0.595              1.979              4.919
 Vibration     3          0.599              1.966              4.036
 Vibration     4          0.599              1.965              3.971
 Vibration     5          0.603              1.953              3.556
 Vibration     6          0.609              1.931              3.072
 Vibration     7          0.615              1.914              2.807
 Vibration     8          0.647              1.813              1.969
 Vibration     9          0.652              1.795              1.880
 Vibration    10          0.656              1.785              1.828
 Vibration    11          0.665              1.755              1.698
 Vibration    12          0.670              1.740              1.638
 Vibration    13          0.679              1.714              1.544
 Vibration    14          0.688              1.688              1.460
 Vibration    15          0.696              1.665              1.391
 Vibration    16          0.706              1.635              1.309
 Vibration    17          0.713              1.615              1.258
 Vibration    18          0.727              1.575              1.165
 Vibration    19          0.743              1.531              1.073
 Vibration    20          0.765              1.472              0.967
 Vibration    21          0.776              1.444              0.920
 Vibration    22          0.790              1.407              0.862
 Vibration    23          0.801              1.381              0.824
 Vibration    24          0.827              1.317              0.737
 Vibration    25          0.858              1.243              0.650
 Vibration    26          0.876              1.203              0.607
 Vibration    27          0.889              1.174              0.577
 Vibration    28          0.962              1.023              0.443

 Optimization completed.
    -- Stationary point found.
 Normal termination of Gaussian 16 at Fri Dec 11 19:13:40 2020.

 ----------------------------------------------------------------------
 # B3LYP/6-311++G(d,p) empiricaldispersion=gd3bj scf=xqc pop=npa geom=c
 heck
 ----------------------------------------------------------------------

 ---------------------------------------
 CID_104735746_JID_8104_Energie_neutraal
 ---------------------------------------
 Structure from the checkpoint file:  "JID_8104.chk"
 Charge =  0 Multiplicity = 1

 SCF Done:  E(RB3LYP) =  -755.022454559     A.U. after   15 cycles
 Normal termination of Gaussian 16 at Fri Dec 11 19:26:11 2020.

 ----------------------------------------------------------------------
 # B3LYP/6-311++G(d,p) empiricaldispersion=gd3bj scf=xqc pop=npa geom=c
 heck
 ----------------------------------------------------------------------

 -------------------------------------
 CID_104735746_JID_8104_Energie_kation
 -------------------------------------
 Structure from the checkpoint file:  "JID_8104.chk"
 Charge =  1 Multiplicity = 2

 SCF Done:  E(UB3LYP) =  -754.703518498     A.U. after   24 cycles
 Normal termination of Gaussian 16 at Fri Dec 11 19:55:51 2020.
 Gaussian 16:  ES64L-G16RevA.03 25-Dec-2016

 ----------------------------------------------------------------------
 # B3LYP/6-311++G(d,p) empiricaldispersion=gd3bj scf=xqc pop=npa geom=c
 heck
 ----------------------------------------------------------------------

 ------------------------------------
 CID_104735746_JID_8104_Energie_anion
 ------------------------------------
 Structure from the checkpoint file:  "JID_8104.chk"
 Charge = -1 Multiplicity = 2

                         Standard orientation:
 ---------------------------------------------------------------------
 Center     Atomic      Atomic             Coordinates (Angstroms)
 Number     Number       Type             X           Y           Z
 ---------------------------------------------------------------------
      1          6           0       -4.096533   -0.002838   -0.412628
      2          6           0       -3.335810   -1.144748    0.275889
      3          6           0       -3.535984   -2.455510   -0.497152
      4          6           0       -1.832326   -0.847425    0.522618
      5          6           0       -1.651199    0.125748    1.699803
      6          6           0       -0.210390    0.616534    1.919077
      7          6           0        0.120392    1.902809    1.146111
      8          6           0        0.202940    1.858307   -0.393470
      9          6           0       -0.938094    1.068283   -1.058497
     10          6           0       -1.052888   -0.435262   -0.749864
     11          6           0        1.623454    1.478377   -0.919959
     12          6           0        2.279304    0.183203   -0.505320
     13          6           0        2.939910    0.059560    0.724969
     14          7           0        3.543213   -1.051487    1.159022
     15          6           0        3.527463   -2.115341    0.346699
     16          6           0        2.934264   -2.103898   -0.915483
     17          6           0        2.308469   -0.935964   -1.343842
     18          8           0       -0.025430    3.197171   -0.885082
     19          1           0       -3.738377    0.154308   -1.436606
     20          1           0       -3.998051    0.945375    0.126126
     21          1           0       -5.165308   -0.238510   -0.472965
     22          1           0       -3.785904   -1.285840    1.270397
     23          1           0       -3.123447   -2.392373   -1.511441
     24          1           0       -3.046475   -3.295108    0.010165
     25          1           0       -4.601526   -2.694118   -0.593997
     26          1           0       -1.392453   -1.801915    0.847818
     27          1           0       -2.005956   -0.381846    2.605720
     28          1           0       -2.304107    0.999818    1.574195
     29          1           0        0.500957   -0.183528    1.687576
     30          1           0       -0.070507    0.841793    2.983576
     31          1           0        1.062016    2.324850    1.527428
     32          1           0       -0.659738    2.638402    1.380401
     33          1           0       -1.867572    1.587778   -0.806827
     34          1           0       -0.809293    1.203951   -2.139368
     35          1           0       -0.052596   -0.864827   -0.689727
     36          1           0       -1.518016   -0.921539   -1.615238
     37          1           0        1.573722    1.528297   -2.013054
     38          1           0        2.282277    2.299836   -0.605205
     39          1           0        2.984544    0.914261    1.398853
     40          1           0        4.020870   -3.011166    0.719094
     41          1           0        2.966524   -2.986519   -1.547054
     42          1           0        1.838178   -0.889127   -2.323015
     43          1           0        0.613362    3.779772   -0.443066
 ---------------------------------------------------------------------

 SCF Done:  E(UB3LYP) =  -755.013541737     A.U. after   33 cycles
 SCF Done:  E(UB3LYP) =  -755.013541738     a.u. after    1 cycles

 The electronic state is 2-A.
 Alpha  occ. eigenvalues --  -19.01824 -14.19737 -10.12996 -10.09600 -10.09278
 Alpha  occ. eigenvalues --  -10.07998 -10.07597 -10.07573 -10.07402 -10.07253
 Alpha  occ. eigenvalues --  -10.07129 -10.06698 -10.06663 -10.06643 -10.06612
 Alpha  occ. eigenvalues --  -10.06597 -10.06259 -10.06152  -0.92274  -0.83389
 Alpha  occ. eigenvalues --   -0.73944  -0.71421  -0.69471  -0.67091  -0.66016
 Alpha  occ. eigenvalues --   -0.64323  -0.59707  -0.59404  -0.55862  -0.54598
 Alpha  occ. eigenvalues --   -0.52375  -0.50415  -0.48489  -0.46036  -0.43021
 Alpha  occ. eigenvalues --   -0.41430  -0.40492  -0.38813  -0.38311  -0.37170
 Alpha  occ. eigenvalues --   -0.35693  -0.35060  -0.34539  -0.33973  -0.32481
 Alpha  occ. eigenvalues --   -0.31020  -0.30556  -0.29717  -0.29582  -0.29432
 Alpha  occ. eigenvalues --   -0.29240  -0.28578  -0.28277  -0.27590  -0.26820
 Alpha  occ. eigenvalues --   -0.25867  -0.25068  -0.24753  -0.23468  -0.23081
 Alpha  occ. eigenvalues --   -0.21797  -0.21094  -0.20875  -0.20490  -0.18166
 Alpha  occ. eigenvalues --   -0.17486  -0.15143  -0.14729   0.04165
 Alpha virt. eigenvalues --    0.05814   0.06423   0.06956   0.07367   0.07952
 Alpha virt. eigenvalues --    0.08211   0.08465   0.08919   0.09414   0.09608
 Alpha virt. eigenvalues --    0.10428   0.10833   0.11057   0.11276   0.11965

  Beta  occ. eigenvalues --  -19.01794 -14.19620 -10.12990 -10.09620 -10.09171
  Beta  occ. eigenvalues --  -10.07991 -10.07626 -10.07474 -10.07270 -10.07251
  Beta  occ. eigenvalues --  -10.07122 -10.06691 -10.06644 -10.06625 -10.06598
  Beta  occ. eigenvalues --  -10.06589 -10.06249 -10.06147  -0.92222  -0.83193
  Beta  occ. eigenvalues --   -0.73919  -0.71264  -0.69377  -0.66994  -0.65972
  Beta  occ. eigenvalues --   -0.64266  -0.59628  -0.59370  -0.55826  -0.54546
  Beta  occ. eigenvalues --   -0.52235  -0.50250  -0.48454  -0.45978  -0.42987
  Beta  occ. eigenvalues --   -0.41332  -0.40427  -0.38733  -0.38276  -0.37105
  Beta  occ. eigenvalues --   -0.35623  -0.35024  -0.34502  -0.33934  -0.32434
  Beta  occ. eigenvalues --   -0.30996  -0.30509  -0.29681  -0.29378  -0.29208
  Beta  occ. eigenvalues --   -0.29203  -0.28547  -0.28196  -0.27545  -0.26783
  Beta  occ. eigenvalues --   -0.25831  -0.25012  -0.24685  -0.23425  -0.23016
  Beta  occ. eigenvalues --   -0.21738  -0.21067  -0.20801  -0.20466  -0.17962
  Beta  occ. eigenvalues --   -0.17132  -0.14983  -0.14300
  Beta virt. eigenvalues --    0.06021   0.06939   0.07090   0.07569   0.07653
  Beta virt. eigenvalues --    0.08252   0.08532   0.08758   0.09227   0.09670
  Beta virt. eigenvalues --    0.09758   0.10568   0.10951   0.11310   0.11559

 Mulliken charges and spin densities:
               1          2
     1  C    0.023746  -0.725086
     2  C   -0.667840   0.862966
     3  C    0.064243  -0.689038
     4  C    0.171952  -0.124200
     5  C    0.021041  -0.474414
     6  C   -0.498568   0.362821
     7  C    0.203779  -0.861467
     8  C   -0.146704   0.151158
     9  C   -0.362998  -0.428170
    10  C   -0.060141   0.006443
    11  C    1.141949  -2.055703
    12  C    0.303026   1.018308
    13  C   -1.747389   0.732537
    14  N    0.040584   0.054876
    15  C    0.198675  -0.428643
    16  C   -0.020476  -0.202205
    17  C   -0.077519   0.098490
    18  O   -0.142456   0.006774
    19  H    0.053158   0.103569
    20  H    0.018012   0.115228
    21  H   -0.080743   0.225797
    22  H   -0.059170   0.222961
    23  H   -0.147729   0.277303
    24  H   -0.001602   0.123321
    25  H   -0.117086   0.259006
    26  H    0.094481   0.109307
    27  H   -0.051271   0.210071
    28  H    0.152927  -0.023355
    29  H    0.277621  -0.069021
    30  H   -0.009693   0.198557
    31  H   -0.095560   0.239431
    32  H   -0.053446   0.232342
    33  H    0.360498  -0.143645
    34  H   -0.082642   0.288255
    35  H    0.683716  -0.519103
    36  H    0.364210  -0.173447
    37  H    0.039556   0.143948
    38  H   -0.360821   0.539737
    39  H   -0.061788   0.220936
    40  H    0.122323   0.021235
    41  H   -0.186062   0.353618
    42  H   -0.394946   0.574819
    43  H    0.091153   0.163684
 Sum of Mulliken charges =  -1.00000   1.00000

 Dipole moment (field-independent basis, Debye):
    X=             -1.5205    Y=             -0.6909    Z=              0.7854  Tot=              1.8456
 Quadrupole moment (field-independent basis, Debye-Ang):
   XX=           -184.2434   YY=           -160.2637   ZZ=           -151.8167
   XY=             -5.3474   XZ=             -3.0004   YZ=              2.3125

 Summary of Natural Population Analysis:

                                       Natural Population
                Natural  -----------------------------------------------
    Atom  No    Charge         Core      Valence    Rydberg      Total
 -----------------------------------------------------------------------
      C    1   -0.28712      0.99964     2.28254    0.00494     3.28712
      C    2   -0.11029      0.99959     2.10007    0.01063     3.11029
      C    3   -0.28208      0.99965     2.27763    0.00480     3.28208
      C    4   -0.10063      0.99957     2.09089    0.01017     3.10063
      C    5   -0.18872      0.99961     2.18068    0.00843     3.18872
      C    6   -0.19499      0.99962     2.18747    0.00790     3.19499
      C    7   -0.20199      0.99957     2.19156    0.01087     3.20199
      C    8    0.14175      0.99951     1.84455    0.01418     2.85825
      C    9   -0.20038      0.99957     2.19003    0.01078     3.20038
      C   10   -0.20119      0.99959     2.19299    0.00860     3.20119
      C   11   -0.20869      0.99956     2.19647    0.01267     3.20869
      C   12   -0.02381      0.99949     2.01422    0.01010     3.02381
      C   13    0.02020      0.99952     1.96557    0.01471     2.97980
      N   14   -0.22221      0.99971     2.71155    0.01094     3.72221
      C   15    0.03615      0.99959     1.95043    0.01382     2.96385
      C   16   -0.13068      0.99955     2.12112    0.01001     3.13068
      C   17   -0.06374      0.99951     2.05480    0.00943     3.06374
      O   18   -0.37702      0.99989     3.37072    0.00641     4.37702
      H   19    0.09786      0.00000     0.40127    0.00087     0.40214
      H   20    0.09929      0.00000     0.39980    0.00091     0.40071
      H   21    0.09795      0.00000     0.40122    0.00083     0.40205
      H   22    0.09153      0.00000     0.40671    0.00176     0.40847
      H   23    0.09638      0.00000     0.40257    0.00105     0.40362
      H   24    0.09852      0.00000     0.40047    0.00101     0.40148
      H   25    0.09738      0.00000     0.40170    0.00092     0.40262
      H   26    0.09522      0.00000     0.40303    0.00175     0.40478
      H   27    0.09807      0.00000     0.40086    0.00107     0.40193
      H   28    0.09311      0.00000     0.40562    0.00127     0.40689
      H   29    0.10331      0.00000     0.39473    0.00195     0.39669
      H   30    0.09846      0.00000     0.40062    0.00091     0.40154
      H   31    0.09888      0.00000     0.39966    0.00145     0.40112
      H   32    0.10102      0.00000     0.39760    0.00138     0.39898
      H   33    0.10333      0.00000     0.39517    0.00150     0.39667
      H   34    0.10448      0.00000     0.39443    0.00108     0.39552
      H   35    0.10821      0.00000     0.38954    0.00225     0.39179
      H   36    0.09911      0.00000     0.39975    0.00114     0.40089
      H   37    0.10776      0.00000     0.39050    0.00174     0.39224
      H   38    0.10347      0.00000     0.39475    0.00178     0.39653
      H   39    0.08809      0.00000     0.40978    0.00213     0.41191
      H   40    0.08497      0.00000     0.41400    0.00104     0.41503
      H   41    0.10093      0.00000     0.39819    0.00088     0.39907
      H   42    0.10067      0.00000     0.39786    0.00147     0.39933
      H   43    0.22740      0.00000     0.26948    0.00311     0.27260
 =======================================================================
   * Total *    0.00000     17.99275    49.79261    0.21464    68.00000

 Normal termination of Gaussian 16 at Fri Dec 11 20:37:32 2020.
