 Gaussian 16, Revision A.03,

 -----------------------------------------------------------
 # opt freq B3LYP/6-31G(d) empiricaldispersion=gd3bj scf=xqc
 -----------------------------------------------------------

 -------------------------------
 CID_138886022_JID_8774_neutraal
 -------------------------------
 Symbolic Z-matrix:
 Charge =  0 Multiplicity = 1

 SCF Done:  E(RB3LYP) =  -1091.40458463     A.U. after   15 cycles
 SCF Done:  E(RB3LYP) =  -1091.41238542     A.U. after   12 cycles
 SCF Done:  E(RB3LYP) =  -1091.41238408     A.U. after   12 cycles
 SCF Done:  E(RB3LYP) =  -1091.41200203     A.U. after   13 cycles
 SCF Done:  E(RB3LYP) =  -1091.41185765     A.U. after   12 cycles
 SCF Done:  E(RB3LYP) =  -1091.41302314     A.U. after    9 cycles
 SCF Done:  E(RB3LYP) =  -1091.41349362     A.U. after   12 cycles
 SCF Done:  E(RB3LYP) =  -1091.41368912     A.U. after   11 cycles
 SCF Done:  E(RB3LYP) =  -1091.41374405     A.U. after   11 cycles
 SCF Done:  E(RB3LYP) =  -1091.41383256     A.U. after   12 cycles
 SCF Done:  E(RB3LYP) =  -1091.41393772     A.U. after   10 cycles
 SCF Done:  E(RB3LYP) =  -1091.41393801     A.U. after    9 cycles
 SCF Done:  E(RB3LYP) =  -1091.41393805     A.U. after    7 cycles
 SCF Done:  E(RB3LYP) =  -1091.41393807     A.U. after    7 cycles
 SCF Done:  E(RB3LYP) =  -1091.41393807     A.U. after    6 cycles
 Optimization completed.
    -- Stationary point found.
 Normal termination of Gaussian 16 at Fri Dec 11 21:14:15 2020.

 --------------------------------------------------------------------
 #N Geom=AllCheck Guess=TCheck SCRF=Check GenChk RB3LYP/6-31G(d) Freq
 --------------------------------------------------------------------

 Structure from the checkpoint file:  "JID_8774.chk"
 -------------------------------
 CID_138886022_JID_8774_neutraal
 -------------------------------
 Charge =  0 Multiplicity = 1

 SCF Done:  E(RB3LYP) =  -1091.41393807     A.U. after    1 cycles

  Exact polarizability: 234.156   6.923 165.585  -4.057   5.952 157.436
 Approx polarizability: 353.238  20.656 255.683 -12.854  14.940 255.959

                      1                      2                      3
                      A                      A                      A
 Frequencies --      6.3317                32.1468                44.9295
 Red. masses --      1.0309                 4.3587                 4.2281
 Frc consts  --      0.0000                 0.0027                 0.0050
 IR Inten    --      0.1810                 0.4711                 0.2356

                      4                      5                      6
                      A                      A                      A
 Frequencies --     54.1190                73.4451                84.4397
 Red. masses --      3.9832                 4.5194                 3.1032
 Frc consts  --      0.0069                 0.0144                 0.0130
 IR Inten    --      0.1700                 0.6712                 0.4494

                      7                      8                      9
                      A                      A                      A
 Frequencies --     99.4515               136.5260               156.5051
 Red. masses --      1.7188                 2.0041                 1.2131
 Frc consts  --      0.0100                 0.0220                 0.0175
 IR Inten    --      0.0510                 0.3006                 0.8577

                     10                     11                     12
                      A                      A                      A
 Frequencies --    162.5961               195.9405               198.5005
 Red. masses --      1.6946                 1.9872                 1.9241
 Frc consts  --      0.0264                 0.0450                 0.0447
 IR Inten    --      0.9532                 2.8669                 0.2475

                     13                     14                     15
                      A                      A                      A
 Frequencies --    224.6986               231.0881               248.4723
 Red. masses --      3.1180                 2.9743                 2.2378
 Frc consts  --      0.0928                 0.0936                 0.0814
 IR Inten    --      0.1172                 0.4316                 0.3651

                     16                     17                     18
                      A                      A                      A
 Frequencies --    265.5462               280.0675               294.4875
 Red. masses --      3.7008                 2.5331                 3.2232
 Frc consts  --      0.1538                 0.1171                 0.1647
 IR Inten    --      1.0644                 0.3040                 0.7149

                     19                     20                     21
                      A                      A                      A
 Frequencies --    333.0908               368.1294               397.4259
 Red. masses --      3.3763                 4.0797                 3.0002
 Frc consts  --      0.2207                 0.3257                 0.2792
 IR Inten    --      0.5934                 2.3305                 2.6018

                     22                     23                     24
                      A                      A                      A
 Frequencies --    426.6587               506.8788               518.4143
 Red. masses --      2.5465                 3.3131                 3.5256
 Frc consts  --      0.2731                 0.5015                 0.5583
 IR Inten    --      1.3501                 0.3498                 3.6429

                     25                     26                     27
                      A                      A                      A
 Frequencies --    525.8919               534.8614               551.7417
 Red. masses --      3.1667                 6.5943                 5.3079
 Frc consts  --      0.5160                 1.1115                 0.9520
 IR Inten    --      1.2635                 3.7324                 1.0343

                     28                     29                     30
                      A                      A                      A
 Frequencies --    581.9930               592.5076               601.4543
 Red. masses --      4.0520                 4.6088                 3.2309
 Frc consts  --      0.8086                 0.9533                 0.6886
 IR Inten    --      0.8959                 1.1484                 2.9349

                     31                     32                     33
                      A                      A                      A
 Frequencies --    612.9509               648.1997               726.7499
 Red. masses --      4.0159                 7.5746                 5.8588
 Frc consts  --      0.8890                 1.8751                 1.8232
 IR Inten    --      4.7915                 0.2528                 6.4291

                     34                     35                     36
                      A                      A                      A
 Frequencies --    740.0021               751.6109               782.9895
 Red. masses --      1.1913                 3.1250                 1.4367
 Frc consts  --      0.3844                 1.0401                 0.5190
 IR Inten    --     25.1816                 0.9877                14.2062

                     37                     38                     39
                      A                      A                      A
 Frequencies --    796.7066               816.1469               864.8725
 Red. masses --      2.0471                 1.9289                 4.5527
 Frc consts  --      0.7656                 0.7570                 2.0064
 IR Inten    --      6.9179                 5.5678                26.6996

                     40                     41                     42
                      A                      A                      A
 Frequencies --    875.6318               887.7785               898.6035
 Red. masses --      1.2752                 2.7352                 1.2991
 Frc consts  --      0.5761                 1.2701                 0.6181
 IR Inten    --     10.0451                 1.1155                 0.3830

                     43                     44                     45
                      A                      A                      A
 Frequencies --    942.3591               961.9068               980.7997
 Red. masses --      1.6085                 2.4886                 3.3627
 Frc consts  --      0.8416                 1.3567                 1.9059
 IR Inten    --      7.6685                 2.5334                 0.9186

                     46                     47                     48
                      A                      A                      A
 Frequencies --   1023.0319              1043.5479              1048.7576
 Red. masses --      2.4332                 1.6485                 1.6111
 Frc consts  --      1.5004                 1.0577                 1.0441
 IR Inten    --      8.2116                 9.9017                 1.3749

                     49                     50                     51
                      A                      A                      A
 Frequencies --   1061.8235              1073.9738              1075.0240
 Red. masses --      1.6227                 1.6146                 1.5181
 Frc consts  --      1.0779                 1.0973                 1.0337
 IR Inten    --      1.8872                14.7144                 3.3157

                     52                     53                     54
                      A                      A                      A
 Frequencies --   1077.9831              1089.4653              1128.9923
 Red. masses --      1.5020                 3.1768                 1.8559
 Frc consts  --      1.0284                 2.2216                 1.3938
 IR Inten    --      0.5399                 4.9933                 2.7843

                     55                     56                     57
                      A                      A                      A
 Frequencies --   1155.1602              1163.1207              1201.0457
 Red. masses --      2.0510                 2.2218                 1.6465
 Frc consts  --      1.6125                 1.7709                 1.3993
 IR Inten    --     34.2519                 0.2794                 2.3306

                     58                     59                     60
                      A                      A                      A
 Frequencies --   1257.6276              1273.8538              1285.6328
 Red. masses --      1.6528                 1.3716                 1.8999
 Frc consts  --      1.5402                 1.3113                 1.8502
 IR Inten    --     38.2573                23.2289                27.4020

                     61                     62                     63
                      A                      A                      A
 Frequencies --   1296.1509              1322.3129              1335.8690
 Red. masses --      1.8656                 1.7784                 4.5823
 Frc consts  --      1.8466                 1.8321                 4.8179
 IR Inten    --     26.5525                28.2084                12.1992

                     64                     65                     66
                      A                      A                      A
 Frequencies --   1339.5634              1349.6621              1389.1497
 Red. masses --      2.1249                 3.2874                 1.7043
 Frc consts  --      2.2465                 3.5282                 1.9377
 IR Inten    --      1.2001                 1.2108                 4.3915

                     67                     68                     69
                      A                      A                      A
 Frequencies --   1408.1761              1416.2772              1441.7445
 Red. masses --      1.6579                 1.3090                 1.2380
 Frc consts  --      1.9370                 1.5470                 1.5162
 IR Inten    --      4.1807                25.8121                 2.1061

                     70                     71                     72
                      A                      A                      A
 Frequencies --   1441.9345              1446.0998              1449.4103
 Red. masses --      1.2338                 1.2818                 1.2465
 Frc consts  --      1.5114                 1.5793                 1.5429
 IR Inten    --      2.2197                 4.3466                11.4794

                     73                     74                     75
                      A                      A                      A
 Frequencies --   1466.1555              1491.8145              1503.6835
 Red. masses --      2.7020                 1.9187                 1.1899
 Frc consts  --      3.4222                 2.5158                 1.5851
 IR Inten    --      0.5988                 4.0049                39.2296

                     76                     77                     78
                      A                      A                      A
 Frequencies --   1509.1311              1513.0924              1515.5050
 Red. masses --      1.0708                 1.2083                 1.0811
 Frc consts  --      1.4369                 1.6299                 1.4629
 IR Inten    --      7.0816                29.3748                 5.5927

                     79                     80                     81
                      A                      A                      A
 Frequencies --   1516.5658              1521.0414              1523.8026
 Red. masses --      1.0483                 2.7392                 1.0553
 Frc consts  --      1.4206                 3.7338                 1.4437
 IR Inten    --      5.3071               107.0842                 0.6414

                     82                     83                     84
                      A                      A                      A
 Frequencies --   1530.2255              1532.0591              1539.0327
 Red. masses --      1.1617                 1.0983                 1.1419
 Frc consts  --      1.6028                 1.5188                 1.5936
 IR Inten    --     17.4390                 0.4191                27.6323

                     85                     86                     87
                      A                      A                      A
 Frequencies --   1544.2169              1581.2834              1634.1188
 Red. masses --      1.3833                 5.3385                 6.5172
 Frc consts  --      1.9435                 7.8648                10.2537
 IR Inten    --     52.3520               234.7716                 3.9148

                     88                     89                     90
                      A                      A                      A
 Frequencies --   1667.3437              3037.6340              3041.6132
 Red. masses --      5.4809                 1.0642                 1.0454
 Frc consts  --      8.9774                 5.7856                 5.6980
 IR Inten    --      9.7132                24.7190                23.0221

                     91                     92                     93
                      A                      A                      A
 Frequencies --   3043.8507              3052.6303              3057.9232
 Red. masses --      1.0389                 1.0410                 1.0448
 Frc consts  --      5.6712                 5.7153                 5.7561
 IR Inten    --     34.8770                24.0450                33.3389

                     94                     95                     96
                      A                      A                      A
 Frequencies --   3057.9667              3080.0609              3098.4507
 Red. masses --      1.0568                 1.0972                 1.0984
 Frc consts  --      5.8223                 6.1330                 6.2132
 IR Inten    --     16.4358                34.5717                19.3810

                     97                     98                     99
                      A                      A                      A
 Frequencies --   3103.9467              3108.3596              3114.9985
 Red. masses --      1.0904                 1.1033                 1.1012
 Frc consts  --      6.1895                 6.2809                 6.2956
 IR Inten    --     13.6227                20.6350                42.4350

                    100                    101                    102
                      A                      A                      A
 Frequencies --   3116.5872              3127.2929              3138.6424
 Red. masses --      1.0964                 1.1018                 1.1030
 Frc consts  --      6.2743                 6.3486                 6.4018
 IR Inten    --     18.5078                15.8242                12.0748

                    103                    104                    105
                      A                      A                      A
 Frequencies --   3146.0513              3149.9936              3171.4912
 Red. masses --      1.0998                 1.0994                 1.0899
 Frc consts  --      6.4134                 6.4274                 6.4588
 IR Inten    --     38.2737                 3.3684                24.0732

                    106                    107                    108
                      A                      A                      A
 Frequencies --   3174.4421              3242.6983              3246.1998
 Red. masses --      1.0902                 1.0905                 1.0953
 Frc consts  --      6.4725                 6.7561                 6.8004
 IR Inten    --     19.5700                12.1836                 2.3112

 - Thermochemistry -
 -------------------
 Temperature   298.150 Kelvin.  Pressure   1.00000 Atm.
 Atom     1 has atomic number  6 and mass  12.00000

 Molecular mass:   260.13472 amu.
 Principal axes and moments of inertia in atomic units:
                           1         2         3
     Eigenvalues --  3344.236666038.170867105.33551
           X            0.99949   0.03198   0.00084
           Y           -0.03198   0.99948  -0.00443
           Z           -0.00098   0.00440   0.99999
 This molecule is an asymmetric top.
 Rotational symmetry number  1.
 Warning -- assumption of classical behavior for rotation
           may cause significant error
 Rotational temperatures (Kelvin)      0.02590     0.01434     0.01219
 Rotational constants (GHZ):           0.53966     0.29889     0.25400
 Zero-point vibrational energy     846423.4 (Joules/Mol)
                                  202.30005 (Kcal/Mol)
 Warning -- explicit consideration of  31 degrees of freedom as
           vibrations may cause significant error
 Vibrational temperatures:      9.11    46.25    64.64    77.87   105.67
          (Kelvin)            121.49   143.09   196.43   225.18   233.94
                              281.91   285.60   323.29   332.48   357.50
                              382.06   402.95   423.70   479.24   529.66
                              571.81   613.87   729.29   745.88   756.64
                              769.55   793.83   837.36   852.49   865.36
                              881.90   932.61  1045.63  1064.70  1081.40
                             1126.55  1146.28  1174.25  1244.36  1259.84
                             1277.32  1292.89  1355.84  1383.97  1411.15
                             1471.91  1501.43  1508.93  1527.73  1545.21
                             1546.72  1550.98  1567.50  1624.37  1662.02
                             1673.47  1728.04  1809.45  1832.79  1849.74
                             1864.87  1902.51  1922.02  1927.33  1941.86
                             1998.68  2026.05  2037.71  2074.35  2074.62
                             2080.62  2085.38  2109.47  2146.39  2163.47
                             2171.30  2177.00  2180.47  2182.00  2188.44
                             2192.41  2201.65  2204.29  2214.32  2221.78
                             2275.11  2351.13  2398.94  4370.48  4376.20
                             4379.42  4392.05  4399.67  4399.73  4431.52
                             4457.98  4465.89  4472.24  4481.79  4484.07
                             4499.48  4515.81  4526.47  4532.14  4563.07
                             4567.31  4665.52  4670.56

 Zero-point correction=                           0.322386 (Hartree/Particle)
 Thermal correction to Energy=                    0.341422
 Thermal correction to Enthalpy=                  0.342366
 Thermal correction to Gibbs Free Energy=         0.272581
 Sum of electronic and zero-point Energies=          -1091.091552
 Sum of electronic and thermal Energies=             -1091.072516
 Sum of electronic and thermal Enthalpies=           -1091.071572
 Sum of electronic and thermal Free Energies=        -1091.141357

                     E (Thermal)             CV                S
                      KCal/Mol        Cal/Mol-Kelvin    Cal/Mol-Kelvin
 Total                  214.245             70.654            146.875
 Electronic               0.000              0.000              0.000
 Translational            0.889              2.981             42.568
 Rotational               0.889              2.981             33.328
 Vibrational            212.468             64.692             70.980
 Vibration     1          0.593              1.987              8.919
 Vibration     2          0.594              1.983              5.692
 Vibration     3          0.595              1.979              5.029
 Vibration     4          0.596              1.976              4.661
 Vibration     5          0.599              1.967              4.059
 Vibration     6          0.601              1.960              3.785
 Vibration     7          0.604              1.949              3.465
 Vibration     8          0.614              1.917              2.852
 Vibration     9          0.620              1.895              2.592
 Vibration    10          0.623              1.888              2.519
 Vibration    11          0.636              1.846              2.171
 Vibration    12          0.637              1.842              2.147
 Vibration    13          0.649              1.803              1.921
 Vibration    14          0.653              1.793              1.870
 Vibration    15          0.662              1.765              1.741
 Vibration    16          0.671              1.736              1.625
 Vibration    17          0.680              1.710              1.533
 Vibration    18          0.689              1.684              1.448
 Vibration    19          0.715              1.609              1.245
 Vibration    20          0.741              1.538              1.088
 Vibration    21          0.764              1.476              0.972
 Vibration    22          0.788              1.412              0.870
 Vibration    23          0.862              1.235              0.641
 Vibration    24          0.873              1.209              0.614
 Vibration    25          0.881              1.193              0.596
 Vibration    26          0.890              1.173              0.576
 Vibration    27          0.907              1.136              0.541
 Vibration    28          0.939              1.070              0.482
 Vibration    29          0.950              1.048              0.463
 Vibration    30          0.960              1.029              0.447
 Vibration    31          0.972              1.004              0.428

                           ! Non-Optimized Parameters !
 Normal termination of Gaussian 16 at Fri Dec 11 21:34:03 2020.

 ----------------------------------------------------------------------
 # B3LYP/6-311++G(d,p) empiricaldispersion=gd3bj scf=xqc pop=npa geom=c
 heck
 ----------------------------------------------------------------------

 ---------------------------------------
 CID_138886022_JID_8774_Energie_neutraal
 ---------------------------------------
 Structure from the checkpoint file:  "JID_8774.chk"
 Charge =  0 Multiplicity = 1

 SCF Done:  E(RB3LYP) =  -1091.61920486     A.U. after   17 cycles
 Normal termination of Gaussian 16 at Fri Dec 11 21:44:23 2020.

 ----------------------------------------------------------------------
 # B3LYP/6-311++G(d,p) empiricaldispersion=gd3bj scf=xqc pop=npa geom=c
 heck
 ----------------------------------------------------------------------

 -------------------------------------
 CID_138886022_JID_8774_Energie_kation
 -------------------------------------
 Structure from the checkpoint file:  "JID_8774.chk"
 Charge =  1 Multiplicity = 2

 SCF Done:  E(UB3LYP) =  -1091.36250511     A.U. after   22 cycles
 Normal termination of Gaussian 16 at Fri Dec 11 22:04:15 2020.
 Gaussian 16:  ES64L-G16RevA.03 25-Dec-2016

 ----------------------------------------------------------------------
 # B3LYP/6-311++G(d,p) empiricaldispersion=gd3bj scf=xqc pop=npa geom=c
 heck
 ----------------------------------------------------------------------

 ------------------------------------
 CID_138886022_JID_8774_Energie_anion
 ------------------------------------
 Structure from the checkpoint file:  "JID_8774.chk"
 Charge = -1 Multiplicity = 2

                         Standard orientation:
 ---------------------------------------------------------------------
 Center     Atomic      Atomic             Coordinates (Angstroms)
 Number     Number       Type             X           Y           Z
 ---------------------------------------------------------------------
      1          6           0       -0.221305    3.473667   -0.744617
      2          6           0        1.112483    3.011333   -0.150728
      3          6           0        0.960953    1.930726    0.932130
      4          7           0        0.699747    0.580964    0.429994
      5          6           0        1.770639   -0.233207    0.140306
      6          6           0        3.102706    0.088318   -0.012994
      7          7           0        3.958668   -0.972583   -0.210592
      8          6           0        3.322384   -2.100908   -0.222865
      9         16           0        1.581744   -1.981204    0.032381
     10          6           0       -0.636909    0.129224    0.203334
     11          6           0       -1.476946   -0.111347    1.305665
     12          6           0       -2.790887   -0.527019    1.069235
     13          6           0       -3.278812   -0.731541   -0.221546
     14          6           0       -2.412199   -0.512622   -1.297237
     15          6           0       -1.096058   -0.087375   -1.113754
     16          6           0       -0.196768    0.110816   -2.307991
     17          6           0       -4.692098   -1.205674   -0.456615
     18          6           0       -0.978944    0.046339    2.720601
     19          1           0       -0.859453    3.909340    0.033887
     20          1           0       -0.775966    2.646623   -1.195400
     21          1           0       -0.066325    4.236797   -1.515047
     22          1           0        1.776363    2.637903   -0.939917
     23          1           0        1.623180    3.872479    0.301533
     24          1           0        1.869081    1.875913    1.542962
     25          1           0        0.138093    2.205894    1.599696
     26          1           0        3.501919    1.094110   -0.001774
     27          1           0        3.780933   -3.066315   -0.399335
     28          1           0       -3.442439   -0.711932    1.920482
     29          1           0       -2.773024   -0.671259   -2.311356
     30          1           0        0.454048    0.980362   -2.189350
     31          1           0        0.459164   -0.755592   -2.455066
     32          1           0       -0.788977    0.240784   -3.218537
     33          1           0       -4.712493   -2.264587   -0.744900
     34          1           0       -5.305193   -1.096820    0.443274
     35          1           0       -5.172842   -0.642829   -1.264738
     36          1           0        0.076794   -0.229037    2.800218
     37          1           0       -1.073751    1.079884    3.079111
     38          1           0       -1.555346   -0.585496    3.402796
 ---------------------------------------------------------------------

 SCF Done:  E(UB3LYP) =  -1091.60729818     A.U. after   33 cycles
 SCF Done:  E(UB3LYP) =  -1091.60729818     a.u. after    1 cycles

 The electronic state is 2-A.
 Alpha  occ. eigenvalues --  -88.78180 -14.24876 -14.21900 -10.14473 -10.12613
 Alpha  occ. eigenvalues --  -10.11196 -10.11183 -10.09161 -10.09121 -10.08870
 Alpha  occ. eigenvalues --  -10.08633 -10.07620 -10.07440 -10.07380 -10.07303
 Alpha  occ. eigenvalues --  -10.07297 -10.07182 -10.06316  -7.86817  -5.83098
 Alpha  occ. eigenvalues --   -5.82759  -5.82393  -0.88093  -0.85242  -0.76614
 Alpha  occ. eigenvalues --   -0.70453  -0.69375  -0.69199  -0.67294  -0.64017
 Alpha  occ. eigenvalues --   -0.61153  -0.60526  -0.58808  -0.57235  -0.51568
 Alpha  occ. eigenvalues --   -0.50464  -0.48765  -0.47498  -0.45707  -0.42840
 Alpha  occ. eigenvalues --   -0.41006  -0.40090  -0.36516  -0.35850  -0.34567
 Alpha  occ. eigenvalues --   -0.33921  -0.33637  -0.33262  -0.32678  -0.32409
 Alpha  occ. eigenvalues --   -0.32244  -0.31356  -0.31341  -0.31030  -0.30245
 Alpha  occ. eigenvalues --   -0.30061  -0.27917  -0.27202  -0.26953  -0.25876
 Alpha  occ. eigenvalues --   -0.25208  -0.24922  -0.24679  -0.24109  -0.21195
 Alpha  occ. eigenvalues --   -0.18203  -0.17598  -0.14982  -0.14931  -0.10323
 Alpha  occ. eigenvalues --    0.04163
 Alpha virt. eigenvalues --    0.05991   0.06518   0.06897   0.07111   0.07595
 Alpha virt. eigenvalues --    0.07863   0.08117   0.08436   0.08742   0.09509
 Alpha virt. eigenvalues --    0.09947   0.10096   0.10739   0.10853   0.10962

  Beta  occ. eigenvalues --  -88.78171 -14.24890 -14.21900 -10.14430 -10.12548
  Beta  occ. eigenvalues --  -10.11172 -10.11160 -10.09148 -10.09126 -10.08828
  Beta  occ. eigenvalues --  -10.08600 -10.07599 -10.07425 -10.07351 -10.07298
  Beta  occ. eigenvalues --  -10.07290 -10.07159 -10.06289  -7.86809  -5.83094
  Beta  occ. eigenvalues --   -5.82755  -5.82365  -0.88059  -0.85209  -0.76567
  Beta  occ. eigenvalues --   -0.70406  -0.69311  -0.69161  -0.67248  -0.63944
  Beta  occ. eigenvalues --   -0.61112  -0.60469  -0.58776  -0.57182  -0.51495
  Beta  occ. eigenvalues --   -0.50387  -0.48720  -0.47424  -0.45653  -0.42801
  Beta  occ. eigenvalues --   -0.40971  -0.40059  -0.36474  -0.35809  -0.34520
  Beta  occ. eigenvalues --   -0.33877  -0.33575  -0.33210  -0.32623  -0.32352
  Beta  occ. eigenvalues --   -0.32175  -0.31330  -0.31308  -0.30968  -0.30184
  Beta  occ. eigenvalues --   -0.30016  -0.27888  -0.27152  -0.26908  -0.25827
  Beta  occ. eigenvalues --   -0.25156  -0.24890  -0.24637  -0.24043  -0.21080
  Beta  occ. eigenvalues --   -0.18169  -0.17479  -0.14873  -0.14761  -0.10203
  Beta virt. eigenvalues --    0.06204   0.06723   0.07088   0.07158   0.07381
  Beta virt. eigenvalues --    0.07726   0.08250   0.08374   0.08842   0.09011
  Beta virt. eigenvalues --    0.09886   0.10173   0.10330   0.10922   0.10980

 Mulliken charges and spin densities:
               1          2
     1  C    0.727911  -1.383301
     2  C   -0.960385   0.828819
     3  C    0.457221  -0.461993
     4  N    0.447750   0.084746
     5  C   -0.675055   0.108796
     6  C    0.061743   0.053409
     7  N   -0.065461   0.004210
     8  C   -0.208489   0.025993
     9  S    0.248820  -0.256226
    10  C   -0.160004   0.242265
    11  C    0.195995  -0.262779
    12  C   -0.032599  -0.741444
    13  C   -0.468206   0.871383
    14  C   -0.846866   0.563980
    15  C   -1.122065   1.198638
    16  C   -0.049975  -0.450231
    17  C    2.360814  -2.811014
    18  C    0.236540  -0.867847
    19  H   -0.184159   0.334203
    20  H    0.249763  -0.115226
    21  H   -0.210894   0.357554
    22  H    0.119413   0.013053
    23  H   -0.472985   0.638128
    24  H    0.038307   0.140681
    25  H    0.093463   0.013865
    26  H    0.022462   0.152487
    27  H    0.157617   0.062560
    28  H   -0.162457   0.314937
    29  H   -0.213530   0.369710
    30  H    0.111599   0.018317
    31  H    0.050010   0.111781
    32  H   -0.049632   0.205284
    33  H   -0.189415   0.366731
    34  H   -0.285207   0.429374
    35  H   -0.077842   0.223144
    36  H    0.120046   0.027679
    37  H   -0.289590   0.475790
    38  H    0.025343   0.112542
 Sum of Mulliken charges =  -1.00000   1.00000

 Dipole moment (field-independent basis, Debye):
    X=              2.5126    Y=             -2.9565    Z=             -0.6407  Tot=              3.9326
 Quadrupole moment (field-independent basis, Debye-Ang):
   XX=           -198.5990   YY=           -172.4302   ZZ=           -153.6850
   XY=             -9.1367   XZ=             -0.1294   YZ=             -5.5615

 Summary of Natural Population Analysis:

                                       Natural Population
                Natural  -----------------------------------------------
    Atom  No    Charge         Core      Valence    Rydberg      Total
 -----------------------------------------------------------------------
      C    1   -0.28707      0.99966     2.28204    0.00537     3.28707
      C    2   -0.19771      0.99963     2.19007    0.00801     3.19771
      C    3   -0.07831      0.99959     2.06672    0.01200     3.07831
      N    4   -0.26797      0.99960     2.75181    0.01656     3.76797
      C    5    0.02636      0.99946     1.96118    0.01301     2.97364
      C    6   -0.06925      0.99947     2.05596    0.01382     3.06925
      N    7   -0.23181      0.99969     2.71996    0.01216     3.73181
      C    8   -0.06141      0.99966     2.04497    0.01678     3.06141
      S    9    0.17159      4.99946     2.81054    0.01841     7.82841
      C   10    0.07182      0.99937     1.91630    0.01251     2.92818
      C   11   -0.00403      0.99947     1.99524    0.00932     3.00403
      C   12   -0.10386      0.99947     2.09521    0.00918     3.10386
      C   13   -0.00204      0.99952     1.99307    0.00946     3.00204
      C   14   -0.10035      0.99946     2.09185    0.00903     3.10035
      C   15   -0.01029      0.99947     2.00109    0.00973     3.01029
      C   16   -0.29816      0.99963     2.29284    0.00570     3.29816
      C   17   -0.29108      0.99964     2.28632    0.00512     3.29108
      C   18   -0.29523      0.99963     2.29005    0.00555     3.29523
      H   19    0.09827      0.00000     0.40048    0.00126     0.40173
      H   20    0.10014      0.00000     0.39826    0.00160     0.39986
      H   21    0.09839      0.00000     0.40068    0.00093     0.40161
      H   22    0.09586      0.00000     0.40280    0.00134     0.40414
      H   23    0.09817      0.00000     0.40022    0.00161     0.40183
      H   24    0.09947      0.00000     0.39892    0.00161     0.40053
      H   25    0.10082      0.00000     0.39746    0.00172     0.39918
      H   26    0.10129      0.00000     0.39695    0.00176     0.39871
      H   27    0.09482      0.00000     0.40399    0.00119     0.40518
      H   28    0.09799      0.00000     0.40104    0.00096     0.40201
      H   29    0.09712      0.00000     0.40161    0.00127     0.40288
      H   30    0.10715      0.00000     0.39158    0.00126     0.39285
      H   31    0.10959      0.00000     0.38915    0.00126     0.39041
      H   32    0.10213      0.00000     0.39709    0.00078     0.39787
      H   33    0.10639      0.00000     0.39169    0.00192     0.39361
      H   34    0.10212      0.00000     0.39675    0.00114     0.39788
      H   35    0.10249      0.00000     0.39641    0.00110     0.39751
      H   36    0.10656      0.00000     0.39237    0.00107     0.39344
      H   37    0.10726      0.00000     0.39127    0.00147     0.39274
      H   38    0.10279      0.00000     0.39640    0.00081     0.39721
 =======================================================================
   * Total *   -0.00000     21.99186    47.79038    0.21776    70.00000

 Normal termination of Gaussian 16 at Fri Dec 11 22:33:37 2020.
