 Gaussian 16, Revision A.03,

 -----------------------------------------------------------
 # opt freq B3LYP/6-31G(d) empiricaldispersion=gd3bj scf=xqc
 -----------------------------------------------------------

 -------------------------------
 CID_103497691_JID_6354_neutraal
 -------------------------------
 Symbolic Z-matrix:
 Charge =  0 Multiplicity = 1

 SCF Done:  E(RB3LYP) =  -787.540010873     A.U. after   14 cycles
 SCF Done:  E(RB3LYP) =  -787.541856581     A.U. after   12 cycles
 SCF Done:  E(RB3LYP) =  -787.540521731     A.U. after   13 cycles
 SCF Done:  E(RB3LYP) =  -787.542110709     A.U. after   13 cycles
 SCF Done:  E(RB3LYP) =  -787.544570296     A.U. after   13 cycles
 SCF Done:  E(RB3LYP) =  -787.544775456     A.U. after   12 cycles
 SCF Done:  E(RB3LYP) =  -787.545256805     A.U. after   12 cycles
 SCF Done:  E(RB3LYP) =  -787.545281690     A.U. after   11 cycles
 SCF Done:  E(RB3LYP) =  -787.545439713     A.U. after   11 cycles
 SCF Done:  E(RB3LYP) =  -787.545502213     A.U. after   11 cycles
 SCF Done:  E(RB3LYP) =  -787.545561074     A.U. after    8 cycles
 SCF Done:  E(RB3LYP) =  -787.545561354     A.U. after    7 cycles
 SCF Done:  E(RB3LYP) =  -787.545561595     A.U. after    8 cycles
 SCF Done:  E(RB3LYP) =  -787.545561744     A.U. after    8 cycles
 SCF Done:  E(RB3LYP) =  -787.545561794     A.U. after    7 cycles
 Optimization completed.
    -- Stationary point found.
 Normal termination of Gaussian 16 at Thu Dec 10 22:27:01 2020.

 --------------------------------------------------------------------
 #N Geom=AllCheck Guess=TCheck SCRF=Check GenChk RB3LYP/6-31G(d) Freq
 --------------------------------------------------------------------

 Structure from the checkpoint file:  "JID_6354.chk"
 -------------------------------
 CID_103497691_JID_6354_neutraal
 -------------------------------
 Charge =  0 Multiplicity = 1

 SCF Done:  E(RB3LYP) =  -787.545561794     A.U. after    1 cycles

  Exact polarizability: 152.284  -4.096 125.249  -1.403  -6.628 118.113
 Approx polarizability: 188.027  -5.690 186.471  -6.275 -27.036 188.810

                      1                      2                      3
                      A                      A                      A
 Frequencies --     33.9421                35.1882                45.4833
 Red. masses --      3.7212                 6.3299                 5.0969
 Frc consts  --      0.0025                 0.0046                 0.0062
 IR Inten    --      0.4333                 0.5345                 1.6551

                      4                      5                      6
                      A                      A                      A
 Frequencies --     50.6593                70.9840                75.7857
 Red. masses --      4.4460                 3.1825                 4.6271
 Frc consts  --      0.0067                 0.0094                 0.0157
 IR Inten    --      0.6127                 1.2040                 2.3141

                      7                      8                      9
                      A                      A                      A
 Frequencies --     90.3874               119.0966               140.7036
 Red. masses --      5.2390                 2.7066                 2.7103
 Frc consts  --      0.0252                 0.0226                 0.0316
 IR Inten    --      2.7844                 2.4344                 0.6156

                     10                     11                     12
                      A                      A                      A
 Frequencies --    161.1120               181.9063               202.9556
 Red. masses --      2.5045                 2.4522                 1.7091
 Frc consts  --      0.0383                 0.0478                 0.0415
 IR Inten    --      0.8977                 0.2972                 1.4717

                     13                     14                     15
                      A                      A                      A
 Frequencies --    215.3166               236.9093               244.6742
 Red. masses --      1.2895                 1.5824                 1.7711
 Frc consts  --      0.0352                 0.0523                 0.0625
 IR Inten    --      1.2859                 0.2094                 1.0308

                     16                     17                     18
                      A                      A                      A
 Frequencies --    267.1439               275.3383               285.2495
 Red. masses --      2.6391                 2.3362                 2.7912
 Frc consts  --      0.1110                 0.1044                 0.1338
 IR Inten    --      0.8926                 5.1519                 2.4052

                     19                     20                     21
                      A                      A                      A
 Frequencies --    307.6427               346.0213               387.4856
 Red. masses --      2.8827                 2.3760                 2.5132
 Frc consts  --      0.1607                 0.1676                 0.2223
 IR Inten    --     16.8106                11.6210                25.8199

                     22                     23                     24
                      A                      A                      A
 Frequencies --    413.4302               425.7133               473.7828
 Red. masses --      1.6126                 1.8548                 2.9106
 Frc consts  --      0.1624                 0.1981                 0.3849
 IR Inten    --     85.1705                48.4180                 8.3101

                     25                     26                     27
                      A                      A                      A
 Frequencies --    494.1154               543.1632               572.1113
 Red. masses --      3.8683                 2.6618                 3.5885
 Frc consts  --      0.5564                 0.4627                 0.6920
 IR Inten    --      3.2987                29.5092                 9.9334

                     28                     29                     30
                      A                      A                      A
 Frequencies --    581.1920               630.0109               657.0126
 Red. masses --      3.2655                 1.3874                 2.9731
 Frc consts  --      0.6499                 0.3244                 0.7561
 IR Inten    --     40.9703                90.1994                 9.3276

                     31                     32                     33
                      A                      A                      A
 Frequencies --    696.8099               742.4029               778.6943
 Red. masses --      2.3221                 5.2325                 2.2108
 Frc consts  --      0.6643                 1.6992                 0.7898
 IR Inten    --      8.5363                 3.2114                18.0996

                     34                     35                     36
                      A                      A                      A
 Frequencies --    802.4925               838.8423               867.4570
 Red. masses --      2.1756                 2.8183                 2.6357
 Frc consts  --      0.8255                 1.1684                 1.1685
 IR Inten    --     22.1604                 1.7985                 5.2879

                     37                     38                     39
                      A                      A                      A
 Frequencies --    875.2877               881.5055               901.8311
 Red. masses --      1.8213                 2.1460                 1.6683
 Frc consts  --      0.8221                 0.9825                 0.7994
 IR Inten    --      2.2811                 3.5739                 3.0361

                     40                     41                     42
                      A                      A                      A
 Frequencies --    950.0663               976.0334               997.7076
 Red. masses --      1.7883                 1.7613                 1.4247
 Frc consts  --      0.9511                 0.9886                 0.8355
 IR Inten    --      8.5106                 3.1444                22.3790

                     43                     44                     45
                      A                      A                      A
 Frequencies --   1038.9263              1049.3475              1071.3652
 Red. masses --      1.8215                 1.8373                 2.2971
 Frc consts  --      1.1584                 1.1920                 1.5535
 IR Inten    --     37.0637                 2.8721                 5.3798

                     46                     47                     48
                      A                      A                      A
 Frequencies --   1082.2191              1098.5580              1112.7925
 Red. masses --      2.2169                 3.0673                 1.8193
 Frc consts  --      1.5297                 2.1810                 1.3273
 IR Inten    --    107.6070               104.9307                18.7586

                     49                     50                     51
                      A                      A                      A
 Frequencies --   1118.6478              1124.5431              1165.6382
 Red. masses --      2.0251                 2.9312                 2.0679
 Frc consts  --      1.4931                 2.1840                 1.6555
 IR Inten    --      1.5253                 6.6310                25.8471

                     52                     53                     54
                      A                      A                      A
 Frequencies --   1194.3116              1209.0965              1224.8921
 Red. masses --      2.0722                 1.8788                 1.7085
 Frc consts  --      1.7414                 1.6183                 1.5103
 IR Inten    --      6.3172               222.3192                15.0061

                     55                     56                     57
                      A                      A                      A
 Frequencies --   1250.1410              1280.0236              1311.2426
 Red. masses --      1.9044                 1.5862                 1.2062
 Frc consts  --      1.7536                 1.5312                 1.2219
 IR Inten    --      9.5012                41.4928                 4.1643

                     58                     59                     60
                      A                      A                      A
 Frequencies --   1317.8437              1328.2042              1355.1821
 Red. masses --      1.2683                 1.5661                 1.3058
 Frc consts  --      1.2978                 1.6278                 1.4129
 IR Inten    --      4.0257                38.8605                 1.8383

                     61                     62                     63
                      A                      A                      A
 Frequencies --   1370.8245              1373.6575              1394.0864
 Red. masses --      2.0040                 1.5751                 1.3769
 Frc consts  --      2.2188                 1.7511                 1.5766
 IR Inten    --     44.7798                 1.0419                18.6902

                     64                     65                     66
                      A                      A                      A
 Frequencies --   1397.4150              1402.8065              1409.8878
 Red. masses --      1.1831                 1.3633                 1.2469
 Frc consts  --      1.3612                 1.5807                 1.4603
 IR Inten    --     12.8532                 6.6810                 4.0501

                     67                     68                     69
                      A                      A                      A
 Frequencies --   1420.7932              1435.1568              1445.3802
 Red. masses --      1.3438                 1.3201                 1.2882
 Frc consts  --      1.5982                 1.6020                 1.5856
 IR Inten    --      5.6615                36.0389                18.8767

                     70                     71                     72
                      A                      A                      A
 Frequencies --   1446.1933              1448.1733              1469.4584
 Red. masses --      1.2417                 1.2582                 1.8139
 Frc consts  --      1.5301                 1.5547                 2.3078
 IR Inten    --      6.9623                 2.9968                92.0153

                     73                     74                     75
                      A                      A                      A
 Frequencies --   1508.6645              1512.1397              1522.3250
 Red. masses --      1.1035                 1.0779                 1.0516
 Frc consts  --      1.4798                 1.4521                 1.4359
 IR Inten    --      5.7017                 8.9833                 5.9672

                     76                     77                     78
                      A                      A                      A
 Frequencies --   1524.3537              1526.4132              1529.7880
 Red. masses --      1.0566                 1.0551                 1.0558
 Frc consts  --      1.4466                 1.4484                 1.4558
 IR Inten    --     10.0994                17.8253                 8.1331

                     79                     80                     81
                      A                      A                      A
 Frequencies --   1532.0947              1538.1135              1540.8253
 Red. masses --      1.0695                 1.0590                 1.0638
 Frc consts  --      1.4792                 1.4761                 1.4880
 IR Inten    --      1.3385                 2.5891                10.3923

                     82                     83                     84
                      A                      A                      A
 Frequencies --   1544.2028              1739.6880              1845.1537
 Red. masses --      1.0884                 9.1586                 9.4875
 Frc consts  --      1.5292                16.3314                19.0312
 IR Inten    --      3.8984               223.0956               257.7325

                     85                     86                     87
                      A                      A                      A
 Frequencies --   3011.3316              3035.7271              3048.9719
 Red. masses --      1.0715                 1.0645                 1.0728
 Frc consts  --      5.7248                 5.7799                 5.8760
 IR Inten    --     54.1604                 9.2024                46.9856

                     88                     89                     90
                      A                      A                      A
 Frequencies --   3056.9724              3064.1035              3064.8720
 Red. masses --      1.0368                 1.0359                 1.0363
 Frc consts  --      5.7088                 5.7305                 5.7356
 IR Inten    --     19.1781                34.2105                 1.9428

                     91                     92                     93
                      A                      A                      A
 Frequencies --   3068.3678              3073.0703              3098.4472
 Red. masses --      1.0903                 1.0789                 1.0854
 Frc consts  --      6.0479                 6.0029                 6.1393
 IR Inten    --     25.4603                61.6290                 0.4130

                     94                     95                     96
                      A                      A                      A
 Frequencies --   3111.6646              3118.3608              3128.0605
 Red. masses --      1.0931                 1.1018                 1.1023
 Frc consts  --      6.2360                 6.3123                 6.3550
 IR Inten    --     28.3612                60.3611                 5.8571

                     97                     98                     99
                      A                      A                      A
 Frequencies --   3128.8180              3137.4704              3137.8568
 Red. masses --      1.1015                 1.1026                 1.0923
 Frc consts  --      6.3534                 6.3947                 6.3367
 IR Inten    --     44.5997                20.0415                 8.4518

                    100                    101                    102
                      A                      A                      A
 Frequencies --   3142.6323              3155.3223              3165.1713
 Red. masses --      1.1008                 1.0956                 1.0940
 Frc consts  --      6.4053                 6.4265                 6.4576
 IR Inten    --     16.4869                13.1920                 5.1532

                    103                    104                    105
                      A                      A                      A
 Frequencies --   3226.2198              3685.7868              3720.1382
 Red. masses --      1.0865                 1.0641                 1.0653
 Frc consts  --      6.6632                 8.5169                 8.6862
 IR Inten    --      9.6940                54.0995                13.1028

 - Thermochemistry -
 -------------------
 Temperature   298.150 Kelvin.  Pressure   1.00000 Atm.
 Atom     1 has atomic number  6 and mass  12.00000

 Molecular mass:   231.14706 amu.
 Principal axes and moments of inertia in atomic units:
                           1         2         3
     Eigenvalues --  2295.868715357.887216171.44000
           X            0.99989   0.00119   0.01486
           Y           -0.00179   0.99920   0.04008
           Z           -0.01480  -0.04010   0.99909
 This molecule is an asymmetric top.
 Rotational symmetry number  1.
 Warning -- assumption of classical behavior for rotation
           may cause significant error
 Rotational temperatures (Kelvin)      0.03773     0.01617     0.01403
 Rotational constants (GHZ):           0.78608     0.33684     0.29243
 Zero-point vibrational energy     852121.5 (Joules/Mol)
                                  203.66192 (Kcal/Mol)
 Warning -- explicit consideration of  28 degrees of freedom as
           vibrations may cause significant error
 Vibrational temperatures:     48.84    50.63    65.44    72.89   102.13
          (Kelvin)            109.04   130.05   171.35   202.44   231.80
                              261.72   292.01   309.79   340.86   352.03
                              384.36   396.15   410.41   442.63   497.85
                              557.51   594.83   612.51   681.67   710.92
                              781.49   823.14   836.21   906.45   945.29
                             1002.55  1068.15  1120.37  1154.61  1206.91
                             1248.08  1259.34  1268.29  1297.53  1366.93
                             1404.29  1435.48  1494.78  1509.78  1541.46
                             1557.07  1580.58  1601.06  1609.48  1617.97
                             1677.09  1718.35  1739.62  1762.35  1798.67
                             1841.67  1886.59  1896.08  1910.99  1949.80
                             1972.31  1976.39  2005.78  2010.57  2018.33
                             2028.51  2044.20  2064.87  2079.58  2080.75
                             2083.60  2114.22  2170.63  2175.63  2190.29
                             2193.21  2196.17  2201.02  2204.34  2213.00
                             2216.90  2221.76  2503.02  2654.76  4332.63
                             4367.73  4386.79  4398.30  4408.56  4409.67
                             4414.70  4421.46  4457.97  4476.99  4486.63
                             4500.58  4501.67  4514.12  4514.68  4521.55
                             4539.80  4553.98  4641.81  5303.03  5352.45

 Zero-point correction=                           0.324556 (Hartree/Particle)
 Thermal correction to Energy=                    0.343386
 Thermal correction to Enthalpy=                  0.344330
 Thermal correction to Gibbs Free Energy=         0.276369
 Sum of electronic and zero-point Energies=           -787.221006
 Sum of electronic and thermal Energies=              -787.202176
 Sum of electronic and thermal Enthalpies=            -787.201232
 Sum of electronic and thermal Free Energies=         -787.269193

                     E (Thermal)             CV                S
                      KCal/Mol        Cal/Mol-Kelvin    Cal/Mol-Kelvin
 Total                  215.478             67.905            143.035
 Electronic               0.000              0.000              0.000
 Translational            0.889              2.981             42.216
 Rotational               0.889              2.981             32.695
 Vibrational            213.700             61.943             68.124
 Vibration     1          0.594              1.983              5.585
 Vibration     2          0.594              1.982              5.513
 Vibration     3          0.595              1.979              5.005
 Vibration     4          0.595              1.977              4.791
 Vibration     5          0.598              1.968              4.126
 Vibration     6          0.599              1.965              3.997
 Vibration     7          0.602              1.956              3.652
 Vibration     8          0.609              1.933              3.115
 Vibration     9          0.615              1.913              2.794
 Vibration    10          0.622              1.890              2.537
 Vibration    11          0.630              1.864              2.309
 Vibration    12          0.639              1.836              2.106
 Vibration    13          0.645              1.818              1.998
 Vibration    14          0.656              1.784              1.826
 Vibration    15          0.660              1.772              1.769
 Vibration    16          0.672              1.733              1.615
 Vibration    17          0.677              1.719              1.562
 Vibration    18          0.683              1.701              1.502
 Vibration    19          0.698              1.659              1.375
 Vibration    20          0.724              1.583              1.184
 Vibration    21          0.756              1.497              1.010
 Vibration    22          0.777              1.441              0.915
 Vibration    23          0.788              1.414              0.873
 Vibration    24          0.831              1.308              0.727
 Vibration    25          0.850              1.263              0.673
 Vibration    26          0.898              1.155              0.559
 Vibration    27          0.928              1.092              0.500
 Vibration    28          0.938              1.072              0.483

 Optimization completed.
    -- Stationary point found.
 Normal termination of Gaussian 16 at Thu Dec 10 22:40:58 2020.

 ----------------------------------------------------------------------
 # B3LYP/6-311++G(d,p) empiricaldispersion=gd3bj scf=xqc pop=npa geom=c
 heck
 ----------------------------------------------------------------------

 ---------------------------------------
 CID_103497691_JID_6354_Energie_neutraal
 ---------------------------------------
 Structure from the checkpoint file:  "JID_6354.chk"
 Charge =  0 Multiplicity = 1

 SCF Done:  E(RB3LYP) =  -787.793750165     A.U. after   15 cycles
 Normal termination of Gaussian 16 at Thu Dec 10 22:47:52 2020.

 ----------------------------------------------------------------------
 # B3LYP/6-311++G(d,p) empiricaldispersion=gd3bj scf=xqc pop=npa geom=c
 heck
 ----------------------------------------------------------------------

 -------------------------------------
 CID_103497691_JID_6354_Energie_kation
 -------------------------------------
 Structure from the checkpoint file:  "JID_6354.chk"
 Charge =  1 Multiplicity = 2

 SCF Done:  E(UB3LYP) =  -787.473364634     A.U. after   27 cycles
 Normal termination of Gaussian 16 at Thu Dec 10 23:04:20 2020.
 Gaussian 16:  ES64L-G16RevA.03 25-Dec-2016

 ----------------------------------------------------------------------
 # B3LYP/6-311++G(d,p) empiricaldispersion=gd3bj scf=xqc pop=npa geom=c
 heck
 ----------------------------------------------------------------------

 ------------------------------------
 CID_103497691_JID_6354_Energie_anion
 ------------------------------------
 Structure from the checkpoint file:  "JID_6354.chk"
 Charge = -1 Multiplicity = 2

                         Standard orientation:
 ---------------------------------------------------------------------
 Center     Atomic      Atomic             Coordinates (Angstroms)
 Number     Number       Type             X           Y           Z
 ---------------------------------------------------------------------
      1          6           0       -3.489178   -1.842101   -0.602777
      2          6           0       -3.817594   -0.394393   -0.231965
      3          6           0       -2.768935    0.256760    0.681054
      4          7           0       -1.403827    0.216368    0.134388
      5          6           0       -1.145972    1.078536   -1.017014
      6          6           0       -1.139994    2.562756   -0.634463
      7          8           0       -0.202110    2.839044    0.391509
      8          6           0       -0.564100   -0.773655    0.612410
      9          8           0       -0.919658   -1.504726    1.533681
     10          6           0        0.842435   -0.990003    0.023917
     11          6           0        0.845728   -1.497754   -1.431580
     12          6           0        1.804296    0.202813    0.289162
     13          6           0        1.935822    0.489029    1.792832
     14          6           0        3.150551   -0.096903   -0.338247
     15          8           0        3.621284    0.469964   -1.299439
     16          8           0        3.792700   -1.122113    0.281773
     17          1           0       -2.573120   -1.896341   -1.201552
     18          1           0       -4.297602   -2.287871   -1.192046
     19          1           0       -3.330872   -2.452218    0.291577
     20          1           0       -3.950177    0.202397   -1.144482
     21          1           0       -4.778366   -0.349922    0.297114
     22          1           0       -3.041041    1.300801    0.872241
     23          1           0       -2.731086   -0.264625    1.636971
     24          1           0       -0.181374    0.828098   -1.444693
     25          1           0       -1.901289    0.900169   -1.794105
     26          1           0       -0.835897    3.153121   -1.503993
     27          1           0       -2.149758    2.895858   -0.349486
     28          1           0       -0.406367    2.231289    1.121526
     29          1           0        1.204879   -1.816156    0.640692
     30          1           0        0.740353   -0.705156   -2.176588
     31          1           0        1.792136   -2.007512   -1.637329
     32          1           0        0.040255   -2.223226   -1.585560
     33          1           0        1.452318    1.107190   -0.208051
     34          1           0        2.345127   -0.375062    2.322795
     35          1           0        2.586531    1.350846    1.969833
     36          1           0        0.955314    0.709996    2.226869
     37          1           0        4.630744   -1.244108   -0.202609
 ---------------------------------------------------------------------

 SCF Done:  E(UB3LYP) =  -787.783919146     A.U. after   33 cycles
 SCF Done:  E(UB3LYP) =  -787.783919146     a.u. after    1 cycles

 The electronic state is 2-A.
 Alpha  occ. eigenvalues --  -19.08037 -19.04132 -19.02819 -18.99921 -14.25893
 Alpha  occ. eigenvalues --  -10.21711 -10.18584 -10.13242 -10.12117 -10.10889
 Alpha  occ. eigenvalues --  -10.10617 -10.10501 -10.08339 -10.08199 -10.07798
 Alpha  occ. eigenvalues --  -10.06593  -1.02139  -0.95400  -0.94428  -0.93221
 Alpha  occ. eigenvalues --   -0.84831  -0.74302  -0.69422  -0.66503  -0.66077
 Alpha  occ. eigenvalues --   -0.60639  -0.58091  -0.56524  -0.55125  -0.51262
 Alpha  occ. eigenvalues --   -0.50431  -0.45873  -0.42902  -0.41666  -0.41250
 Alpha  occ. eigenvalues --   -0.40039  -0.39256  -0.37627  -0.36993  -0.35993
 Alpha  occ. eigenvalues --   -0.35416  -0.34820  -0.34176  -0.33907  -0.32789
 Alpha  occ. eigenvalues --   -0.32183  -0.31161  -0.30633  -0.29923  -0.29110
 Alpha  occ. eigenvalues --   -0.28714  -0.28326  -0.26733  -0.26340  -0.25541
 Alpha  occ. eigenvalues --   -0.25199  -0.24653  -0.24554  -0.23807  -0.19977
 Alpha  occ. eigenvalues --   -0.19634  -0.16667  -0.15831   0.03938
 Alpha virt. eigenvalues --    0.05288   0.06666   0.07030   0.07754   0.07828
 Alpha virt. eigenvalues --    0.08593   0.09437   0.09610   0.10082   0.10374
 Alpha virt. eigenvalues --    0.10443   0.11577   0.11812   0.12427   0.12853

  Beta  occ. eigenvalues --  -19.07986 -19.04121 -19.02803 -18.99917 -14.25895
  Beta  occ. eigenvalues --  -10.21708 -10.18583 -10.13211 -10.12093 -10.10872
  Beta  occ. eigenvalues --  -10.10609 -10.10497 -10.08330 -10.08181 -10.07766
  Beta  occ. eigenvalues --  -10.06575  -1.02074  -0.95392  -0.94406  -0.93165
  Beta  occ. eigenvalues --   -0.84821  -0.74284  -0.69379  -0.66474  -0.66038
  Beta  occ. eigenvalues --   -0.60602  -0.58040  -0.56475  -0.55068  -0.51186
  Beta  occ. eigenvalues --   -0.50371  -0.45831  -0.42863  -0.41635  -0.41216
  Beta  occ. eigenvalues --   -0.40010  -0.39220  -0.37588  -0.36955  -0.35955
  Beta  occ. eigenvalues --   -0.35372  -0.34794  -0.34142  -0.33883  -0.32755
  Beta  occ. eigenvalues --   -0.32158  -0.31135  -0.30608  -0.29895  -0.29090
  Beta  occ. eigenvalues --   -0.28695  -0.28309  -0.26702  -0.26303  -0.25511
  Beta  occ. eigenvalues --   -0.25177  -0.24624  -0.24522  -0.23768  -0.19948
  Beta  occ. eigenvalues --   -0.19582  -0.16655  -0.15813
  Beta virt. eigenvalues --    0.06220   0.06750   0.07087   0.07526   0.07971
  Beta virt. eigenvalues --    0.08252   0.08941   0.09787   0.09903   0.10144
  Beta virt. eigenvalues --    0.10522   0.10850   0.11727   0.12028   0.12595

 Mulliken charges and spin densities:
               1          2
     1  C   -0.310070  -0.132015
     2  C    0.617715  -0.946760
     3  C    0.039736  -0.063223
     4  N    0.042928   0.040462
     5  C   -0.655487   0.571178
     6  C    0.885541  -1.487662
     7  O   -0.159528   0.015830
     8  C   -0.831579   0.063344
     9  O   -0.216070   0.007181
    10  C    0.638694  -0.121460
    11  C    0.171166  -0.789230
    12  C   -0.215149   0.188462
    13  C   -0.214234  -0.490908
    14  C    0.154653  -0.412792
    15  O   -0.235166   0.034033
    16  O   -0.153513   0.046452
    17  H    0.153055  -0.016081
    18  H   -0.299387   0.459875
    19  H    0.164857  -0.013754
    20  H   -0.098879   0.251043
    21  H   -0.265208   0.421675
    22  H   -0.200884   0.349593
    23  H    0.142383   0.067735
    24  H    0.536994  -0.401962
    25  H   -0.697626   0.886854
    26  H   -0.171800   0.361290
    27  H   -0.212695   0.375285
    28  H    0.129006   0.095329
    29  H    0.279252   0.019069
    30  H   -0.013029   0.177931
    31  H   -0.169287   0.357871
    32  H   -0.011029   0.167662
    33  H    0.220134   0.065005
    34  H    0.096862   0.075643
    35  H    0.102808   0.073172
    36  H    0.116534   0.037753
    37  H   -0.361698   0.666121
 Sum of Mulliken charges =  -1.00000   1.00000

 Dipole moment (field-independent basis, Debye):
    X=              0.5399    Y=             -0.0557    Z=              2.6728  Tot=              2.7274
 Quadrupole moment (field-independent basis, Debye-Ang):
   XX=           -192.9912   YY=           -146.4009   ZZ=           -135.7136
   XY=              8.9262   XZ=             -1.0650   YZ=              4.9900

 Summary of Natural Population Analysis:

                                       Natural Population
                Natural  -----------------------------------------------
    Atom  No    Charge         Core      Valence    Rydberg      Total
 -----------------------------------------------------------------------
      C    1   -0.28854      0.99966     2.28287    0.00601     3.28854
      C    2   -0.19509      0.99963     2.18749    0.00797     3.19509
      C    3   -0.09059      0.99959     2.07883    0.01217     3.09059
      N    4   -0.26976      0.99964     2.75680    0.01331     3.76976
      C    5   -0.10126      0.99959     2.09063    0.01105     3.10126
      C    6   -0.01300      0.99960     2.00125    0.01215     3.01300
      O    7   -0.36633      0.99990     3.35987    0.00657     4.36633
      C    8    0.35555      0.99959     1.62084    0.02402     2.64445
      O    9   -0.32581      0.99988     3.32081    0.00512     4.32581
      C   10   -0.14793      0.99954     2.13672    0.01167     3.14793
      C   11   -0.28643      0.99964     2.28085    0.00593     3.28643
      C   12   -0.15854      0.99952     2.14731    0.01171     3.15854
      C   13   -0.28120      0.99965     2.27619    0.00537     3.28120
      C   14    0.41250      0.99967     1.56108    0.02675     2.58750
      O   15   -0.30246      0.99987     3.29643    0.00616     4.30246
      O   16   -0.34922      0.99988     3.34198    0.00737     4.34922
      H   17    0.09607      0.00000     0.40279    0.00113     0.40393
      H   18    0.09933      0.00000     0.39983    0.00083     0.40067
      H   19    0.10211      0.00000     0.39703    0.00086     0.39789
      H   20    0.09689      0.00000     0.40078    0.00233     0.40311
      H   21    0.09910      0.00000     0.39973    0.00117     0.40090
      H   22    0.09618      0.00000     0.40237    0.00145     0.40382
      H   23    0.11347      0.00000     0.38522    0.00132     0.38653
      H   24    0.10371      0.00000     0.39420    0.00209     0.39629
      H   25    0.10306      0.00000     0.39483    0.00211     0.39694
      H   26    0.09101      0.00000     0.40787    0.00112     0.40899
      H   27    0.07992      0.00000     0.41832    0.00176     0.42008
      H   28    0.22815      0.00000     0.26860    0.00325     0.27185
      H   29    0.11711      0.00000     0.38106    0.00183     0.38289
      H   30    0.09981      0.00000     0.39913    0.00106     0.40019
      H   31    0.10651      0.00000     0.39250    0.00099     0.39349
      H   32    0.10472      0.00000     0.39427    0.00101     0.39528
      H   33    0.11813      0.00000     0.37919    0.00268     0.38187
      H   34    0.10687      0.00000     0.39205    0.00108     0.39313
      H   35    0.10272      0.00000     0.39652    0.00076     0.39728
      H   36    0.09918      0.00000     0.39978    0.00104     0.40082
      H   37    0.24405      0.00000     0.23994    0.01601     0.25595
 =======================================================================
   * Total *    0.00000     15.99485    46.78594    0.21921    63.00000

 Normal termination of Gaussian 16 at Thu Dec 10 23:23:27 2020.
