 Gaussian 16, Revision A.03,

 -----------------------------------------------------------
 # opt freq B3LYP/6-31G(d) empiricaldispersion=gd3bj scf=xqc
 -----------------------------------------------------------

 ------------------------------
 CID_11735927_JID_5140_neutraal
 ------------------------------
 Symbolic Z-matrix:
 Charge =  0 Multiplicity = 1

 SCF Done:  E(RB3LYP) =  -692.648007169     A.U. after   14 cycles
 SCF Done:  E(RB3LYP) =  -692.651217763     A.U. after   12 cycles
 SCF Done:  E(RB3LYP) =  -692.651416918     A.U. after   13 cycles
 SCF Done:  E(RB3LYP) =  -692.651896164     A.U. after   12 cycles
 SCF Done:  E(RB3LYP) =  -692.652374994     A.U. after   11 cycles
 SCF Done:  E(RB3LYP) =  -692.652598728     A.U. after   12 cycles
 SCF Done:  E(RB3LYP) =  -692.652642342     A.U. after   11 cycles
 SCF Done:  E(RB3LYP) =  -692.652657258     A.U. after   10 cycles
 SCF Done:  E(RB3LYP) =  -692.652660818     A.U. after    9 cycles
 SCF Done:  E(RB3LYP) =  -692.652661722     A.U. after    8 cycles
 SCF Done:  E(RB3LYP) =  -692.652662200     A.U. after    8 cycles
 SCF Done:  E(RB3LYP) =  -692.652662337     A.U. after    8 cycles
 SCF Done:  E(RB3LYP) =  -692.652662373     A.U. after    7 cycles
 SCF Done:  E(RB3LYP) =  -692.652662387     A.U. after    6 cycles
 Optimization completed.
    -- Stationary point found.
 Normal termination of Gaussian 16 at Thu Dec 10 14:47:21 2020.

 --------------------------------------------------------------------
 #N Geom=AllCheck Guess=TCheck SCRF=Check GenChk RB3LYP/6-31G(d) Freq
 --------------------------------------------------------------------

 Structure from the checkpoint file:  "JID_5140.chk"
 ------------------------------
 CID_11735927_JID_5140_neutraal
 ------------------------------
 Charge =  0 Multiplicity = 1

 SCF Done:  E(RB3LYP) =  -692.652662387     A.U. after    1 cycles

  Exact polarizability: 174.359  -0.541 108.638   0.133 -16.341 112.926
 Approx polarizability: 230.384   7.533 163.599   7.495 -36.035 189.984

                      1                      2                      3
                      A                      A                      A
 Frequencies --     20.5578                37.7884                40.6319
 Red. masses --      3.5226                 3.6081                 8.4368
 Frc consts  --      0.0009                 0.0030                 0.0082
 IR Inten    --      0.6314                 0.1892                 1.3600

                      4                      5                      6
                      A                      A                      A
 Frequencies --     64.9722                90.5567               124.4196
 Red. masses --      4.9161                 3.3007                 4.6226
 Frc consts  --      0.0122                 0.0159                 0.0422
 IR Inten    --      0.1224                 0.7474                 0.3954

                      7                      8                      9
                      A                      A                      A
 Frequencies --    161.4968               208.0119               242.0847
 Red. masses --      4.0891                 3.0670                 1.1544
 Frc consts  --      0.0628                 0.0782                 0.0399
 IR Inten    --      0.2386                 0.2554                 0.0718

                     10                     11                     12
                      A                      A                      A
 Frequencies --    253.9420               258.8247               283.5162
 Red. masses --      1.0471                 2.8982                 1.0997
 Frc consts  --      0.0398                 0.1144                 0.0521
 IR Inten    --      0.0262                 0.5105                 0.5538

                     13                     14                     15
                      A                      A                      A
 Frequencies --    300.6931               349.5690               359.0667
 Red. masses --      3.8549                 3.3912                 2.8149
 Frc consts  --      0.2054                 0.2442                 0.2138
 IR Inten    --      0.9356                 1.8287                 1.3956

                     16                     17                     18
                      A                      A                      A
 Frequencies --    398.3986               414.6048               430.4984
 Red. masses --      3.5003                 4.5813                 3.1405
 Frc consts  --      0.3273                 0.4640                 0.3429
 IR Inten    --      0.2260                 0.4227                 0.1054

                     19                     20                     21
                      A                      A                      A
 Frequencies --    470.9887               502.0879               560.3232
 Red. masses --      4.8071                 3.0099                 3.4795
 Frc consts  --      0.6283                 0.4471                 0.6436
 IR Inten    --      7.1004                 1.5217                27.5150

                     22                     23                     24
                      A                      A                      A
 Frequencies --    592.1355               609.2399               643.0766
 Red. masses --      2.1174                 2.7262                 1.8863
 Frc consts  --      0.4374                 0.5962                 0.4596
 IR Inten    --     11.9999                54.2145                66.7392

                     25                     26                     27
                      A                      A                      A
 Frequencies --    661.9647               708.2991               749.7269
 Red. masses --      5.3703                 2.9090                 3.7648
 Frc consts  --      1.3865                 0.8599                 1.2468
 IR Inten    --     10.7751                16.6464                 4.5679

                     28                     29                     30
                      A                      A                      A
 Frequencies --    787.3148               819.4139               843.1226
 Red. masses --      3.8739                 3.6397                 2.1466
 Frc consts  --      1.4148                 1.4399                 0.8991
 IR Inten    --      7.1955                19.5823                 7.1279

                     31                     32                     33
                      A                      A                      A
 Frequencies --    847.1367               866.3529               873.0292
 Red. masses --      1.4345                 3.3195                 2.0000
 Frc consts  --      0.6066                 1.4679                 0.8981
 IR Inten    --      2.1185                 3.9150                23.4210

                     34                     35                     36
                      A                      A                      A
 Frequencies --    936.9365               950.3657               954.6274
 Red. masses --      1.3550                 1.2639                 1.6109
 Frc consts  --      0.7008                 0.6726                 0.8649
 IR Inten    --      0.1643                 0.4382                20.1948

                     37                     38                     39
                      A                      A                      A
 Frequencies --    965.8892               974.9662              1005.4773
 Red. masses --      1.5015                 1.7676                 1.9480
 Frc consts  --      0.8254                 0.9900                 1.1604
 IR Inten    --     15.0189                30.0337                19.5522

                     40                     41                     42
                      A                      A                      A
 Frequencies --   1040.4400              1070.0521              1107.6459
 Red. masses --      2.7185                 1.6809                 2.1646
 Frc consts  --      1.7338                 1.1340                 1.5647
 IR Inten    --     13.1511                66.9691                 7.9296

                     43                     44                     45
                      A                      A                      A
 Frequencies --   1143.7271              1158.1757              1168.9970
 Red. masses --      1.4242                 2.0987                 1.9054
 Frc consts  --      1.0976                 1.6586                 1.5341
 IR Inten    --      1.0286                 9.8509                95.4812

                     46                     47                     48
                      A                      A                      A
 Frequencies --   1203.6513              1205.3751              1213.9594
 Red. masses --      1.3113                 1.9969                 1.9166
 Frc consts  --      1.1193                 1.7095                 1.6641
 IR Inten    --     41.6400               138.9146                 7.0525

                     49                     50                     51
                      A                      A                      A
 Frequencies --   1228.8353              1259.1535              1306.5473
 Red. masses --      2.1202                 3.5324                 2.1962
 Frc consts  --      1.8863                 3.2998                 2.2089
 IR Inten    --     40.2676               211.7034                 1.1523

                     52                     53                     54
                      A                      A                      A
 Frequencies --   1332.8043              1349.7329              1368.5333
 Red. masses --      1.8638                 1.3553                 2.3906
 Frc consts  --      1.9507                 1.4547                 2.6379
 IR Inten    --      1.7259                 5.5742                24.3699

                     55                     56                     57
                      A                      A                      A
 Frequencies --   1380.5519              1383.4466              1413.1783
 Red. masses --      1.4209                 1.7388                 1.2556
 Frc consts  --      1.5956                 1.9608                 1.4774
 IR Inten    --      0.4286                 7.2751                 2.0409

                     58                     59                     60
                      A                      A                      A
 Frequencies --   1428.5976              1440.3067              1442.6938
 Red. masses --      1.3304                 1.2391                 1.2468
 Frc consts  --      1.5997                 1.5145                 1.5290
 IR Inten    --     15.9350                 2.7038                17.1035

                     61                     62                     63
                      A                      A                      A
 Frequencies --   1466.6989              1513.6965              1519.7986
 Red. masses --      2.5661                 1.0481                 1.0504
 Frc consts  --      3.2524                 1.4149                 1.4294
 IR Inten    --      2.2306                 0.8051                 1.6965

                     64                     65                     66
                      A                      A                      A
 Frequencies --   1523.9319              1525.7736              1528.5908
 Red. masses --      1.0535                 1.0508                 1.0534
 Frc consts  --      1.4415                 1.4413                 1.4502
 IR Inten    --      2.2231                10.2017                10.3826

                     67                     68                     69
                      A                      A                      A
 Frequencies --   1540.5215              1559.3673              1631.8678
 Red. masses --      1.0643                 2.3796                 6.5268
 Frc consts  --      1.4882                 3.4092                10.2405
 IR Inten    --      1.6257               108.4513                 2.8364

                     70                     71                     72
                      A                      A                      A
 Frequencies --   1667.8643              1848.8100              3054.5427
 Red. masses --      5.8322                 9.6028                 1.0349
 Frc consts  --      9.5589                19.3390                 5.6890
 IR Inten    --     21.0932               283.2349                15.2740

                     73                     74                     75
                      A                      A                      A
 Frequencies --   3059.4783              3062.9240              3079.6776
 Red. masses --      1.0354                 1.0362                 1.0871
 Frc consts  --      5.7103                 5.7273                 6.0745
 IR Inten    --      7.9594                29.0073                26.0820

                     76                     77                     78
                      A                      A                      A
 Frequencies --   3095.9166              3122.6104              3129.3104
 Red. masses --      1.0853                 1.1020                 1.1018
 Frc consts  --      6.1289                 6.3307                 6.3569
 IR Inten    --      6.3746                 1.1765                65.6157

                     79                     80                     81
                      A                      A                      A
 Frequencies --   3130.5214              3134.0023              3138.0234
 Red. masses --      1.1028                 1.1037                 1.1024
 Frc consts  --      6.3676                 6.3873                 6.3957
 IR Inten    --     26.5505                15.3418                48.9414

                     82                     83                     84
                      A                      A                      A
 Frequencies --   3153.0497              3185.9342              3205.6379
 Red. masses --      1.1016                 1.0890                 1.0875
 Frc consts  --      6.4525                 6.5128                 6.5843
 IR Inten    --     16.1603                13.6818                 6.3385

                     85                     86                     87
                      A                      A                      A
 Frequencies --   3220.0279              3222.1007              3683.4419
 Red. masses --      1.0930                 1.0943                 1.0640
 Frc consts  --      6.6773                 6.6934                 8.5055
 IR Inten    --     13.8409                 4.9853                49.7124

 - Thermochemistry -
 -------------------
 Temperature   298.150 Kelvin.  Pressure   1.00000 Atm.
 Atom     1 has atomic number  6 and mass  12.00000

 Molecular mass:   208.10994 amu.
 Principal axes and moments of inertia in atomic units:
                           1         2         3
     Eigenvalues --  1459.023406333.322236497.41326
           X            0.99961  -0.02412  -0.01398
           Y            0.02167   0.98769  -0.15493
           Z            0.01755   0.15457   0.98783
 This molecule is an asymmetric top.
 Rotational symmetry number  1.
 Warning -- assumption of classical behavior for rotation
           may cause significant error
 Rotational temperatures (Kelvin)      0.05936     0.01368     0.01333
 Rotational constants (GHZ):           1.23695     0.28496     0.27776
 Zero-point vibrational energy     687928.3 (Joules/Mol)
                                  164.41881 (Kcal/Mol)
 Warning -- explicit consideration of  23 degrees of freedom as
           vibrations may cause significant error
 Vibrational temperatures:     29.58    54.37    58.46    93.48   130.29
          (Kelvin)            179.01   232.36   299.28   348.31   365.37
                              372.39   407.92   432.63   502.95   516.62
                              573.21   596.52   619.39   677.65   722.39
                              806.18   851.95   876.56   925.24   952.42
                             1019.08  1078.69  1132.77  1178.95  1213.07
                             1218.84  1246.49  1256.09  1348.04  1367.36
                             1373.50  1389.70  1402.76  1446.66  1496.96
                             1539.57  1593.66  1645.57  1666.36  1681.93
                             1731.79  1734.27  1746.62  1768.02  1811.64
                             1879.83  1917.61  1941.96  1969.01  1986.31
                             1990.47  2033.25  2055.43  2072.28  2075.71
                             2110.25  2177.87  2186.65  2192.60  2195.25
                             2199.30  2216.47  2243.58  2347.89  2399.68
                             2660.03  4394.81  4401.91  4406.86  4430.97
                             4454.33  4492.74  4502.38  4504.12  4509.13
                             4514.92  4536.54  4583.85  4612.20  4632.90
                             4635.88  5299.65

 Zero-point correction=                           0.262018 (Hartree/Particle)
 Thermal correction to Energy=                    0.277243
 Thermal correction to Enthalpy=                  0.278187
 Thermal correction to Gibbs Free Energy=         0.217898
 Sum of electronic and zero-point Energies=           -692.390644
 Sum of electronic and thermal Energies=              -692.375419
 Sum of electronic and thermal Enthalpies=            -692.374475
 Sum of electronic and thermal Free Energies=         -692.434765

                     E (Thermal)             CV                S
                      KCal/Mol        Cal/Mol-Kelvin    Cal/Mol-Kelvin
 Total                  173.973             57.135            126.890
 Electronic               0.000              0.000              0.000
 Translational            0.889              2.981             41.903
 Rotational               0.889              2.981             32.462
 Vibrational            172.195             51.174             52.525
 Vibration     1          0.593              1.986              6.580
 Vibration     2          0.594              1.982              5.372
 Vibration     3          0.594              1.981              5.228
 Vibration     4          0.597              1.971              4.300
 Vibration     5          0.602              1.956              3.648
 Vibration     6          0.610              1.929              3.031
 Vibration     7          0.622              1.890              2.532
 Vibration     8          0.641              1.828              2.061
 Vibration     9          0.658              1.776              1.788
 Vibration    10          0.665              1.756              1.703
 Vibration    11          0.668              1.748              1.670
 Vibration    12          0.682              1.704              1.512
 Vibration    13          0.693              1.672              1.413
 Vibration    14          0.727              1.576              1.168
 Vibration    15          0.734              1.557              1.126
 Vibration    16          0.765              1.474              0.969
 Vibration    17          0.778              1.439              0.910
 Vibration    18          0.792              1.404              0.857
 Vibration    19          0.828              1.314              0.735
 Vibration    20          0.857              1.245              0.653
 Vibration    21          0.916              1.117              0.523
 Vibration    22          0.950              1.049              0.463
 Vibration    23          0.968              1.012              0.434

 Optimization completed.
    -- Stationary point found.
 Normal termination of Gaussian 16 at Thu Dec 10 14:56:03 2020.

 ----------------------------------------------------------------------
 # B3LYP/6-311++G(d,p) empiricaldispersion=gd3bj scf=xqc pop=npa geom=c
 heck
 ----------------------------------------------------------------------

 --------------------------------------
 CID_11735927_JID_5140_Energie_neutraal
 --------------------------------------
 Structure from the checkpoint file:  "JID_5140.chk"
 Charge =  0 Multiplicity = 1

 SCF Done:  E(RB3LYP) =  -692.855086364     A.U. after   14 cycles
 Normal termination of Gaussian 16 at Thu Dec 10 14:59:16 2020.

 ----------------------------------------------------------------------
 # B3LYP/6-311++G(d,p) empiricaldispersion=gd3bj scf=xqc pop=npa geom=c
 heck
 ----------------------------------------------------------------------

 ------------------------------------
 CID_11735927_JID_5140_Energie_kation
 ------------------------------------
 Structure from the checkpoint file:  "JID_5140.chk"
 Charge =  1 Multiplicity = 2

 SCF Done:  E(UB3LYP) =  -692.548029127     A.U. after   23 cycles
 Normal termination of Gaussian 16 at Thu Dec 10 15:06:58 2020.
 Gaussian 16:  ES64L-G16RevA.03 25-Dec-2016

 ----------------------------------------------------------------------
 # B3LYP/6-311++G(d,p) empiricaldispersion=gd3bj scf=xqc pop=npa geom=c
 heck
 ----------------------------------------------------------------------

 -----------------------------------
 CID_11735927_JID_5140_Energie_anion
 -----------------------------------
 Structure from the checkpoint file:  "JID_5140.chk"
 Charge = -1 Multiplicity = 2

                         Standard orientation:
 ---------------------------------------------------------------------
 Center     Atomic      Atomic             Coordinates (Angstroms)
 Number     Number       Type             X           Y           Z
 ---------------------------------------------------------------------
      1          6           0       -3.815353    0.085663    1.478926
      2          6           0       -3.824372    0.277674   -0.035676
      3          6           0       -3.505255    1.714747   -0.440610
      4          8           0       -2.969591   -0.679953   -0.710434
      5          6           0       -1.617121   -0.627455   -0.457407
      6          6           0       -0.777876    0.134416   -1.277193
      7          6           0        0.597727    0.138312   -1.061716
      8          6           0        1.164344   -0.620662   -0.029177
      9          6           0        0.316894   -1.386075    0.777732
     10          6           0       -1.060916   -1.397833    0.566877
     11          6           0        2.669771   -0.645367    0.206809
     12          6           0        3.439929   -1.224121   -0.992257
     13          6           0        3.152434    0.743093    0.599093
     14          8           0        3.325870    1.128630    1.732776
     15          8           0        3.356129    1.548996   -0.477270
     16          1           0       -2.839902    0.340871    1.905597
     17          1           0       -4.048080   -0.951867    1.738297
     18          1           0       -4.567546    0.734053    1.941699
     19          1           0       -4.813518    0.011213   -0.421597
     20          1           0       -2.519278    2.020086   -0.075391
     21          1           0       -3.521533    1.822384   -1.529676
     22          1           0       -4.250124    2.396349   -0.015267
     23          1           0       -1.214625    0.710998   -2.085692
     24          1           0        1.236679    0.743156   -1.697232
     25          1           0        0.740074   -1.985790    1.579460
     26          1           0       -1.712693   -2.007762    1.183101
     27          1           0        2.860348   -1.261370    1.090098
     28          1           0        3.272889   -0.629007   -1.893221
     29          1           0        4.516910   -1.247967   -0.793961
     30          1           0        3.099488   -2.245755   -1.186438
     31          1           0        3.620393    2.414667   -0.112761
 ---------------------------------------------------------------------

 SCF Done:  E(UB3LYP) =  -692.842786443     A.U. after   33 cycles
 SCF Done:  E(UB3LYP) =  -692.842786444     a.u. after    1 cycles

 The electronic state is 2-A.
 Alpha  occ. eigenvalues --  -19.07282 -19.04055 -19.02088 -10.21153 -10.13831
 Alpha  occ. eigenvalues --  -10.13469 -10.10547 -10.09470 -10.08747 -10.08273
 Alpha  occ. eigenvalues --  -10.08271 -10.08189 -10.07732 -10.07000 -10.06921
 Alpha  occ. eigenvalues --   -1.01407  -0.95672  -0.92539  -0.77254  -0.71758
 Alpha  occ. eigenvalues --   -0.69155  -0.66079  -0.63389  -0.60269  -0.57636
 Alpha  occ. eigenvalues --   -0.53987  -0.52705  -0.50156  -0.47876  -0.42120
 Alpha  occ. eigenvalues --   -0.40327  -0.40035  -0.39243  -0.38990  -0.37170
 Alpha  occ. eigenvalues --   -0.35714  -0.34666  -0.33907  -0.33598  -0.32870
 Alpha  occ. eigenvalues --   -0.32185  -0.31137  -0.29932  -0.29657  -0.29060
 Alpha  occ. eigenvalues --   -0.28295  -0.26918  -0.26714  -0.26203  -0.25223
 Alpha  occ. eigenvalues --   -0.23393  -0.22907  -0.18997  -0.18347  -0.16731
 Alpha  occ. eigenvalues --   -0.14651   0.04143
 Alpha virt. eigenvalues --    0.05553   0.06670   0.07020   0.07326   0.07625
 Alpha virt. eigenvalues --    0.08052   0.08491   0.08933   0.09713   0.10336
 Alpha virt. eigenvalues --    0.10443   0.11045   0.11755   0.11865   0.12186

  Beta  occ. eigenvalues --  -19.07226 -19.04053 -19.02071 -10.21148 -10.13819
  Beta  occ. eigenvalues --  -10.13449 -10.10535 -10.09463 -10.08742 -10.08262
  Beta  occ. eigenvalues --  -10.08246 -10.08182 -10.07701 -10.06971 -10.06895
  Beta  occ. eigenvalues --   -1.01334  -0.95659  -0.92476  -0.77223  -0.71718
  Beta  occ. eigenvalues --   -0.69122  -0.66046  -0.63346  -0.60218  -0.57566
  Beta  occ. eigenvalues --   -0.53924  -0.52670  -0.50084  -0.47831  -0.42080
  Beta  occ. eigenvalues --   -0.40293  -0.40008  -0.39183  -0.38954  -0.37132
  Beta  occ. eigenvalues --   -0.35680  -0.34628  -0.33872  -0.33571  -0.32837
  Beta  occ. eigenvalues --   -0.32142  -0.31103  -0.29899  -0.29610  -0.29013
  Beta  occ. eigenvalues --   -0.28268  -0.26889  -0.26665  -0.26167  -0.25198
  Beta  occ. eigenvalues --   -0.23348  -0.22861  -0.18937  -0.18336  -0.16669
  Beta  occ. eigenvalues --   -0.14573
  Beta virt. eigenvalues --    0.06203   0.06554   0.06960   0.07399   0.07628
  Beta virt. eigenvalues --    0.08308   0.08588   0.08844   0.09236   0.10088
  Beta virt. eigenvalues --    0.10595   0.10660   0.11293   0.11931   0.12160

 Mulliken charges and spin densities:
               1          2
     1  C    0.620705  -1.215556
     2  C   -1.184945   1.305822
     3  C    0.788760  -1.370453
     4  O   -0.104079   0.004598
     5  C    0.406831  -0.829420
     6  C    0.053152  -0.074290
     7  C   -0.543929   0.223178
     8  C    1.486365  -0.911056
     9  C   -0.144914  -0.058857
    10  C   -0.421867   0.398802
    11  C   -0.777405   0.946854
    12  C    0.558296  -1.321317
    13  C    0.281934  -0.551367
    14  O   -0.291927   0.025759
    15  O   -0.216393   0.074409
    16  H    0.112714   0.049723
    17  H   -0.050294   0.200699
    18  H   -0.374983   0.514696
    19  H   -0.237696   0.429804
    20  H   -0.011477   0.174829
    21  H    0.000517   0.150392
    22  H   -0.319285   0.462635
    23  H    0.003021   0.162040
    24  H   -0.064305   0.283277
    25  H   -0.086012   0.239902
    26  H    0.098943   0.071449
    27  H    0.060166   0.184069
    28  H    0.056789   0.134244
    29  H   -0.303034   0.465535
    30  H   -0.045488   0.176464
    31  H   -0.350158   0.653135
 Sum of Mulliken charges =  -1.00000   1.00000

 Dipole moment (field-independent basis, Debye):
    X=             -0.6456    Y=             -4.2923    Z=             -0.9110  Tot=              4.4351
 Quadrupole moment (field-independent basis, Debye-Ang):
   XX=           -190.1115   YY=           -131.0544   ZZ=           -124.1091
   XY=             -2.0121   XZ=              4.4116   YZ=             -3.4201

 Summary of Natural Population Analysis:

                                       Natural Population
                Natural  -----------------------------------------------
    Atom  No    Charge         Core      Valence    Rydberg      Total
 -----------------------------------------------------------------------
      C    1   -0.30262      0.99964     2.29691    0.00606     3.30262
      C    2    0.06840      0.99955     1.91843    0.01362     2.93160
      C    3   -0.30244      0.99964     2.29704    0.00576     3.30244
      O    4   -0.29926      0.99986     3.28976    0.00964     4.29926
      C    5    0.15349      0.99936     1.83340    0.01375     2.84651
      C    6   -0.11540      0.99951     2.10669    0.00920     3.11540
      C    7   -0.09183      0.99951     2.08306    0.00926     3.09183
      C    8   -0.01928      0.99949     2.00837    0.01142     3.01928
      C    9   -0.09348      0.99951     2.08556    0.00841     3.09348
      C   10   -0.11649      0.99951     2.10841    0.00858     3.11649
      C   11   -0.15794      0.99952     2.14609    0.01233     3.15794
      C   12   -0.27998      0.99965     2.27375    0.00658     3.27998
      C   13    0.41583      0.99968     1.55829    0.02620     2.58417
      O   14   -0.30373      0.99987     3.29761    0.00626     4.30373
      O   15   -0.34858      0.99988     3.34089    0.00782     4.34858
      H   16    0.10292      0.00000     0.39591    0.00117     0.39708
      H   17    0.10124      0.00000     0.39768    0.00108     0.39876
      H   18    0.10540      0.00000     0.39330    0.00130     0.39460
      H   19    0.08850      0.00000     0.41007    0.00143     0.41150
      H   20    0.10350      0.00000     0.39527    0.00123     0.39650
      H   21    0.10184      0.00000     0.39704    0.00111     0.39816
      H   22    0.10505      0.00000     0.39376    0.00120     0.39495
      H   23    0.10558      0.00000     0.39300    0.00143     0.39442
      H   24    0.10943      0.00000     0.38917    0.00140     0.39057
      H   25    0.10060      0.00000     0.39837    0.00104     0.39940
      H   26    0.10499      0.00000     0.39366    0.00135     0.39501
      H   27    0.11036      0.00000     0.38774    0.00190     0.38964
      H   28    0.10539      0.00000     0.39327    0.00134     0.39461
      H   29    0.10208      0.00000     0.39677    0.00115     0.39792
      H   30    0.10099      0.00000     0.39814    0.00087     0.39901
      H   31    0.24545      0.00000     0.23697    0.01758     0.25455
 =======================================================================
   * Total *    0.00000     14.99418    40.81435    0.19147    56.00000

 Normal termination of Gaussian 16 at Thu Dec 10 15:18:35 2020.
