 Gaussian 16, Revision A.03,

 -----------------------------------------------------------
 # opt freq B3LYP/6-31G(d) empiricaldispersion=gd3bj scf=xqc
 -----------------------------------------------------------

 -------------------------------
 CID_129863400_JID_7037_neutraal
 -------------------------------
 Symbolic Z-matrix:
 Charge =  0 Multiplicity = 1

 SCF Done:  E(RB3LYP) =  -735.373030912     A.U. after   15 cycles
 SCF Done:  E(RB3LYP) =  -735.376293173     A.U. after   13 cycles
 SCF Done:  E(RB3LYP) =  -735.374600246     A.U. after   13 cycles
 SCF Done:  E(RB3LYP) =  -735.377172781     A.U. after   12 cycles
 SCF Done:  E(RB3LYP) =  -735.377497462     A.U. after   12 cycles
 SCF Done:  E(RB3LYP) =  -735.377618305     A.U. after   12 cycles
 SCF Done:  E(RB3LYP) =  -735.377983001     A.U. after   12 cycles
 SCF Done:  E(RB3LYP) =  -735.378062614     A.U. after   11 cycles
 SCF Done:  E(RB3LYP) =  -735.378085315     A.U. after   10 cycles
 SCF Done:  E(RB3LYP) =  -735.378105513     A.U. after   10 cycles
 SCF Done:  E(RB3LYP) =  -735.378112177     A.U. after   10 cycles
 SCF Done:  E(RB3LYP) =  -735.378115553     A.U. after    9 cycles
 SCF Done:  E(RB3LYP) =  -735.378115942     A.U. after    8 cycles
 SCF Done:  E(RB3LYP) =  -735.378115988     A.U. after    7 cycles
 SCF Done:  E(RB3LYP) =  -735.378115993     A.U. after    6 cycles
 Optimization completed.
    -- Stationary point found.
 Normal termination of Gaussian 16 at Mon Dec 14 13:24:28 2020.

 --------------------------------------------------------------------
 #N Geom=AllCheck Guess=TCheck SCRF=Check GenChk RB3LYP/6-31G(d) Freq
 --------------------------------------------------------------------

 Structure from the checkpoint file:  "JID_7037.chk"
 -------------------------------
 CID_129863400_JID_7037_neutraal
 -------------------------------
 Charge =  0 Multiplicity = 1

 SCF Done:  E(RB3LYP) =  -735.378115993     A.U. after    1 cycles

  Exact polarizability: 200.545   7.869 166.428 -14.340   9.244 120.286
 Approx polarizability: 273.581  13.717 262.112 -37.147  20.376 184.130

                      1                      2                      3
                      A                      A                      A
 Frequencies --     23.3344                30.2505                59.9408
 Red. masses --      3.4798                 3.6648                 3.2283
 Frc consts  --      0.0011                 0.0020                 0.0068
 IR Inten    --      0.1363                 0.6457                 1.9887

                      4                      5                      6
                      A                      A                      A
 Frequencies --     67.0542                75.3354               108.0631
 Red. masses --      2.9983                 3.1510                 3.1176
 Frc consts  --      0.0079                 0.0105                 0.0214
 IR Inten    --      0.0290                 0.5691                 1.4789

                      7                      8                      9
                      A                      A                      A
 Frequencies --    137.2711               160.3547               168.5954
 Red. masses --      3.1372                 1.4427                 1.4626
 Frc consts  --      0.0348                 0.0219                 0.0245
 IR Inten    --      0.8599                 0.8415                 2.8396

                     10                     11                     12
                      A                      A                      A
 Frequencies --    177.3614               199.4217               208.5793
 Red. masses --      1.1243                 1.8628                 1.7911
 Frc consts  --      0.0208                 0.0436                 0.0459
 IR Inten    --     18.5291                 0.4565                 4.2791

                     13                     14                     15
                      A                      A                      A
 Frequencies --    218.7799               230.4259               260.0796
 Red. masses --      2.1809                 2.5739                 2.8578
 Frc consts  --      0.0615                 0.0805                 0.1139
 IR Inten    --      3.9677                 5.8186                 1.3725

                     16                     17                     18
                      A                      A                      A
 Frequencies --    280.3262               282.7936               310.2855
 Red. masses --      1.5583                 2.5808                 3.5589
 Frc consts  --      0.0722                 0.1216                 0.2019
 IR Inten    --      0.6045                 0.6051                 3.9192

                     19                     20                     21
                      A                      A                      A
 Frequencies --    333.4907               339.3415               371.2919
 Red. masses --      1.2344                 2.1745                 3.3796
 Frc consts  --      0.0809                 0.1475                 0.2745
 IR Inten    --     67.9440                12.8611                 4.7747

                     22                     23                     24
                      A                      A                      A
 Frequencies --    390.8695               417.0350               440.0816
 Red. masses --      3.9237                 3.6831                 3.0796
 Frc consts  --      0.3532                 0.3774                 0.3514
 IR Inten    --      0.5720                 1.5259                 0.1585

                     25                     26                     27
                      A                      A                      A
 Frequencies --    461.7306               481.2910               541.6856
 Red. masses --      2.4838                 3.5584                 3.5834
 Frc consts  --      0.3120                 0.4856                 0.6195
 IR Inten    --      3.8855                 4.4915                 4.4058

                     28                     29                     30
                      A                      A                      A
 Frequencies --    571.7317               604.2827               608.3936
 Red. masses --      4.2196                 3.6533                 4.0910
 Frc consts  --      0.8127                 0.7860                 0.8922
 IR Inten    --      3.9840                 3.0214                 1.3848

                     31                     32                     33
                      A                      A                      A
 Frequencies --    641.5815               702.7957               735.7318
 Red. masses --      3.7638                 2.4089                 3.2381
 Frc consts  --      0.9128                 0.7010                 1.0327
 IR Inten    --      1.4254                 2.4357                 0.2673

                     34                     35                     36
                      A                      A                      A
 Frequencies --    752.6774               783.4623               827.7697
 Red. masses --      2.4992                 2.2374                 1.4899
 Frc consts  --      0.8342                 0.8091                 0.6015
 IR Inten    --      8.0052                20.2585                12.0326

                     37                     38                     39
                      A                      A                      A
 Frequencies --    832.3082               838.9398               897.6104
 Red. masses --      2.3154                 2.9193                 1.9029
 Frc consts  --      0.9450                 1.2106                 0.9033
 IR Inten    --      2.3310                 4.9034                 2.8223

                     40                     41                     42
                      A                      A                      A
 Frequencies --    922.5682               941.2740               947.8038
 Red. masses --      2.2404                 1.2666                 1.2786
 Frc consts  --      1.1235                 0.6612                 0.6767
 IR Inten    --      5.1825                 0.0163                 0.3733

                     43                     44                     45
                      A                      A                      A
 Frequencies --    958.1575               969.0408               974.6779
 Red. masses --      2.6606                 2.0612                 1.3899
 Frc consts  --      1.4391                 1.1404                 0.7779
 IR Inten    --     26.6576                11.4425                 0.0924

                     46                     47                     48
                      A                      A                      A
 Frequencies --    991.2833              1035.9276              1073.6299
 Red. masses --      1.9141                 1.8829                 1.5134
 Frc consts  --      1.1082                 1.1905                 1.0278
 IR Inten    --      2.5110                37.0736                 4.5037

                     49                     50                     51
                      A                      A                      A
 Frequencies --   1081.2824              1093.3111              1109.4963
 Red. masses --      1.7375                 1.9793                 1.5870
 Frc consts  --      1.1969                 1.3939                 1.1510
 IR Inten    --      1.8570                 1.8894                 6.2861

                     52                     53                     54
                      A                      A                      A
 Frequencies --   1129.4670              1136.1844              1150.5245
 Red. masses --      1.9041                 2.4230                 2.0970
 Frc consts  --      1.4312                 1.8429                 1.6355
 IR Inten    --     36.5668                 3.1962                27.8168

                     55                     56                     57
                      A                      A                      A
 Frequencies --   1173.7640              1216.6773              1222.7430
 Red. masses --      1.8163                 1.5256                 1.4418
 Frc consts  --      1.4744                 1.3306                 1.2701
 IR Inten    --      7.0399                23.6354                 1.4925

                     58                     59                     60
                      A                      A                      A
 Frequencies --   1243.6911              1266.9114              1280.8997
 Red. masses --      1.7225                 1.8046                 1.5756
 Frc consts  --      1.5698                 1.7066                 1.5231
 IR Inten    --     30.6022                 8.7703                10.5019

                     61                     62                     63
                      A                      A                      A
 Frequencies --   1293.6858              1306.3550              1326.2580
 Red. masses --      2.2960                 3.4363                 1.1777
 Frc consts  --      2.2640                 3.4552                 1.2206
 IR Inten    --    100.0220                10.9485                 8.1834

                     64                     65                     66
                      A                      A                      A
 Frequencies --   1344.6091              1365.5229              1387.0937
 Red. masses --      3.3055                 1.2963                 1.4864
 Frc consts  --      3.5212                 1.4241                 1.6850
 IR Inten    --     35.3770                 3.1687                 9.5491

                     67                     68                     69
                      A                      A                      A
 Frequencies --   1396.1351              1400.8648              1410.5616
 Red. masses --      1.7870                 1.4380                 1.4146
 Frc consts  --      2.0522                 1.6626                 1.6584
 IR Inten    --     10.8315                 2.1429                 9.5374

                     70                     71                     72
                      A                      A                      A
 Frequencies --   1436.8195              1443.7337              1445.9687
 Red. masses --      1.2042                 1.2584                 1.2308
 Frc consts  --      1.4647                 1.5454                 1.5162
 IR Inten    --      3.6322                 4.6422                 1.0491

                     73                     74                     75
                      A                      A                      A
 Frequencies --   1456.3477              1476.9145              1489.2313
 Red. masses --      1.2201                 2.4131                 1.0975
 Frc consts  --      1.5247                 3.1012                 1.4341
 IR Inten    --      5.2800                24.2986                12.1632

                     76                     77                     78
                      A                      A                      A
 Frequencies --   1508.6794              1511.0006              1514.2372
 Red. masses --      1.0663                 1.0970                 1.0485
 Frc consts  --      1.4300                 1.4757                 1.4165
 IR Inten    --     18.4083                 0.1979                 0.7501

                     79                     80                     81
                      A                      A                      A
 Frequencies --   1519.4080              1526.6187              1527.2090
 Red. masses --      1.1325                 1.1958                 1.1161
 Frc consts  --      1.5404                 1.6420                 1.5337
 IR Inten    --     51.0988                19.1908                 4.6906

                     82                     83                     84
                      A                      A                      A
 Frequencies --   1527.4199              1532.1099              1534.5082
 Red. masses --      1.4410                 1.3331                 1.0602
 Frc consts  --      1.9808                 1.8437                 1.4709
 IR Inten    --     20.7505                14.7097                 9.6802

                     85                     86                     87
                      A                      A                      A
 Frequencies --   1542.3314              1542.5909              1627.9502
 Red. masses --      1.0715                 1.0723                 5.5934
 Frc consts  --      1.5018                 1.5034                 8.7339
 IR Inten    --      4.9312                 6.2021                44.2838

                     88                     89                     90
                      A                      A                      A
 Frequencies --   1669.0894              1769.4573              3039.6050
 Red. masses --      6.4555                11.0321                 1.0597
 Frc consts  --     10.5960                20.3511                 5.7686
 IR Inten    --     33.2967               152.0609                23.8843

                     91                     92                     93
                      A                      A                      A
 Frequencies --   3041.5070              3043.1481              3046.0645
 Red. masses --      1.0446                 1.0612                 1.0503
 Frc consts  --      5.6934                 5.7903                 5.7415
 IR Inten    --     21.8550                 9.1838                15.2918

                     94                     95                     96
                      A                      A                      A
 Frequencies --   3046.6170              3052.2819              3064.6229
 Red. masses --      1.0638                 1.0472                 1.0371
 Frc consts  --      5.8177                 5.7480                 5.7387
 IR Inten    --     39.2210                31.3462                24.0756

                     97                     98                     99
                      A                      A                      A
 Frequencies --   3066.7303              3080.0738              3098.9561
 Red. masses --      1.0681                 1.0968                 1.0968
 Frc consts  --      5.9187                 6.1308                 6.2060
 IR Inten    --      8.9277                16.2662                 9.7190

                    100                    101                    102
                      A                      A                      A
 Frequencies --   3102.9187              3108.7844              3110.7576
 Red. masses --      1.0992                 1.1009                 1.0993
 Frc consts  --      6.2355                 6.2689                 6.2675
 IR Inten    --      9.2447                53.3558                89.5055

                    103                    104                    105
                      A                      A                      A
 Frequencies --   3112.0089              3125.7485              3125.9781
 Red. masses --      1.1023                 1.1004                 1.0958
 Frc consts  --      6.2896                 6.3346                 6.3087
 IR Inten    --     61.3516                20.2551                25.2878

                    106                    107                    108
                      A                      A                      A
 Frequencies --   3130.0166              3131.4707              3145.9613
 Red. masses --      1.1025                 1.1025                 1.1010
 Frc consts  --      6.3640                 6.3696                 6.4201
 IR Inten    --     17.3815                31.3062                 8.8652

                    109                    110                    111
                      A                      A                      A
 Frequencies --   3175.6356              3198.5100              3812.9843
 Red. masses --      1.0875                 1.0936                 1.0651
 Frc consts  --      6.4616                 6.5919                 9.1235
 IR Inten    --     12.6960                24.2651                91.4544

 - Thermochemistry -
 -------------------
 Temperature   298.150 Kelvin.  Pressure   1.00000 Atm.
 Atom     1 has atomic number  6 and mass  12.00000

 Molecular mass:   234.16198 amu.
 Principal axes and moments of inertia in atomic units:
                           1         2         3
     Eigenvalues --  2494.909346066.233836967.71879
           X            0.99990   0.00886   0.01128
           Y           -0.00879   0.99995  -0.00549
           Z           -0.01133   0.00539   0.99992
 This molecule is an asymmetric top.
 Rotational symmetry number  1.
 Warning -- assumption of classical behavior for rotation
           may cause significant error
 Rotational temperatures (Kelvin)      0.03472     0.01428     0.01243
 Rotational constants (GHZ):           0.72337     0.29751     0.25901
 Zero-point vibrational energy     898304.4 (Joules/Mol)
                                  214.69990 (Kcal/Mol)
 Warning -- explicit consideration of  30 degrees of freedom as
           vibrations may cause significant error
 Vibrational temperatures:     33.57    43.52    86.24    96.48   108.39
          (Kelvin)            155.48   197.50   230.71   242.57   255.18
                              286.92   300.10   314.78   331.53   374.20
                              403.33   406.88   446.43   479.82   488.24
                              534.21   562.37   600.02   633.18   664.33
                              692.47   779.36   822.59   869.43   875.34
                              923.09  1011.17  1058.55  1082.93  1127.23
                             1190.98  1197.51  1207.05  1291.46  1327.37
                             1354.28  1363.68  1378.57  1394.23  1402.34
                             1426.24  1490.47  1544.71  1555.72  1573.03
                             1596.32  1625.05  1634.72  1655.35  1688.78
                             1750.53  1759.25  1789.39  1822.80  1842.93
                             1861.33  1879.55  1908.19  1934.59  1964.68
                             1995.72  2008.73  2015.53  2029.48  2067.26
                             2077.21  2080.43  2095.36  2124.95  2142.67
                             2170.65  2173.99  2178.65  2186.09  2196.46
                             2197.31  2197.62  2204.36  2207.81  2219.07
                             2219.44  2342.26  2401.45  2545.85  4373.31
                             4376.05  4378.41  4382.61  4383.40  4391.55
                             4409.31  4412.34  4431.54  4458.71  4464.41
                             4472.85  4475.69  4477.49  4497.25  4497.59
                             4503.40  4505.49  4526.34  4569.03  4601.94
                             5486.03

 Zero-point correction=                           0.342146 (Hartree/Particle)
 Thermal correction to Energy=                    0.360991
 Thermal correction to Enthalpy=                  0.361935
 Thermal correction to Gibbs Free Energy=         0.294743
 Sum of electronic and zero-point Energies=           -735.035970
 Sum of electronic and thermal Energies=              -735.017125
 Sum of electronic and thermal Enthalpies=            -735.016181
 Sum of electronic and thermal Free Energies=         -735.083373

                     E (Thermal)             CV                S
                      KCal/Mol        Cal/Mol-Kelvin    Cal/Mol-Kelvin
 Total                  226.525             70.458            141.417
 Electronic               0.000              0.000              0.000
 Translational            0.889              2.981             42.254
 Rotational               0.889              2.981             33.022
 Vibrational            224.748             64.496             66.141
 Vibration     1          0.593              1.985              6.328
 Vibration     2          0.594              1.984              5.813
 Vibration     3          0.597              1.973              4.459
 Vibration     4          0.598              1.970              4.238
 Vibration     5          0.599              1.965              4.009
 Vibration     6          0.606              1.943              3.303
 Vibration     7          0.614              1.916              2.842
 Vibration     8          0.622              1.891              2.546
 Vibration     9          0.625              1.881              2.451
 Vibration    10          0.628              1.870              2.356
 Vibration    11          0.638              1.841              2.138
 Vibration    12          0.642              1.828              2.056
 Vibration    13          0.647              1.812              1.969
 Vibration    14          0.652              1.795              1.876
 Vibration    15          0.668              1.746              1.661
 Vibration    16          0.680              1.710              1.532
 Vibration    17          0.682              1.706              1.517
 Vibration    18          0.699              1.654              1.361
 Vibration    19          0.715              1.609              1.243
 Vibration    20          0.719              1.597              1.215
 Vibration    21          0.743              1.531              1.074
 Vibration    22          0.759              1.490              0.997
 Vibration    23          0.780              1.433              0.902
 Vibration    24          0.800              1.383              0.826
 Vibration    25          0.819              1.335              0.761
 Vibration    26          0.838              1.292              0.707
 Vibration    27          0.897              1.158              0.562
 Vibration    28          0.928              1.092              0.501
 Vibration    29          0.963              1.023              0.442
 Vibration    30          0.967              1.014              0.435

 Optimization completed.
    -- Stationary point found.
 Normal termination of Gaussian 16 at Mon Dec 14 13:40:19 2020.

 ----------------------------------------------------------------------
 # B3LYP/6-311++G(d,p) empiricaldispersion=gd3bj scf=xqc pop=npa geom=c
 heck
 ----------------------------------------------------------------------

 ---------------------------------------
 CID_129863400_JID_7037_Energie_neutraal
 ---------------------------------------
 Structure from the checkpoint file:  "JID_7037.chk"
 Charge =  0 Multiplicity = 1

 SCF Done:  E(RB3LYP) =  -735.584984285     A.U. after   15 cycles
 Normal termination of Gaussian 16 at Mon Dec 14 13:48:53 2020.

 ----------------------------------------------------------------------
 # B3LYP/6-311++G(d,p) empiricaldispersion=gd3bj scf=xqc pop=npa geom=c
 heck
 ----------------------------------------------------------------------

 -------------------------------------
 CID_129863400_JID_7037_Energie_kation
 -------------------------------------
 Structure from the checkpoint file:  "JID_7037.chk"
 Charge =  1 Multiplicity = 2

 SCF Done:  E(UB3LYP) =  -735.286255753     A.U. after   29 cycles
 Normal termination of Gaussian 16 at Mon Dec 14 14:12:11 2020.
 Gaussian 16:  ES64L-G16RevA.03 25-Dec-2016

 ----------------------------------------------------------------------
 # B3LYP/6-311++G(d,p) empiricaldispersion=gd3bj scf=xqc pop=npa geom=c
 heck
 ----------------------------------------------------------------------

 ------------------------------------
 CID_129863400_JID_7037_Energie_anion
 ------------------------------------
 Structure from the checkpoint file:  "JID_7037.chk"
 Charge = -1 Multiplicity = 2

                         Standard orientation:
 ---------------------------------------------------------------------
 Center     Atomic      Atomic             Coordinates (Angstroms)
 Number     Number       Type             X           Y           Z
 ---------------------------------------------------------------------
      1          6           0        3.216052   -0.613874    2.057619
      2          6           0        3.916942   -0.623629    0.695435
      3          6           0        3.331600   -1.627980   -0.309805
      4          6           0        1.814938   -1.504964   -0.521228
      5          6           0        1.418269   -0.116082   -1.012064
      6          8           0        2.137283    0.485324   -1.796520
      7          6           0        0.185438    0.535718   -0.451920
      8          6           0        0.225076    1.890440   -0.052833
      9          6           0       -0.926533    2.451805    0.501124
     10          6           0       -2.095999    1.708386    0.631152
     11          6           0       -2.177076    0.376500    0.222108
     12          6           0       -1.010378   -0.194025   -0.319594
     13          8           0       -0.980227   -1.485699   -0.782481
     14          6           0       -3.491683   -0.378909    0.375088
     15          6           0       -4.117195   -0.783890   -0.974874
     16          6           0       -3.397774   -1.564987    1.356161
     17          6           0        1.469185    2.736508   -0.179837
     18          1           0        2.180928   -0.262188    1.977147
     19          1           0        3.732401    0.048721    2.761157
     20          1           0        3.191653   -1.617544    2.500829
     21          1           0        3.878672    0.380745    0.257150
     22          1           0        4.981085   -0.853962    0.835102
     23          1           0        3.834272   -1.498197   -1.273668
     24          1           0        3.542849   -2.650688    0.030210
     25          1           0        1.487323   -2.227424   -1.278879
     26          1           0        1.262638   -1.754025    0.388325
     27          1           0       -0.907012    3.485979    0.832472
     28          1           0       -2.979835    2.174947    1.059962
     29          1           0       -1.836113   -1.903678   -0.621325
     30          1           0       -4.190022    0.333563    0.830656
     31          1           0       -3.512445   -1.510174   -1.531260
     32          1           0       -5.103729   -1.234409   -0.818761
     33          1           0       -4.234924    0.091957   -1.620269
     34          1           0       -3.011390   -1.232163    2.324471
     35          1           0       -4.386426   -2.010679    1.512175
     36          1           0       -2.734804   -2.366835    1.007388
     37          1           0        2.341175    2.249225    0.268819
     38          1           0        1.720878    2.914818   -1.227995
     39          1           0        1.321198    3.698915    0.319119
 ---------------------------------------------------------------------

 SCF Done:  E(UB3LYP) =  -735.582874512     A.U. after   33 cycles
 SCF Done:  E(UB3LYP) =  -735.582874513     a.u. after    1 cycles

 The electronic state is 2-A.
 Alpha  occ. eigenvalues --  -19.03531 -18.95038 -10.10878 -10.09636 -10.07914
 Alpha  occ. eigenvalues --  -10.06308 -10.06173 -10.06112 -10.06045 -10.05551
 Alpha  occ. eigenvalues --  -10.05540 -10.05368 -10.04434 -10.04314 -10.04216
 Alpha  occ. eigenvalues --  -10.04112 -10.04023  -0.94791  -0.89009  -0.73622
 Alpha  occ. eigenvalues --   -0.69958  -0.69076  -0.64003  -0.63330  -0.61476
 Alpha  occ. eigenvalues --   -0.58918  -0.56974  -0.54897  -0.50413  -0.49591
 Alpha  occ. eigenvalues --   -0.47969  -0.46406  -0.41248  -0.39193  -0.37045
 Alpha  occ. eigenvalues --   -0.36521  -0.35403  -0.34739  -0.33581  -0.32659
 Alpha  occ. eigenvalues --   -0.32235  -0.32027  -0.30884  -0.30033  -0.29544
 Alpha  occ. eigenvalues --   -0.29093  -0.28493  -0.27432  -0.26925  -0.26805
 Alpha  occ. eigenvalues --   -0.26296  -0.25731  -0.24650  -0.24038  -0.23631
 Alpha  occ. eigenvalues --   -0.22588  -0.22258  -0.21866  -0.21292  -0.20566
 Alpha  occ. eigenvalues --   -0.20418  -0.12242  -0.10685  -0.10416   0.04452
 Alpha virt. eigenvalues --    0.06122   0.07341   0.08231   0.08700   0.09003
 Alpha virt. eigenvalues --    0.09178   0.09591   0.10530   0.11035   0.11298
 Alpha virt. eigenvalues --    0.11613   0.11802   0.12421   0.12901   0.12982

  Beta  occ. eigenvalues --  -19.03503 -18.94676 -10.10786 -10.09365 -10.07905
  Beta  occ. eigenvalues --  -10.06278 -10.06152 -10.06112 -10.06043 -10.05530
  Beta  occ. eigenvalues --  -10.05425 -10.05384 -10.04443 -10.04241 -10.04173
  Beta  occ. eigenvalues --  -10.04101 -10.03972  -0.94713  -0.88339  -0.73446
  Beta  occ. eigenvalues --   -0.69863  -0.69045  -0.63824  -0.63072  -0.61377
  Beta  occ. eigenvalues --   -0.58864  -0.56896  -0.54782  -0.50186  -0.49354
  Beta  occ. eigenvalues --   -0.47887  -0.46304  -0.40943  -0.39076  -0.36871
  Beta  occ. eigenvalues --   -0.36382  -0.35327  -0.34633  -0.33520  -0.32565
  Beta  occ. eigenvalues --   -0.32136  -0.31874  -0.30697  -0.29909  -0.29414
  Beta  occ. eigenvalues --   -0.28929  -0.28332  -0.27294  -0.26813  -0.26593
  Beta  occ. eigenvalues --   -0.26205  -0.25654  -0.24606  -0.23874  -0.23177
  Beta  occ. eigenvalues --   -0.22489  -0.22178  -0.21806  -0.21051  -0.20286
  Beta  occ. eigenvalues --   -0.19411  -0.11438  -0.10335  -0.09993
  Beta virt. eigenvalues --    0.06841   0.07326   0.08249   0.08891   0.09086
  Beta virt. eigenvalues --    0.09228   0.09466   0.09670   0.10737   0.11089
  Beta virt. eigenvalues --    0.11336   0.11703   0.11943   0.12564   0.12921

 Mulliken charges and spin densities:
               1          2
     1  C   -0.662363   0.000408
     2  C   -0.080167   0.027364
     3  C   -0.480631  -0.042603
     4  C   -0.012573   0.000806
     5  C   -0.069348   0.259327
     6  O   -0.290738   0.120798
     7  C    0.524735   0.129280
     8  C    0.589274  -0.130251
     9  C   -0.510027  -0.108573
    10  C   -0.609846   0.315044
    11  C    1.976623  -1.633346
    12  C   -0.357338  -0.220878
    13  O   -0.192778   0.026151
    14  C   -2.456958   2.538755
    15  C    0.475096  -1.119799
    16  C    0.562787  -1.183360
    17  C   -0.471189  -0.156812
    18  H    0.157058  -0.003349
    19  H    0.117084  -0.000487
    20  H    0.120856  -0.000168
    21  H    0.156409  -0.004412
    22  H    0.128444   0.004749
    23  H    0.157942   0.005738
    24  H    0.117902   0.009649
    25  H    0.188911   0.019840
    26  H    0.149213   0.001831
    27  H    0.083782   0.032034
    28  H   -0.018132   0.115906
    29  H    0.294005  -0.043773
    30  H   -0.228573   0.424042
    31  H   -0.013985   0.128633
    32  H   -0.410458   0.564584
    33  H    0.079298   0.068383
    34  H    0.134197   0.008445
    35  H   -0.505844   0.669327
    36  H   -0.057971   0.163962
    37  H    0.139183  -0.005098
    38  H    0.195904   0.005937
    39  H    0.080213   0.011917
 Sum of Mulliken charges =  -1.00000   1.00000

 Dipole moment (field-independent basis, Debye):
    X=              4.7436    Y=              0.0665    Z=              2.0724  Tot=              5.1770
 Quadrupole moment (field-independent basis, Debye-Ang):
   XX=           -181.0750   YY=           -130.0671   ZZ=           -130.9972
   XY=            -10.0059   XZ=             11.6071   YZ=              4.2373

 Summary of Natural Population Analysis:

                                       Natural Population
                Natural  -----------------------------------------------
    Atom  No    Charge         Core      Valence    Rydberg      Total
 -----------------------------------------------------------------------
      C    1   -0.28956      0.99967     2.28533    0.00455     3.28956
      C    2   -0.19286      0.99964     2.18664    0.00657     3.19286
      C    3   -0.18471      0.99963     2.17710    0.00798     3.18471
      C    4   -0.23558      0.99959     2.22811    0.00788     3.23558
      C    5    0.32026      0.99963     1.65889    0.02121     2.67974
      O    6   -0.27039      0.99988     3.26394    0.00656     4.27039
      C    7   -0.07880      0.99939     2.06751    0.01190     3.07880
      C    8    0.02758      0.99950     1.96505    0.00788     2.97242
      C    9   -0.13024      0.99952     2.12181    0.00891     3.13024
      C   10   -0.05376      0.99953     2.04396    0.01027     3.05376
      C   11   -0.06208      0.99945     2.05197    0.01066     3.06208
      C   12    0.18677      0.99931     1.80130    0.01262     2.81323
      O   13   -0.34717      0.99988     3.34041    0.00688     4.34717
      C   14   -0.12372      0.99959     2.11278    0.01135     3.12372
      C   15   -0.28181      0.99965     2.27617    0.00599     3.28181
      C   16   -0.28162      0.99965     2.27614    0.00584     3.28162
      C   17   -0.29323      0.99964     2.28876    0.00482     3.29323
      H   18    0.10416      0.00000     0.39498    0.00086     0.39584
      H   19    0.09323      0.00000     0.40590    0.00087     0.40677
      H   20    0.09053      0.00000     0.40849    0.00098     0.40947
      H   21    0.10197      0.00000     0.39670    0.00133     0.39803
      H   22    0.08656      0.00000     0.41221    0.00124     0.41344
      H   23    0.10233      0.00000     0.39644    0.00123     0.39767
      H   24    0.08682      0.00000     0.41204    0.00114     0.41318
      H   25    0.11391      0.00000     0.38504    0.00105     0.38609
      H   26    0.10078      0.00000     0.39830    0.00092     0.39922
      H   27    0.09267      0.00000     0.40621    0.00112     0.40733
      H   28    0.09075      0.00000     0.40786    0.00138     0.40925
      H   29    0.23569      0.00000     0.26131    0.00301     0.26431
      H   30    0.10030      0.00000     0.39752    0.00218     0.39970
      H   31    0.09013      0.00000     0.40879    0.00108     0.40987
      H   32    0.09892      0.00000     0.40006    0.00102     0.40108
      H   33    0.10402      0.00000     0.39512    0.00086     0.39598
      H   34    0.10269      0.00000     0.39648    0.00084     0.39731
      H   35    0.10070      0.00000     0.39768    0.00163     0.39930
      H   36    0.08832      0.00000     0.41054    0.00114     0.41168
      H   37    0.10279      0.00000     0.39608    0.00113     0.39721
      H   38    0.11371      0.00000     0.38529    0.00100     0.38629
      H   39    0.08993      0.00000     0.40914    0.00093     0.41007
 =======================================================================
   * Total *   -0.00000     16.99315    46.82802    0.17883    64.00000

 Normal termination of Gaussian 16 at Mon Dec 14 14:39:14 2020.
