 Gaussian 16, Revision A.03,

 -----------------------------------------------------------
 # opt freq B3LYP/6-31G(d) empiricaldispersion=gd3bj scf=xqc
 -----------------------------------------------------------

 -------------------------------
 CID_139968979_JID_5490_neutraal
 -------------------------------
 Symbolic Z-matrix:
 Charge =  0 Multiplicity = 1

 SCF Done:  E(RB3LYP) =  -642.860195908     A.U. after   13 cycles
 SCF Done:  E(RB3LYP) =  -642.864531798     A.U. after   11 cycles
 SCF Done:  E(RB3LYP) =  -642.864496861     A.U. after   11 cycles
 SCF Done:  E(RB3LYP) =  -642.866047769     A.U. after   11 cycles
 SCF Done:  E(RB3LYP) =  -642.866951869     A.U. after   10 cycles
 SCF Done:  E(RB3LYP) =  -642.867916945     A.U. after   11 cycles
 SCF Done:  E(RB3LYP) =  -642.868494270     A.U. after   11 cycles
 SCF Done:  E(RB3LYP) =  -642.868751191     A.U. after   11 cycles
 SCF Done:  E(RB3LYP) =  -642.869464702     A.U. after   10 cycles
 SCF Done:  E(RB3LYP) =  -642.869572010     A.U. after   10 cycles
 SCF Done:  E(RB3LYP) =  -642.869856898     A.U. after    9 cycles
 SCF Done:  E(RB3LYP) =  -642.869859244     A.U. after    8 cycles
 SCF Done:  E(RB3LYP) =  -642.869861838     A.U. after    8 cycles
 SCF Done:  E(RB3LYP) =  -642.869862496     A.U. after    8 cycles
 SCF Done:  E(RB3LYP) =  -642.869862664     A.U. after    6 cycles
 SCF Done:  E(RB3LYP) =  -642.869862674     A.U. after    6 cycles
 Optimization completed.
    -- Stationary point found.
 Normal termination of Gaussian 16 at Thu Dec 10 16:39:07 2020.

 --------------------------------------------------------------------
 #N Geom=AllCheck Guess=TCheck SCRF=Check GenChk RB3LYP/6-31G(d) Freq
 --------------------------------------------------------------------

 Structure from the checkpoint file:  "JID_5490.chk"
 -------------------------------
 CID_139968979_JID_5490_neutraal
 -------------------------------
 Charge =  0 Multiplicity = 1

 SCF Done:  E(RB3LYP) =  -642.869862674     A.U. after    1 cycles

  Exact polarizability: 161.758  -0.835 149.858  -2.434  -2.659 135.568
 Approx polarizability: 203.492  -2.587 202.462  -3.277  -3.290 198.086

                      1                      2                      3
                      A                      A                      A
 Frequencies --     39.0587                43.5906                67.5272
 Red. masses --      2.2249                 3.2860                 2.6106
 Frc consts  --      0.0020                 0.0037                 0.0070
 IR Inten    --      0.0559                 0.1400                 0.5342

                      4                      5                      6
                      A                      A                      A
 Frequencies --     93.2908                95.5881               102.6972
 Red. masses --      2.4457                 2.5294                 1.9264
 Frc consts  --      0.0125                 0.0136                 0.0120
 IR Inten    --      0.6735                 1.2011                 0.2401

                      7                      8                      9
                      A                      A                      A
 Frequencies --    111.5286               140.1296               154.8934
 Red. masses --      2.3395                 2.1774                 2.5848
 Frc consts  --      0.0171                 0.0252                 0.0365
 IR Inten    --      0.0821                 1.4620                 2.1024

                     10                     11                     12
                      A                      A                      A
 Frequencies --    164.4422               196.3414               218.3802
 Red. masses --      2.5453                 1.8013                 1.4285
 Frc consts  --      0.0406                 0.0409                 0.0401
 IR Inten    --      0.0192                 0.4670                 0.3184

                     13                     14                     15
                      A                      A                      A
 Frequencies --    225.8972               240.9059               243.9670
 Red. masses --      1.9302                 1.5807                 1.4584
 Frc consts  --      0.0580                 0.0541                 0.0511
 IR Inten    --      0.3356                 1.6595                 0.5838

                     16                     17                     18
                      A                      A                      A
 Frequencies --    254.1172               256.0937               267.3653
 Red. masses --      1.2943                 1.2258                 1.4135
 Frc consts  --      0.0492                 0.0474                 0.0595
 IR Inten    --      0.5003                 0.6128                 1.5234

                     19                     20                     21
                      A                      A                      A
 Frequencies --    295.5692               303.1559               332.7946
 Red. masses --      2.1724                 1.7785                 2.6745
 Frc consts  --      0.1118                 0.0963                 0.1745
 IR Inten    --      0.7976                 0.2338                 0.3983

                     22                     23                     24
                      A                      A                      A
 Frequencies --    336.4543               353.5481               380.1737
 Red. masses --      2.3591                 2.6756                 2.4866
 Frc consts  --      0.1573                 0.1970                 0.2118
 IR Inten    --      0.2652                 0.2984                 0.3743

                     25                     26                     27
                      A                      A                      A
 Frequencies --    391.4670               438.7004               460.9857
 Red. masses --      2.3893                 2.1281                 2.4463
 Frc consts  --      0.2157                 0.2413                 0.3063
 IR Inten    --      1.5058                 1.0102                 3.0779

                     28                     29                     30
                      A                      A                      A
 Frequencies --    468.3810               517.4616               586.9160
 Red. masses --      1.7730                 2.6905                 2.5135
 Frc consts  --      0.2292                 0.4245                 0.5101
 IR Inten    --      0.6830                 2.1939                 6.2419

                     31                     32                     33
                      A                      A                      A
 Frequencies --    625.7809               700.5974               774.8348
 Red. masses --      3.2314                 2.7234                 2.4033
 Frc consts  --      0.7456                 0.7876                 0.8501
 IR Inten    --      8.3517                 1.3502                 8.3179

                     34                     35                     36
                      A                      A                      A
 Frequencies --    785.6353               794.6935               810.4391
 Red. masses --      1.1534                 1.3034                 1.2924
 Frc consts  --      0.4194                 0.4850                 0.5001
 IR Inten    --      1.8998                 5.7404                12.0521

                     37                     38                     39
                      A                      A                      A
 Frequencies --    853.6919               895.1614               922.4824
 Red. masses --      2.0419                 2.0149                 2.2853
 Frc consts  --      0.8768                 0.9513                 1.1458
 IR Inten    --      1.0472                 2.5077                 4.8646

                     40                     41                     42
                      A                      A                      A
 Frequencies --    941.5024               959.5103               970.3552
 Red. masses --      1.2005                 1.8370                 2.4124
 Frc consts  --      0.6270                 0.9964                 1.3383
 IR Inten    --      2.2447                 3.3693                 5.5394

                     43                     44                     45
                      A                      A                      A
 Frequencies --    979.1864               990.2210              1023.6495
 Red. masses --      1.6259                 2.4916                 2.2371
 Frc consts  --      0.9185                 1.4395                 1.3812
 IR Inten    --      2.2958                 8.9186                10.2735

                     46                     47                     48
                      A                      A                      A
 Frequencies --   1043.3196              1062.1153              1074.8295
 Red. masses --      1.6229                 2.9881                 2.1418
 Frc consts  --      1.0408                 1.9860                 1.4578
 IR Inten    --      2.7389                 2.6917                 6.5276

                     49                     50                     51
                      A                      A                      A
 Frequencies --   1084.6372              1101.5338              1120.1836
 Red. masses --      2.2942                 1.6902                 1.7047
 Frc consts  --      1.5902                 1.2083                 1.2603
 IR Inten    --     41.1355                 7.1997                25.1425

                     52                     53                     54
                      A                      A                      A
 Frequencies --   1122.0462              1133.6768              1158.0885
 Red. masses --      1.8153                 2.0724                 3.3838
 Frc consts  --      1.3465                 1.5693                 2.6739
 IR Inten    --     35.8578                 9.8720               137.4550

                     55                     56                     57
                      A                      A                      A
 Frequencies --   1180.8653              1185.9041              1197.5463
 Red. masses --      2.3427                 1.6481                 1.5102
 Frc consts  --      1.9247                 1.3657                 1.2760
 IR Inten    --     48.4542                10.7591                 5.7662

                     58                     59                     60
                      A                      A                      A
 Frequencies --   1216.4383              1232.3908              1240.0306
 Red. masses --      2.0866                 2.2914                 1.8188
 Frc consts  --      1.8191                 2.0504                 1.6478
 IR Inten    --      6.2397                 8.4472                39.4758

                     61                     62                     63
                      A                      A                      A
 Frequencies --   1256.3992              1259.5915              1312.0738
 Red. masses --      2.0515                 2.1313                 1.1894
 Frc consts  --      1.9080                 1.9923                 1.2064
 IR Inten    --     21.5423                26.8833                 4.1581

                     64                     65                     66
                      A                      A                      A
 Frequencies --   1323.0447              1348.0148              1365.5150
 Red. masses --      1.1613                 1.2237                 1.3677
 Frc consts  --      1.1977                 1.3102                 1.5026
 IR Inten    --      2.7585                10.3560                 1.6646

                     67                     68                     69
                      A                      A                      A
 Frequencies --   1378.2168              1399.8893              1404.8694
 Red. masses --      1.2830                 1.2630                 1.2732
 Frc consts  --      1.4359                 1.4583                 1.4805
 IR Inten    --      2.7694                 4.2963                14.9732

                     70                     71                     72
                      A                      A                      A
 Frequencies --   1410.2766              1413.5139              1425.9617
 Red. masses --      1.4265                 1.3269                 1.2702
 Frc consts  --      1.6716                 1.5620                 1.5217
 IR Inten    --     10.5288                20.2717                 0.5940

                     73                     74                     75
                      A                      A                      A
 Frequencies --   1427.7828              1429.9930              1434.4087
 Red. masses --      1.3337                 1.2349                 1.2916
 Frc consts  --      1.6019                 1.4879                 1.5657
 IR Inten    --      3.4958                 1.5517                22.2662

                     76                     77                     78
                      A                      A                      A
 Frequencies --   1439.1767              1440.9887              1444.8785
 Red. masses --      1.2596                 1.2965                 1.2654
 Frc consts  --      1.5372                 1.5861                 1.5565
 IR Inten    --     28.0378                 4.7605                 2.1060

                     79                     80                     81
                      A                      A                      A
 Frequencies --   1455.5812              1501.8003              1504.3328
 Red. masses --      1.2258                 1.1380                 1.0849
 Frc consts  --      1.5302                 1.5123                 1.4465
 IR Inten    --     16.9316                 6.9507                 1.4356

                     82                     83                     84
                      A                      A                      A
 Frequencies --   1505.9757              1513.3976              1517.8991
 Red. masses --      1.0713                 1.0491                 1.0462
 Frc consts  --      1.4315                 1.4157                 1.4202
 IR Inten    --      4.7634                 4.7500                 1.7333

                     85                     86                     87
                      A                      A                      A
 Frequencies --   1519.4021              1522.3140              1526.2358
 Red. masses --      1.0514                 1.0558                 1.0622
 Frc consts  --      1.4300                 1.4416                 1.4579
 IR Inten    --      3.7112                 0.4379                 3.2298

                     88                     89                     90
                      A                      A                      A
 Frequencies --   1531.3917              1532.0882              1534.0835
 Red. masses --      1.0601                 1.0486                 1.0549
 Frc consts  --      1.4648                 1.4502                 1.4628
 IR Inten    --      3.9889                 2.1730                12.1832

                     91                     92                     93
                      A                      A                      A
 Frequencies --   1534.8447              1538.8007              1542.8977
 Red. masses --      1.0555                 1.0492                 1.0556
 Frc consts  --      1.4650                 1.4637                 1.4805
 IR Inten    --      3.5677                 3.1306                 6.2349

                     94                     95                     96
                      A                      A                      A
 Frequencies --   1544.5879              1548.3268              1557.4563
 Red. masses --      1.0692                 1.0566                 1.0505
 Frc consts  --      1.5029                 1.4923                 1.5013
 IR Inten    --      1.3012                 5.7020                 4.3543

                     97                     98                     99
                      A                      A                      A
 Frequencies --   1563.5596              2955.5528              2985.8212
 Red. masses --      1.0842                 1.0658                 1.0391
 Frc consts  --      1.5616                 5.4852                 5.4579
 IR Inten    --      2.0251                38.3797                77.5020

                    100                    101                    102
                      A                      A                      A
 Frequencies --   2997.7081              3026.2476              3027.2427
 Red. masses --      1.0823                 1.0876                 1.0810
 Frc consts  --      5.7304                 5.8685                 5.8367
 IR Inten    --     38.7046                20.6005                87.2023

                    103                    104                    105
                      A                      A                      A
 Frequencies --   3034.7019              3036.1548              3045.4126
 Red. masses --      1.0913                 1.0618                 1.0607
 Frc consts  --      5.9215                 5.7671                 5.7963
 IR Inten    --     30.3994                30.3694                31.1976

                    106                    107                    108
                      A                      A                      A
 Frequencies --   3049.7031              3050.2892              3051.8356
 Red. masses --      1.0375                 1.0415                 1.0408
 Frc consts  --      5.6852                 5.7095                 5.7112
 IR Inten    --     20.3396                30.6230                14.5781

                    109                    110                    111
                      A                      A                      A
 Frequencies --   3053.5561              3055.1289              3059.4467
 Red. masses --      1.0421                 1.0641                 1.0423
 Frc consts  --      5.7252                 5.8517                 5.7483
 IR Inten    --     22.0645                49.5104                24.9586

                    112                    113                    114
                      A                      A                      A
 Frequencies --   3071.0324              3082.4734              3098.3989
 Red. masses --      1.1030                 1.1022                 1.0976
 Frc consts  --      6.1289                 6.1705                 6.2084
 IR Inten    --     22.6321                19.8747                41.3038

                    115                    116                    117
                      A                      A                      A
 Frequencies --   3103.6738              3104.8234              3110.8635
 Red. masses --      1.0972                 1.0995                 1.1005
 Frc consts  --      6.2270                 6.2448                 6.2749
 IR Inten    --     22.2315                17.7904                31.5765

                    118                    119                    120
                      A                      A                      A
 Frequencies --   3112.6487              3112.9794              3118.6123
 Red. masses --      1.0995                 1.0959                 1.0954
 Frc consts  --      6.2764                 6.2571                 6.2767
 IR Inten    --     87.0126                52.1947                39.4790

                    121                    122                    123
                      A                      A                      A
 Frequencies --   3129.6863              3132.6323              3133.3366
 Red. masses --      1.1011                 1.1022                 1.0964
 Frc consts  --      6.3544                 6.3728                 6.3423
 IR Inten    --     26.1550                51.5492                35.6396

                    124                    125                    126
                      A                      A                      A
 Frequencies --   3142.3457              3147.8856              3174.9111
 Red. masses --      1.0997                 1.0988                 1.0967
 Frc consts  --      6.3979                 6.4154                 6.5134
 IR Inten    --     36.5122                42.3499                 5.2934

 - Thermochemistry -
 -------------------
 Temperature   298.150 Kelvin.  Pressure   1.00000 Atm.
 Atom     1 has atomic number  6 and mass  12.00000

 Molecular mass:   215.22491 amu.
 Principal axes and moments of inertia in atomic units:
                           1         2         3
     Eigenvalues --  2661.224304480.654455445.10928
           X            0.99999  -0.00519   0.00144
           Y            0.00521   0.99995  -0.00900
           Z           -0.00140   0.00900   0.99996
 This molecule is an asymmetric top.
 Rotational symmetry number  1.
 Warning -- assumption of classical behavior for rotation
           may cause significant error
 Rotational temperatures (Kelvin)      0.03255     0.01933     0.01591
 Rotational constants (GHZ):           0.67816     0.40279     0.33144
 Zero-point vibrational energy    1083083.6 (Joules/Mol)
                                  258.86320 (Kcal/Mol)
 Warning -- explicit consideration of  30 degrees of freedom as
           vibrations may cause significant error
 Vibrational temperatures:     56.20    62.72    97.16   134.22   137.53
          (Kelvin)            147.76   160.46   201.62   222.86   236.60
                              282.49   314.20   325.02   346.61   351.01
                              365.62   368.46   384.68   425.26   436.17
                              478.82   484.08   508.68   546.99   563.23
                              631.19   663.26   673.90   744.51   844.44
                              900.36  1008.00  1114.81  1130.35  1143.39
                             1166.04  1228.27  1287.94  1327.25  1354.61
                             1380.52  1396.12  1408.83  1424.71  1472.80
                             1501.10  1528.15  1546.44  1560.55  1584.86
                             1611.69  1614.37  1631.11  1666.23  1699.00
                             1706.25  1723.00  1750.18  1773.14  1784.13
                             1807.68  1812.27  1887.78  1903.57  1939.49
                             1964.67  1982.95  2014.13  2021.29  2029.07
                             2033.73  2051.64  2054.26  2057.44  2063.79
                             2070.65  2073.26  2078.86  2094.26  2160.76
                             2164.40  2166.76  2177.44  2183.92  2186.08
                             2190.27  2195.91  2203.33  2204.33  2207.20
                             2208.30  2213.99  2219.89  2222.32  2227.70
                             2240.83  2249.61  4252.38  4295.93  4313.03
                             4354.10  4355.53  4366.26  4368.35  4381.67
                             4387.84  4388.69  4390.91  4393.39  4395.65
                             4401.86  4418.53  4434.99  4457.91  4465.49
                             4467.15  4475.84  4478.41  4478.88  4486.99
                             4502.92  4507.16  4508.17  4521.13  4529.11
                             4567.99

 Zero-point correction=                           0.412525 (Hartree/Particle)
 Thermal correction to Energy=                    0.432054
 Thermal correction to Enthalpy=                  0.432998
 Thermal correction to Gibbs Free Energy=         0.365818
 Sum of electronic and zero-point Energies=           -642.457338
 Sum of electronic and thermal Energies=              -642.437809
 Sum of electronic and thermal Enthalpies=            -642.436865
 Sum of electronic and thermal Free Energies=         -642.504045

                     E (Thermal)             CV                S
                      KCal/Mol        Cal/Mol-Kelvin    Cal/Mol-Kelvin
 Total                  271.118             72.596            141.392
 Electronic               0.000              0.000              0.000
 Translational            0.889              2.981             42.003
 Rotational               0.889              2.981             32.540
 Vibrational            269.340             66.634             66.849
 Vibration     1          0.594              1.981              5.306
 Vibration     2          0.595              1.980              5.089
 Vibration     3          0.598              1.970              4.224
 Vibration     4          0.602              1.954              3.590
 Vibration     5          0.603              1.952              3.542
 Vibration     6          0.605              1.947              3.402
 Vibration     7          0.607              1.940              3.242
 Vibration     8          0.615              1.913              2.802
 Vibration     9          0.620              1.897              2.611
 Vibration    10          0.623              1.886              2.498
 Vibration    11          0.636              1.845              2.167
 Vibration    12          0.646              1.813              1.972
 Vibration    13          0.650              1.802              1.911
 Vibration    14          0.658              1.778              1.796
 Vibration    15          0.659              1.773              1.774
 Vibration    16          0.665              1.756              1.702
 Vibration    17          0.666              1.752              1.688
 Vibration    18          0.672              1.733              1.613
 Vibration    19          0.690              1.682              1.442
 Vibration    20          0.695              1.668              1.399
 Vibration    21          0.715              1.610              1.246
 Vibration    22          0.717              1.603              1.229
 Vibration    23          0.730              1.568              1.150
 Vibration    24          0.750              1.512              1.038
 Vibration    25          0.759              1.488              0.995
 Vibration    26          0.799              1.386              0.831
 Vibration    27          0.819              1.337              0.763
 Vibration    28          0.826              1.320              0.742
 Vibration    29          0.872              1.211              0.616
 Vibration    30          0.944              1.060              0.473

 Optimization completed.
    -- Stationary point found.
 Normal termination of Gaussian 16 at Thu Dec 10 16:57:15 2020.

 ----------------------------------------------------------------------
 # B3LYP/6-311++G(d,p) empiricaldispersion=gd3bj scf=xqc pop=npa geom=c
 heck
 ----------------------------------------------------------------------

 ---------------------------------------
 CID_139968979_JID_5490_Energie_neutraal
 ---------------------------------------
 Structure from the checkpoint file:  "JID_5490.chk"
 Charge =  0 Multiplicity = 1

 SCF Done:  E(RB3LYP) =  -643.052009466     A.U. after   13 cycles
 Normal termination of Gaussian 16 at Thu Dec 10 17:06:39 2020.

 ----------------------------------------------------------------------
 # B3LYP/6-311++G(d,p) empiricaldispersion=gd3bj scf=xqc pop=npa geom=c
 heck
 ----------------------------------------------------------------------

 -------------------------------------
 CID_139968979_JID_5490_Energie_kation
 -------------------------------------
 Structure from the checkpoint file:  "JID_5490.chk"
 Charge =  1 Multiplicity = 2

 SCF Done:  E(UB3LYP) =  -642.783654178     A.U. after   20 cycles
 Normal termination of Gaussian 16 at Thu Dec 10 17:25:09 2020.
 Gaussian 16:  ES64L-G16RevA.03 25-Dec-2016

 ----------------------------------------------------------------------
 # B3LYP/6-311++G(d,p) empiricaldispersion=gd3bj scf=xqc pop=npa geom=c
 heck
 ----------------------------------------------------------------------

 ------------------------------------
 CID_139968979_JID_5490_Energie_anion
 ------------------------------------
 Structure from the checkpoint file:  "JID_5490.chk"
 Charge = -1 Multiplicity = 2

                         Standard orientation:
 ---------------------------------------------------------------------
 Center     Atomic      Atomic             Coordinates (Angstroms)
 Number     Number       Type             X           Y           Z
 ---------------------------------------------------------------------
      1          6           0        0.594436   -2.242945    1.588473
      2          6           0        0.908976   -0.759657    1.365422
      3          6           0        0.749174   -0.195296   -0.067140
      4          6           0       -0.740063   -0.266444   -0.523644
      5          7           0       -1.679549    0.495781    0.295419
      6          6           0       -2.268717    1.671552   -0.332930
      7          6           0       -3.247073    1.448757   -1.500228
      8          6           0       -2.530148   -0.269135    1.199936
      9          6           0       -3.526740   -1.268930    0.585568
     10          6           0        1.093921    1.304336   -0.005635
     11          8           0        2.405998    1.530266    0.484406
     12          6           0        2.691883    2.901890    0.624738
     13          6           0        1.644905   -0.895692   -1.151978
     14          6           0        3.082921   -1.171114   -0.682082
     15          6           0        1.060982   -2.181665   -1.770291
     16          1           0       -0.395511   -2.524598    1.212730
     17          1           0        0.611479   -2.470873    2.660602
     18          1           0        1.326934   -2.897039    1.106936
     19          1           0        0.257174   -0.158279    2.011454
     20          1           0        1.928452   -0.555641    1.704703
     21          1           0       -0.792126    0.085788   -1.562800
     22          1           0       -1.044378   -1.315764   -0.557109
     23          1           0       -2.772454    2.248819    0.453292
     24          1           0       -1.445190    2.302517   -0.690320
     25          1           0       -4.179796    0.983435   -1.169795
     26          1           0       -3.499755    2.408416   -1.967517
     27          1           0       -2.806874    0.808424   -2.272907
     28          1           0       -1.879833   -0.819213    1.890032
     29          1           0       -3.080340    0.454005    1.815101
     30          1           0       -3.022681   -1.991320   -0.066088
     31          1           0       -4.021685   -1.836414    1.382968
     32          1           0       -4.301834   -0.771953   -0.003730
     33          1           0        0.994366    1.749832   -1.012068
     34          1           0        0.368603    1.801425    0.654695
     35          1           0        2.640126    3.430237   -0.341563
     36          1           0        1.992575    3.392691    1.321159
     37          1           0        3.707504    2.984716    1.020711
     38          1           0        1.714832   -0.171174   -1.977995
     39          1           0        3.110782   -1.953344    0.085040
     40          1           0        3.687378   -1.523999   -1.526358
     41          1           0        3.545742   -0.273441   -0.271525
     42          1           0        0.117714   -2.008882   -2.296526
     43          1           0        1.770852   -2.582089   -2.503478
     44          1           0        0.890058   -2.962825   -1.024068
 ---------------------------------------------------------------------

 SCF Done:  E(UB3LYP) =  -643.037076516     A.U. after   29 cycles

 The electronic state is 2-A.
 Alpha  occ. eigenvalues --  -19.02865 -14.19847 -10.11714 -10.10904 -10.09529
 Alpha  occ. eigenvalues --  -10.09351 -10.09079 -10.08135 -10.07662 -10.06456
 Alpha  occ. eigenvalues --  -10.06235 -10.06037 -10.05975 -10.05733 -10.05376
 Alpha  occ. eigenvalues --   -0.94287  -0.82182  -0.73126  -0.66693  -0.66186
 Alpha  occ. eigenvalues --   -0.64540  -0.63051  -0.59875  -0.58280  -0.55656
 Alpha  occ. eigenvalues --   -0.53437  -0.52443  -0.50529  -0.46707  -0.42651
 Alpha  occ. eigenvalues --   -0.40354  -0.39376  -0.38608  -0.37890  -0.37323
 Alpha  occ. eigenvalues --   -0.35714  -0.33989  -0.33548  -0.32486  -0.31967
 Alpha  occ. eigenvalues --   -0.31623  -0.31284  -0.30677  -0.30045  -0.29034
 Alpha  occ. eigenvalues --   -0.28724  -0.28577  -0.28263  -0.27230  -0.26365
 Alpha  occ. eigenvalues --   -0.25691  -0.25113  -0.24617  -0.24295  -0.23706
 Alpha  occ. eigenvalues --   -0.22962  -0.21806  -0.20248  -0.20225  -0.16487
 Alpha  occ. eigenvalues --   -0.10449   0.04286
 Alpha virt. eigenvalues --    0.06111   0.06763   0.06841   0.07954   0.08444
 Alpha virt. eigenvalues --    0.08620   0.08887   0.09244   0.10504   0.10556
 Alpha virt. eigenvalues --    0.10677   0.11205   0.11642   0.11718   0.12023

  Beta  occ. eigenvalues --  -19.02858 -14.19846 -10.11685 -10.10892 -10.09514
  Beta  occ. eigenvalues --  -10.09334 -10.09064 -10.08135 -10.07653 -10.06441
  Beta  occ. eigenvalues --  -10.06228 -10.06008 -10.05957 -10.05700 -10.05369
  Beta  occ. eigenvalues --   -0.94274  -0.82169  -0.73113  -0.66674  -0.66153
  Beta  occ. eigenvalues --   -0.64515  -0.63016  -0.59837  -0.58245  -0.55608
  Beta  occ. eigenvalues --   -0.53377  -0.52390  -0.50493  -0.46659  -0.42623
  Beta  occ. eigenvalues --   -0.40327  -0.39353  -0.38577  -0.37869  -0.37297
  Beta  occ. eigenvalues --   -0.35692  -0.33964  -0.33515  -0.32453  -0.31943
  Beta  occ. eigenvalues --   -0.31601  -0.31262  -0.30655  -0.30016  -0.29000
  Beta  occ. eigenvalues --   -0.28688  -0.28559  -0.28234  -0.27202  -0.26338
  Beta  occ. eigenvalues --   -0.25655  -0.25087  -0.24592  -0.24268  -0.23679
  Beta  occ. eigenvalues --   -0.22939  -0.21788  -0.20233  -0.20191  -0.16472
  Beta  occ. eigenvalues --   -0.10423
  Beta virt. eigenvalues --    0.06213   0.06808   0.07227   0.07382   0.08325
  Beta virt. eigenvalues --    0.08738   0.08903   0.09244   0.09605   0.10738
  Beta virt. eigenvalues --    0.10890   0.10987   0.11435   0.11800   0.12037

 Mulliken charges and spin densities:
               1          2
     1  C    0.203837  -0.823148
     2  C   -1.208953   0.868110
     3  C    2.670561  -0.825529
     4  C   -2.522494   0.684504
     5  N    0.361073  -0.029834
     6  C   -0.601664   0.590245
     7  C    0.730763  -1.277348
     8  C   -0.058846  -0.115181
     9  C    0.377609  -0.808090
    10  C   -0.383595  -0.481522
    11  O   -0.082932   0.022376
    12  C    0.662155  -0.918968
    13  C   -0.975302   0.968592
    14  C   -0.084672  -0.640420
    15  C    0.215118  -0.773085
    16  H   -0.005930   0.181193
    17  H   -0.094266   0.234119
    18  H    0.192710  -0.064941
    19  H   -0.066362   0.253442
    20  H    0.140958   0.023124
    21  H    0.272150  -0.082524
    22  H    1.285707  -1.153516
    23  H   -0.276815   0.430244
    24  H   -0.095262   0.210387
    25  H    0.066896   0.057902
    26  H   -0.309723   0.451200
    27  H   -0.470478   0.608734
    28  H    0.354485  -0.215496
    29  H   -0.262306   0.412964
    30  H   -0.541109   0.684810
    31  H   -0.251707   0.389962
    32  H    0.110278   0.012843
    33  H    0.061334   0.124862
    34  H    0.551858  -0.386354
    35  H   -0.254316   0.388454
    36  H   -0.248453   0.372780
    37  H   -0.153078   0.287814
    38  H   -0.239098   0.415588
    39  H    0.007797   0.112622
    40  H    0.085221   0.050844
    41  H    0.166569   0.004322
    42  H   -0.185682   0.331452
    43  H   -0.175666   0.319542
    44  H    0.031632   0.102923
 Sum of Mulliken charges =  -1.00000   1.00000

 Dipole moment (field-independent basis, Debye):
    X=              2.5807    Y=             -2.3994    Z=              2.0870  Tot=              4.0954
 Quadrupole moment (field-independent basis, Debye-Ang):
   XX=           -169.8631   YY=           -156.1981   ZZ=           -145.4331
   XY=             -4.5122   XZ=             -0.7010   YZ=              1.8112

 Summary of Natural Population Analysis:

                                       Natural Population
                Natural  -----------------------------------------------
    Atom  No    Charge         Core      Valence    Rydberg      Total
 -----------------------------------------------------------------------
      C    1   -0.28788      0.99966     2.28334    0.00489     3.28788
      C    2   -0.19945      0.99959     2.18986    0.01001     3.19945
      C    3   -0.04342      0.99953     2.02902    0.01487     3.04342
      C    4   -0.08634      0.99955     2.07366    0.01313     3.08634
      N    5   -0.29207      0.99972     2.77828    0.01407     3.79207
      C    6   -0.07845      0.99961     2.06764    0.01119     3.07845
      C    7   -0.29522      0.99966     2.29092    0.00465     3.29522
      C    8   -0.07902      0.99961     2.06870    0.01072     3.07902
      C    9   -0.29562      0.99966     2.29124    0.00472     3.29562
      C   10   -0.00706      0.99950     1.99399    0.01357     3.00706
      O   11   -0.30220      0.99988     3.29301    0.00931     4.30220
      C   12   -0.09564      0.99962     2.08681    0.00921     3.09564
      C   13   -0.11108      0.99958     2.09953    0.01197     3.11108
      C   14   -0.28794      0.99964     2.28311    0.00519     3.28794
      C   15   -0.28663      0.99965     2.28097    0.00601     3.28663
      H   16    0.09641      0.00000     0.40251    0.00108     0.40359
      H   17    0.09770      0.00000     0.40159    0.00071     0.40230
      H   18    0.09493      0.00000     0.40414    0.00093     0.40507
      H   19    0.10130      0.00000     0.39728    0.00142     0.39870
      H   20    0.10621      0.00000     0.39246    0.00133     0.39379
      H   21    0.09817      0.00000     0.40018    0.00165     0.40183
      H   22    0.09885      0.00000     0.39944    0.00171     0.40115
      H   23    0.09189      0.00000     0.40683    0.00128     0.40811
      H   24    0.09193      0.00000     0.40670    0.00137     0.40807
      H   25    0.09485      0.00000     0.40384    0.00131     0.40515
      H   26    0.09860      0.00000     0.40008    0.00132     0.40140
      H   27    0.09775      0.00000     0.40098    0.00127     0.40225
      H   28    0.09070      0.00000     0.40788    0.00142     0.40930
      H   29    0.09275      0.00000     0.40605    0.00120     0.40725
      H   30    0.09615      0.00000     0.40259    0.00126     0.40385
      H   31    0.09759      0.00000     0.40119    0.00122     0.40241
      H   32    0.09668      0.00000     0.40201    0.00131     0.40332
      H   33    0.08005      0.00000     0.41795    0.00200     0.41995
      H   34    0.08913      0.00000     0.40869    0.00218     0.41087
      H   35    0.07931      0.00000     0.41916    0.00152     0.42069
      H   36    0.07842      0.00000     0.42020    0.00137     0.42158
      H   37    0.08842      0.00000     0.41064    0.00094     0.41158
      H   38    0.09453      0.00000     0.40373    0.00174     0.40547
      H   39    0.09258      0.00000     0.40658    0.00083     0.40742
      H   40    0.09433      0.00000     0.40485    0.00083     0.40567
      H   41    0.11340      0.00000     0.38533    0.00128     0.38660
      H   42    0.10107      0.00000     0.39797    0.00096     0.39893
      H   43    0.09765      0.00000     0.40157    0.00078     0.40235
      H   44    0.09666      0.00000     0.40233    0.00100     0.40334
 =======================================================================
   * Total *   -0.00000     14.99444    45.82485    0.18071    61.00000

 Normal termination of Gaussian 16 at Thu Dec 10 17:52:02 2020.
