 Gaussian 16, Revision A.03,

 -----------------------------------------------------------
 # opt freq B3LYP/6-31G(d) empiricaldispersion=gd3bj scf=xqc
 -----------------------------------------------------------

 -------------------------------
 CID_129171288_JID_2913_neutraal
 -------------------------------
 Symbolic Z-matrix:
 Charge =  0 Multiplicity = 1

 SCF Done:  E(RB3LYP) =  -518.693280567     A.U. after   16 cycles
 SCF Done:  E(RB3LYP) =  -518.709096224     A.U. after   14 cycles
 SCF Done:  E(RB3LYP) =  -518.712241580     A.U. after   14 cycles
 SCF Done:  E(RB3LYP) =  -518.712483603     A.U. after   13 cycles
 SCF Done:  E(RB3LYP) =  -518.712964109     A.U. after   13 cycles
 SCF Done:  E(RB3LYP) =  -518.713150065     A.U. after   12 cycles
 SCF Done:  E(RB3LYP) =  -518.713191786     A.U. after   12 cycles
 SCF Done:  E(RB3LYP) =  -518.713203255     A.U. after   11 cycles
 SCF Done:  E(RB3LYP) =  -518.713211106     A.U. after   10 cycles
 SCF Done:  E(RB3LYP) =  -518.713215741     A.U. after   10 cycles
 SCF Done:  E(RB3LYP) =  -518.713216936     A.U. after    9 cycles
 SCF Done:  E(RB3LYP) =  -518.713217486     A.U. after    9 cycles
 SCF Done:  E(RB3LYP) =  -518.713217554     A.U. after    8 cycles
 Optimization completed.
    -- Stationary point found.
 Normal termination of Gaussian 16 at Wed Dec  9 18:12:09 2020.

 --------------------------------------------------------------------
 #N Geom=AllCheck Guess=TCheck SCRF=Check GenChk RB3LYP/6-31G(d) Freq
 --------------------------------------------------------------------

 Structure from the checkpoint file:  "JID_2913.chk"
 -------------------------------
 CID_129171288_JID_2913_neutraal
 -------------------------------
 Charge =  0 Multiplicity = 1

 SCF Done:  E(RB3LYP) =  -518.713217554     A.U. after    1 cycles

  Exact polarizability: 142.986 -12.299 101.589   5.241   6.406  87.693
 Approx polarizability: 209.665 -29.438 184.940  10.503  21.747 145.664

                      1                      2                      3
                      A                      A                      A
 Frequencies --     37.8658                63.7026               118.0854
 Red. masses --      3.3578                 3.7880                 2.3411
 Frc consts  --      0.0028                 0.0091                 0.0192
 IR Inten    --      0.3513                 1.3418                 2.6416

                      4                      5                      6
                      A                      A                      A
 Frequencies --    140.0911               147.5307               238.9615
 Red. masses --      2.8832                 3.4217                 1.3190
 Frc consts  --      0.0333                 0.0439                 0.0444
 IR Inten    --      7.7172                 1.0071                 3.8865

                      7                      8                      9
                      A                      A                      A
 Frequencies --    261.5574               278.9068               303.9466
 Red. masses --      3.1614                 2.4319                 2.1471
 Frc consts  --      0.1274                 0.1115                 0.1169
 IR Inten    --      3.6632                 0.8016                18.5246

                     10                     11                     12
                      A                      A                      A
 Frequencies --    320.7142               334.5472               372.5593
 Red. masses --      2.3307                 2.9193                 3.9837
 Frc consts  --      0.1412                 0.1925                 0.3258
 IR Inten    --      1.9671                16.9754                18.1331

                     13                     14                     15
                      A                      A                      A
 Frequencies --    390.5093               421.7711               480.6952
 Red. masses --      2.7836                 3.6740                 3.9379
 Frc consts  --      0.2501                 0.3851                 0.5361
 IR Inten    --      5.2794                11.6483                 0.7104

                     16                     17                     18
                      A                      A                      A
 Frequencies --    506.1233               563.8757               613.7135
 Red. masses --      3.5477                 4.5397                 3.3122
 Frc consts  --      0.5354                 0.8504                 0.7350
 IR Inten    --     17.6055                21.9094                16.4241

                     19                     20                     21
                      A                      A                      A
 Frequencies --    679.2821               699.5618               750.5571
 Red. masses --      3.2347                 4.5524                 2.4314
 Frc consts  --      0.8794                 1.3126                 0.8070
 IR Inten    --     14.3534                48.5206                55.3992

                     22                     23                     24
                      A                      A                      A
 Frequencies --    769.3636               790.4854               815.0165
 Red. masses --      1.9236                 1.6731                 1.2158
 Frc consts  --      0.6709                 0.6160                 0.4758
 IR Inten    --     33.5185                22.9582                86.4358

                     25                     26                     27
                      A                      A                      A
 Frequencies --    825.0471               874.9618               882.4557
 Red. masses --      1.5445                 2.4795                 2.4266
 Frc consts  --      0.6194                 1.1184                 1.1133
 IR Inten    --     11.5131                 3.1067                 6.4954

                     28                     29                     30
                      A                      A                      A
 Frequencies --    914.4126               918.0111               953.7042
 Red. masses --      1.3915                 2.0125                 3.0768
 Frc consts  --      0.6855                 0.9993                 1.6488
 IR Inten    --      8.4092                61.2144               107.0951

                     31                     32                     33
                      A                      A                      A
 Frequencies --   1043.2634              1057.4934              1096.2213
 Red. masses --      2.4963                 2.3438                 2.5630
 Frc consts  --      1.6008                 1.5443                 1.8147
 IR Inten    --      2.9994                 1.1705                11.6770

                     34                     35                     36
                      A                      A                      A
 Frequencies --   1104.9733              1128.4358              1158.2236
 Red. masses --      1.8549                 1.9177                 1.5755
 Frc consts  --      1.3343                 1.4387                 1.2452
 IR Inten    --      5.5640                30.4522                 8.2434

                     37                     38                     39
                      A                      A                      A
 Frequencies --   1185.5614              1219.6594              1250.6097
 Red. masses --      1.2033                 1.9552                 1.4168
 Frc consts  --      0.9965                 1.7137                 1.3056
 IR Inten    --      8.2847                17.7728                 0.6937

                     40                     41                     42
                      A                      A                      A
 Frequencies --   1296.2357              1304.7223              1336.0750
 Red. masses --      1.5464                 1.2705                 1.6881
 Frc consts  --      1.5308                 1.2742                 1.7755
 IR Inten    --      8.1455                 0.1661                 7.6355

                     43                     44                     45
                      A                      A                      A
 Frequencies --   1351.0734              1378.6038              1383.6907
 Red. masses --      1.4538                 1.5118                 1.4706
 Frc consts  --      1.5635                 1.6928                 1.6589
 IR Inten    --     85.3986                 7.0406                14.3107

                     46                     47                     48
                      A                      A                      A
 Frequencies --   1396.7477              1442.8899              1445.9279
 Red. masses --      1.4414                 1.2783                 1.5902
 Frc consts  --      1.6568                 1.5680                 1.9588
 IR Inten    --      6.8164                33.7138               227.0524

                     49                     50                     51
                      A                      A                      A
 Frequencies --   1507.8165              1516.1246              1529.8432
 Red. masses --      1.1083                 1.1308                 1.0432
 Frc consts  --      1.4845                 1.5315                 1.4385
 IR Inten    --      3.9250                 2.3724                 5.7140

                     52                     53                     54
                      A                      A                      A
 Frequencies --   1532.3584              1539.5540              1658.9273
 Red. masses --      1.7246                 1.7299                 4.2753
 Frc consts  --      2.3860                 2.4158                 6.9322
 IR Inten    --      2.9392                 3.0425                47.6117

                     55                     56                     57
                      A                      A                      A
 Frequencies --   1677.0834              2178.3398              3029.9337
 Red. masses --      1.1169                11.8871                 1.0634
 Frc consts  --      1.8508                33.2335                 5.7520
 IR Inten    --     59.3541                18.1894                20.4697

                     58                     59                     60
                      A                      A                      A
 Frequencies --   3039.6424              3046.4788              3057.1382
 Red. masses --      1.0618                 1.0372                 1.0850
 Frc consts  --      5.7799                 5.6715                 5.9744
 IR Inten    --     32.6618                23.1835                24.9002

                     61                     62                     63
                      A                      A                      A
 Frequencies --   3070.6170              3083.7729              3103.5781
 Red. masses --      1.1006                 1.0997                 1.0843
 Frc consts  --      6.1138                 6.1613                 6.1533
 IR Inten    --     23.8550                31.1241                17.2016

                     64                     65                     66
                      A                      A                      A
 Frequencies --   3111.0640              3123.4294              3149.3548
 Red. masses --      1.1015                 1.1023                 1.0875
 Frc consts  --      6.2812                 6.3361                 6.3549
 IR Inten    --     43.1477                51.3483                40.3899

                     67                     68                     69
                      A                      A                      A
 Frequencies --   3414.3715              3493.5792              3590.2416
 Red. masses --      1.0637                 1.0506                 1.0938
 Frc consts  --      7.3060                 7.5550                 8.3070
 IR Inten    --    265.1445                 0.6689                 6.6765

 - Thermochemistry -
 -------------------
 Temperature   298.150 Kelvin.  Pressure   1.00000 Atm.
 Atom     1 has atomic number  6 and mass  12.00000

 Molecular mass:   163.09971 amu.
 Principal axes and moments of inertia in atomic units:
                           1         2         3
     Eigenvalues --   862.995013329.103543584.51987
           X            0.99997  -0.00778  -0.00091
           Y            0.00777   0.99990  -0.01161
           Z            0.00100   0.01161   0.99993
 This molecule is an asymmetric top.
 Rotational symmetry number  1.
 Warning -- assumption of classical behavior for rotation
           may cause significant error
 Rotational temperatures (Kelvin)      0.10036     0.02602     0.02416
 Rotational constants (GHZ):           2.09125     0.54211     0.50348
 Zero-point vibrational energy     553282.9 (Joules/Mol)
                                  132.23778 (Kcal/Mol)
 Warning -- explicit consideration of  18 degrees of freedom as
           vibrations may cause significant error
 Vibrational temperatures:     54.48    91.65   169.90   201.56   212.26
          (Kelvin)            343.81   376.32   401.28   437.31   461.44
                              481.34   536.03   561.86   606.83   691.61
                              728.20   811.29   883.00   977.34  1006.51
                             1079.88  1106.94  1137.33  1172.63  1187.06
                             1258.87  1269.66  1315.64  1320.81  1372.17
                             1501.02  1521.50  1577.22  1589.81  1623.57
                             1666.43  1705.76  1754.82  1799.35  1864.99
                             1877.20  1922.31  1943.89  1983.50  1990.82
                             2009.61  2076.00  2080.37  2169.41  2181.37
                             2201.10  2204.72  2215.07  2386.83  2412.95
                             3134.15  4359.40  4373.37  4383.20  4398.54
                             4417.93  4436.86  4465.36  4476.13  4493.92
                             4531.22  4912.52  5026.48  5165.56

 Zero-point correction=                           0.210734 (Hartree/Particle)
 Thermal correction to Energy=                    0.222797
 Thermal correction to Enthalpy=                  0.223741
 Thermal correction to Gibbs Free Energy=         0.172631
 Sum of electronic and zero-point Energies=           -518.502483
 Sum of electronic and thermal Energies=              -518.490421
 Sum of electronic and thermal Enthalpies=            -518.489476
 Sum of electronic and thermal Free Energies=         -518.540587

                     E (Thermal)             CV                S
                      KCal/Mol        Cal/Mol-Kelvin    Cal/Mol-Kelvin
 Total                  139.807             46.162            107.571
 Electronic               0.000              0.000              0.000
 Translational            0.889              2.981             41.176
 Rotational               0.889              2.981             30.711
 Vibrational            138.030             40.201             35.684
 Vibration     1          0.594              1.982              5.368
 Vibration     2          0.597              1.972              4.339
 Vibration     3          0.608              1.934              3.131
 Vibration     4          0.615              1.913              2.803
 Vibration     5          0.617              1.905              2.704
 Vibration     6          0.657              1.781              1.811
 Vibration     7          0.669              1.743              1.651
 Vibration     8          0.679              1.713              1.540
 Vibration     9          0.695              1.666              1.395
 Vibration    10          0.706              1.634              1.306
 Vibration    11          0.716              1.607              1.238
 Vibration    12          0.744              1.528              1.069
 Vibration    13          0.758              1.490              0.998
 Vibration    14          0.784              1.423              0.886
 Vibration    15          0.837              1.293              0.708
 Vibration    16          0.861              1.236              0.643
 Vibration    17          0.920              1.109              0.516
 Vibration    18          0.973              1.003              0.427

                           ! Non-Optimized Parameters !
 Normal termination of Gaussian 16 at Wed Dec  9 18:18:01 2020.

 ----------------------------------------------------------------------
 # B3LYP/6-311++G(d,p) empiricaldispersion=gd3bj scf=xqc pop=npa geom=c
 heck
 ----------------------------------------------------------------------

 ---------------------------------------
 CID_129171288_JID_2913_Energie_neutraal
 ---------------------------------------
 Structure from the checkpoint file:  "JID_2913.chk"
 Charge =  0 Multiplicity = 1

 SCF Done:  E(RB3LYP) =  -518.872978792     A.U. after   16 cycles
 Normal termination of Gaussian 16 at Wed Dec  9 18:20:25 2020.

 ----------------------------------------------------------------------
 # B3LYP/6-311++G(d,p) empiricaldispersion=gd3bj scf=xqc pop=npa geom=c
 heck
 ----------------------------------------------------------------------

 -------------------------------------
 CID_129171288_JID_2913_Energie_kation
 -------------------------------------
 Structure from the checkpoint file:  "JID_2913.chk"
 Charge =  1 Multiplicity = 2

 SCF Done:  E(UB3LYP) =  -518.597439843     A.U. after   24 cycles
 Normal termination of Gaussian 16 at Wed Dec  9 18:25:30 2020.
 Gaussian 16:  ES64L-G16RevA.03 25-Dec-2016

 ----------------------------------------------------------------------
 # B3LYP/6-311++G(d,p) empiricaldispersion=gd3bj scf=xqc pop=npa geom=c
 heck
 ----------------------------------------------------------------------

 ------------------------------------
 CID_129171288_JID_2913_Energie_anion
 ------------------------------------
 Structure from the checkpoint file:  "JID_2913.chk"
 Charge = -1 Multiplicity = 2

                         Standard orientation:
 ---------------------------------------------------------------------
 Center     Atomic      Atomic             Coordinates (Angstroms)
 Number     Number       Type             X           Y           Z
 ---------------------------------------------------------------------
      1          6           0       -3.603621   -0.517181    1.004476
      2          6           0       -3.286269   -0.703844   -0.480398
      3          6           0       -2.347812    0.381879   -1.037916
      4          6           0       -0.995648    0.373568   -0.375279
      5          6           0       -0.468858    1.452026    0.296758
      6          6           0        0.798034    1.272396    1.046723
      7          6           0        1.846081    0.732197    0.370611
      8          6           0        2.219226   -0.751360    0.586257
      9          6           0        0.920155   -1.257941    0.011427
     10          6           0       -0.156935   -0.804722   -0.361979
     11          7           0        3.382659   -1.110866   -0.232201
     12          8           0        2.204254    1.164134   -0.850103
     13          1           0       -2.690932   -0.553184    1.608808
     14          1           0       -4.281338   -1.297905    1.366889
     15          1           0       -4.081706    0.453555    1.185221
     16          1           0       -2.819665   -1.685706   -0.637113
     17          1           0       -4.215031   -0.701190   -1.064863
     18          1           0       -2.223948    0.225088   -2.118516
     19          1           0       -2.804085    1.371073   -0.910852
     20          1           0       -1.091122    2.343887    0.369504
     21          1           0        0.650742    0.867946    2.051188
     22          1           0        2.311501   -1.018449    1.645787
     23          1           0        3.324532   -2.078671   -0.536317
     24          1           0        4.244288   -0.994950    0.298046
     25          1           0        2.818003    0.469391   -1.195634
 ---------------------------------------------------------------------

 SCF Done:  E(UB3LYP) =  -518.883541408     A.U. after   32 cycles

 The electronic state is 2-A.
 Alpha  occ. eigenvalues --  -18.99499 -14.18543 -10.08840 -10.07668 -10.04918
 Alpha  occ. eigenvalues --  -10.04693 -10.04262 -10.03428 -10.02318  -9.99154
 Alpha  occ. eigenvalues --   -9.98438  -9.98266  -0.91548  -0.77026  -0.69232
 Alpha  occ. eigenvalues --   -0.66003  -0.61181  -0.58299  -0.55640  -0.50347
 Alpha  occ. eigenvalues --   -0.47025  -0.43721  -0.41303  -0.38297  -0.36555
 Alpha  occ. eigenvalues --   -0.34459  -0.33897  -0.32822  -0.30596  -0.29550
 Alpha  occ. eigenvalues --   -0.27950  -0.27505  -0.25894  -0.23847  -0.23295
 Alpha  occ. eigenvalues --   -0.22626  -0.21881  -0.21392  -0.19004  -0.15285
 Alpha  occ. eigenvalues --   -0.14795  -0.10823  -0.07046  -0.04679   0.04577
 Alpha virt. eigenvalues --    0.07766   0.08254   0.10002   0.10356   0.11129
 Alpha virt. eigenvalues --    0.11460   0.12098   0.12646   0.12849   0.13312
 Alpha virt. eigenvalues --    0.14407   0.14428   0.15114   0.15807   0.16264

  Beta  occ. eigenvalues --  -18.99439 -14.18499 -10.08702 -10.07512 -10.04904
  Beta  occ. eigenvalues --  -10.04693 -10.04244 -10.03330 -10.02257  -9.98968
  Beta  occ. eigenvalues --   -9.98299  -9.97768  -0.91401  -0.76895  -0.68976
  Beta  occ. eigenvalues --   -0.65804  -0.60895  -0.57885  -0.55371  -0.50036
  Beta  occ. eigenvalues --   -0.46862  -0.43415  -0.41076  -0.38111  -0.36381
  Beta  occ. eigenvalues --   -0.34136  -0.33774  -0.32769  -0.30251  -0.29232
  Beta  occ. eigenvalues --   -0.27725  -0.27350  -0.25634  -0.23669  -0.23242
  Beta  occ. eigenvalues --   -0.22214  -0.21708  -0.21282  -0.18826  -0.14998
  Beta  occ. eigenvalues --   -0.14509  -0.08947  -0.06581  -0.03529
  Beta virt. eigenvalues --    0.07953   0.08134   0.09750   0.10284   0.10786
  Beta virt. eigenvalues --    0.11382   0.11826   0.12283   0.12787   0.13041
  Beta virt. eigenvalues --    0.13313   0.14383   0.14571   0.15099   0.15999

 Mulliken charges and spin densities:
               1          2
     1  C   -0.672944   0.023755
     2  C    0.001246  -0.094742
     3  C   -0.731187   0.049646
     4  C    0.836420   0.022130
     5  C   -0.196907   0.020338
     6  C   -0.002722  -0.018943
     7  C   -0.163171   0.476735
     8  C   -0.352491  -0.919193
     9  C   -0.087831   0.337587
    10  C   -0.525394   0.354975
    11  N   -0.268965   0.032573
    12  O   -0.172978   0.007791
    13  H    0.166040  -0.000455
    14  H    0.106052  -0.000160
    15  H    0.111325  -0.000693
    16  H    0.134606   0.004090
    17  H    0.074791   0.037686
    18  H    0.096681   0.029506
    19  H    0.111326  -0.001899
    20  H    0.129294   0.022859
    21  H    0.099107  -0.008145
    22  H    0.036166   0.138946
    23  H   -0.022355   0.263234
    24  H    0.004123   0.205785
    25  H    0.289764   0.016594
 Sum of Mulliken charges =  -1.00000   1.00000

 Dipole moment (field-independent basis, Debye):
    X=             -3.0629    Y=              0.2101    Z=              0.4147  Tot=              3.0980
 Quadrupole moment (field-independent basis, Debye-Ang):
   XX=            -99.1938   YY=            -99.2445   ZZ=            -85.5583
   XY=             -2.4009   XZ=              0.4590   YZ=             -2.8136

 Summary of Natural Population Analysis:

                                       Natural Population
                Natural  -----------------------------------------------
    Atom  No    Charge         Core      Valence    Rydberg      Total
 -----------------------------------------------------------------------
      C    1   -0.28722      0.99967     2.28325    0.00430     3.28722
      C    2   -0.18611      0.99964     2.18041    0.00606     3.18611
      C    3   -0.18871      0.99959     2.18028    0.00884     3.18871
      C    4   -0.04599      0.99944     2.03265    0.01390     3.04599
      C    5   -0.07669      0.99948     2.06729    0.00992     3.07669
      C    6   -0.19533      0.99936     2.18078    0.01519     3.19533
      C    7    0.22530      0.99937     1.75500    0.02033     2.77470
      C    8   -0.05770      0.99948     2.04161    0.01660     3.05770
      C    9   -0.01779      0.99901     2.00589    0.01289     3.01779
      C   10    0.07419      0.99895     1.91530    0.01155     2.92581
      N   11   -0.43825      0.99975     2.92655    0.01195     3.93825
      O   12   -0.34824      0.99987     3.33948    0.00889     4.34824
      H   13    0.10693      0.00000     0.39224    0.00083     0.39307
      H   14    0.09017      0.00000     0.40896    0.00088     0.40983
      H   15    0.08995      0.00000     0.40912    0.00093     0.41005
      H   16    0.10255      0.00000     0.39646    0.00100     0.39745
      H   17    0.08375      0.00000     0.41444    0.00181     0.41625
      H   18    0.09773      0.00000     0.40086    0.00141     0.40227
      H   19    0.09066      0.00000     0.40830    0.00104     0.40934
      H   20    0.08609      0.00000     0.41262    0.00129     0.41391
      H   21    0.09277      0.00000     0.40545    0.00178     0.40723
      H   22    0.09765      0.00000     0.40080    0.00155     0.40235
      H   23    0.18685      0.00000     0.31038    0.00277     0.31315
      H   24    0.17491      0.00000     0.32304    0.00205     0.32509
      H   25    0.24253      0.00000     0.25382    0.00365     0.25747
 =======================================================================
   * Total *   -0.00000     11.99361    31.84498    0.16141    44.00000

 Normal termination of Gaussian 16 at Wed Dec  9 18:31:03 2020.
