 Gaussian 16, Revision A.03,

 -----------------------------------------------------------
 # opt freq B3LYP/6-31G(d) empiricaldispersion=gd3bj scf=xqc
 -----------------------------------------------------------

 ------------------------------
 CID_70242461_JID_1370_neutraal
 ------------------------------
 Symbolic Z-matrix:
 Charge =  0 Multiplicity = 1

 SCF Done:  E(RB3LYP) =  -479.544714372     A.U. after   14 cycles
 SCF Done:  E(RB3LYP) =  -479.547151919     A.U. after   12 cycles
 SCF Done:  E(RB3LYP) =  -479.547495283     A.U. after   12 cycles
 SCF Done:  E(RB3LYP) =  -479.547689899     A.U. after   11 cycles
 SCF Done:  E(RB3LYP) =  -479.547754012     A.U. after   11 cycles
 SCF Done:  E(RB3LYP) =  -479.547823982     A.U. after   11 cycles
 SCF Done:  E(RB3LYP) =  -479.547882783     A.U. after   11 cycles
 SCF Done:  E(RB3LYP) =  -479.547974399     A.U. after   12 cycles
 SCF Done:  E(RB3LYP) =  -479.548048001     A.U. after   12 cycles
 SCF Done:  E(RB3LYP) =  -479.548090531     A.U. after   11 cycles
 SCF Done:  E(RB3LYP) =  -479.548115557     A.U. after   11 cycles
 SCF Done:  E(RB3LYP) =  -479.548117400     A.U. after    9 cycles
 SCF Done:  E(RB3LYP) =  -479.548117547     A.U. after   10 cycles
 SCF Done:  E(RB3LYP) =  -479.548117533     A.U. after   10 cycles
 SCF Done:  E(RB3LYP) =  -479.548117563     A.U. after    7 cycles
 Optimization completed.
    -- Stationary point found.
 Normal termination of Gaussian 16 at Tue Dec  8 19:51:23 2020.

 --------------------------------------------------------------------
 #N Geom=AllCheck Guess=TCheck SCRF=Check GenChk RB3LYP/6-31G(d) Freq
 --------------------------------------------------------------------

 Structure from the checkpoint file:  "JID_1370.chk"
 ------------------------------
 CID_70242461_JID_1370_neutraal
 ------------------------------
 Charge =  0 Multiplicity = 1

 SCF Done:  E(RB3LYP) =  -479.548117563     A.U. after    2 cycles

  Exact polarizability: 120.786  10.744  91.812 -10.314   7.517  84.287
 Approx polarizability: 153.454  19.373 155.029 -20.249   8.488 141.959

                      1                      2                      3
                      A                      A                      A
 Frequencies --     11.5185                55.1329                83.7101
 Red. masses --      3.9680                 3.7366                 3.1136
 Frc consts  --      0.0003                 0.0067                 0.0129
 IR Inten    --      0.1940                 2.6706                 2.8800

                      4                      5                      6
                      A                      A                      A
 Frequencies --    119.9070               214.2726               254.2625
 Red. masses --      2.9153                 2.9420                 2.5292
 Frc consts  --      0.0247                 0.0796                 0.0963
 IR Inten    --      2.0077                 5.2132                 2.8899

                      7                      8                      9
                      A                      A                      A
 Frequencies --    280.0767               339.0786               420.5624
 Red. masses --      1.6578                 1.8447                 3.8276
 Frc consts  --      0.0766                 0.1250                 0.3989
 IR Inten    --     35.1841                19.1547                 3.2578

                     10                     11                     12
                      A                      A                      A
 Frequencies --    425.7836               450.4716               510.1823
 Red. masses --      3.2990                 5.2231                 3.6785
 Frc consts  --      0.3524                 0.6245                 0.5641
 IR Inten    --      1.0908                 2.1072                20.8083

                     13                     14                     15
                      A                      A                      A
 Frequencies --    526.8145               632.5061               654.4991
 Red. masses --      4.8321                 6.4412                 3.8272
 Frc consts  --      0.7901                 1.5183                 0.9659
 IR Inten    --      1.8910                 0.0398                 2.1045

                     16                     17                     18
                      A                      A                      A
 Frequencies --    708.6165               790.3435               813.8219
 Red. masses --      1.7607                 2.4628                 3.0331
 Frc consts  --      0.5209                 0.9064                 1.1836
 IR Inten    --     21.5224                22.1423                16.7496

                     19                     20                     21
                      A                      A                      A
 Frequencies --    827.2120               844.6402               876.7631
 Red. masses --      1.7640                 1.2535                 1.3191
 Frc consts  --      0.7112                 0.5269                 0.5974
 IR Inten    --     26.7080                 1.6903               115.6649

                     22                     23                     24
                      A                      A                      A
 Frequencies --    923.8453               944.3087               961.9135
 Red. masses --      1.5169                 1.5324                 1.3378
 Frc consts  --      0.7628                 0.8051                 0.7293
 IR Inten    --      6.8214                11.3231                 0.0091

                     25                     26                     27
                      A                      A                      A
 Frequencies --    979.7486               989.5402              1024.5291
 Red. masses --      1.1022                 1.2436                 6.2167
 Frc consts  --      0.6234                 0.7175                 3.8447
 IR Inten    --     28.2891                 0.0421                 3.9450

                     28                     29                     30
                      A                      A                      A
 Frequencies --   1039.2141              1052.7014              1103.2723
 Red. masses --      3.7001                 2.0750                 1.4793
 Frc consts  --      2.3543                 1.3548                 1.0609
 IR Inten    --     29.5934                 3.9489                 6.2692

                     31                     32                     33
                      A                      A                      A
 Frequencies --   1144.7264              1165.2682              1188.6546
 Red. masses --      3.5109                 2.1586                 1.2231
 Frc consts  --      2.7106                 1.7269                 1.0182
 IR Inten    --     51.3675                29.1489                 7.1197

                     34                     35                     36
                      A                      A                      A
 Frequencies --   1191.6489              1198.8166              1255.9776
 Red. masses --      1.1037                 1.2624                 3.4062
 Frc consts  --      0.9234                 1.0689                 3.1658
 IR Inten    --      0.0945                30.7206               308.7594

                     37                     38                     39
                      A                      A                      A
 Frequencies --   1297.6135              1334.8735              1337.4645
 Red. masses --      1.3992                 1.2332                 1.7186
 Frc consts  --      1.3881                 1.2946                 1.8113
 IR Inten    --     22.0606                16.5795                 0.7055

                     40                     41                     42
                      A                      A                      A
 Frequencies --   1361.6864              1387.8099              1444.9273
 Red. masses --      3.3791                 1.2309                 1.4367
 Frc consts  --      3.6915                 1.3968                 1.7673
 IR Inten    --      0.0767                 9.3650                22.0574

                     43                     44                     45
                      A                      A                      A
 Frequencies --   1501.9559              1535.9780              1542.7666
 Red. masses --      2.2471                 1.0922                 2.3170
 Frc consts  --      2.9867                 1.5181                 3.2492
 IR Inten    --      1.5316                 0.0415                71.4846

                     46                     47                     48
                      A                      A                      A
 Frequencies --   1653.8889              1657.4136              1688.2299
 Red. masses --      6.1628                 5.7110                 1.0970
 Frc consts  --      9.9320                 9.2433                 1.8421
 IR Inten    --      5.8315                46.2143                34.9137

                     49                     50                     51
                      A                      A                      A
 Frequencies --   1739.9332              2949.9315              3039.8398
 Red. masses --      5.5170                 1.0729                 1.0877
 Frc consts  --      9.8406                 5.5008                 5.9220
 IR Inten    --    126.0352                90.1399                44.0352

                     52                     53                     54
                      A                      A                      A
 Frequencies --   3188.1012              3197.3224              3209.1297
 Red. masses --      1.0852                 1.0893                 1.0937
 Frc consts  --      6.4989                 6.5608                 6.6362
 IR Inten    --      0.4379                12.1433                45.0558

                     55                     56                     57
                      A                      A                      A
 Frequencies --   3209.5550              3210.1991              3219.3257
 Red. masses --      1.0945                 1.0867                 1.0939
 Frc consts  --      6.6426                 6.5982                 6.6799
 IR Inten    --     11.4250                 7.4023                13.8224

                     58                     59                     60
                      A                      A                      A
 Frequencies --   3221.9779              3457.1119              3547.3355
 Red. masses --      1.0964                 1.0493                 1.0928
 Frc consts  --      6.7060                 7.3892                 8.1021
 IR Inten    --      0.8158                 7.8965                 2.2048

 - Thermochemistry -
 -------------------
 Temperature   298.150 Kelvin.  Pressure   1.00000 Atm.
 Atom     1 has atomic number  6 and mass  12.00000

 Molecular mass:   149.08406 amu.
 Principal axes and moments of inertia in atomic units:
                           1         2         3
     Eigenvalues --   845.779883155.971333386.14292
           X            0.99999   0.00282  -0.00285
           Y           -0.00260   0.99716   0.07525
           Z            0.00306  -0.07524   0.99716
 This molecule is an asymmetric top.
 Rotational symmetry number  1.
 Warning -- assumption of classical behavior for rotation
           may cause significant error
 Rotational temperatures (Kelvin)      0.10241     0.02744     0.02558
 Rotational constants (GHZ):           2.13382     0.57185     0.53298
 Zero-point vibrational energy     484121.0 (Joules/Mol)
                                  115.70770 (Kcal/Mol)
 Warning -- explicit consideration of  13 degrees of freedom as
           vibrations may cause significant error
 Vibrational temperatures:     16.57    79.32   120.44   172.52   308.29
          (Kelvin)            365.83   402.97   487.86   605.10   612.61
                              648.13   734.04   757.97   910.04   941.68
                             1019.54  1137.13  1170.91  1190.17  1215.25
                             1261.47  1329.21  1358.65  1383.98  1409.64
                             1423.73  1474.07  1495.20  1514.60  1587.36
                             1647.01  1676.56  1710.21  1714.52  1724.83
                             1807.07  1866.98  1920.59  1924.31  1959.16
                             1996.75  2078.93  2160.98  2209.93  2219.70
                             2379.58  2384.65  2428.99  2503.38  4244.29
                             4373.65  4586.97  4600.23  4617.22  4617.83
                             4618.76  4631.89  4635.71  4974.01  5103.82

 Zero-point correction=                           0.184392 (Hartree/Particle)
 Thermal correction to Energy=                    0.194782
 Thermal correction to Enthalpy=                  0.195726
 Thermal correction to Gibbs Free Energy=         0.146185
 Sum of electronic and zero-point Energies=           -479.363726
 Sum of electronic and thermal Energies=              -479.353336
 Sum of electronic and thermal Enthalpies=            -479.352391
 Sum of electronic and thermal Free Energies=         -479.401933

                     E (Thermal)             CV                S
                      KCal/Mol        Cal/Mol-Kelvin    Cal/Mol-Kelvin
 Total                  122.227             38.802            104.269
 Electronic               0.000              0.000              0.000
 Translational            0.889              2.981             40.908
 Rotational               0.889              2.981             30.581
 Vibrational            120.450             32.840             32.780
 Vibration     1          0.593              1.987              7.730
 Vibration     2          0.596              1.976              4.624
 Vibration     3          0.601              1.960              3.802
 Vibration     4          0.609              1.933              3.102
 Vibration     5          0.644              1.819              2.007
 Vibration     6          0.665              1.756              1.701
 Vibration     7          0.680              1.710              1.533
 Vibration     8          0.719              1.597              1.216
 Vibration     9          0.783              1.426              0.890
 Vibration    10          0.788              1.414              0.873
 Vibration    11          0.809              1.360              0.794
 Vibration    12          0.865              1.227              0.633
 Vibration    13          0.882              1.191              0.594

 Optimization completed.
    -- Stationary point found.
 Normal termination of Gaussian 16 at Tue Dec  8 19:55:38 2020.

 ----------------------------------------------------------------------
 # B3LYP/6-311++G(d,p) empiricaldispersion=gd3bj scf=xqc pop=npa geom=c
 heck
 ----------------------------------------------------------------------

 --------------------------------------
 CID_70242461_JID_1370_Energie_neutraal
 --------------------------------------
 Structure from the checkpoint file:  "JID_1370.chk"
 Charge =  0 Multiplicity = 1

 SCF Done:  E(RB3LYP) =  -479.689659009     A.U. after   14 cycles
 Normal termination of Gaussian 16 at Tue Dec  8 19:57:24 2020.

 ----------------------------------------------------------------------
 # B3LYP/6-311++G(d,p) empiricaldispersion=gd3bj scf=xqc pop=npa geom=c
 heck
 ----------------------------------------------------------------------

 ------------------------------------
 CID_70242461_JID_1370_Energie_kation
 ------------------------------------
 Structure from the checkpoint file:  "JID_1370.chk"
 Charge =  1 Multiplicity = 2

 SCF Done:  E(UB3LYP) =  -479.383725869     A.U. after   25 cycles
 Normal termination of Gaussian 16 at Tue Dec  8 20:02:09 2020.
 Gaussian 16:  ES64L-G16RevA.03 25-Dec-2016

 ----------------------------------------------------------------------
 # B3LYP/6-311++G(d,p) empiricaldispersion=gd3bj scf=xqc pop=npa geom=c
 heck
 ----------------------------------------------------------------------

 -----------------------------------
 CID_70242461_JID_1370_Energie_anion
 -----------------------------------
 Structure from the checkpoint file:  "JID_1370.chk"
 Charge = -1 Multiplicity = 2

                         Standard orientation:
 ---------------------------------------------------------------------
 Center     Atomic      Atomic             Coordinates (Angstroms)
 Number     Number       Type             X           Y           Z
 ---------------------------------------------------------------------
      1          6           0        3.043948    0.955509   -0.453215
      2          6           0        2.320756    1.318379    0.684951
      3          6           0        1.256902    0.529925    1.123127
      4          6           0        0.927827   -0.622964    0.412843
      5          6           0        1.637528   -0.995521   -0.726176
      6          6           0        2.701498   -0.201391   -1.155458
      7          8           0       -0.091430   -1.445494    0.874041
      8          6           0       -1.375151   -1.141804    0.493834
      9          6           0       -1.779608   -0.152347   -0.305014
     10          6           0       -3.227869    0.063953   -0.632135
     11          7           0       -3.645275    1.409459   -0.208634
     12          1           0        3.872605    1.571233   -0.790169
     13          1           0        2.585248    2.216717    1.235306
     14          1           0        0.681436    0.792325    2.004755
     15          1           0        1.352766   -1.899134   -1.255094
     16          1           0        3.262726   -0.488388   -2.040090
     17          1           0       -2.061923   -1.854194    0.941830
     18          1           0       -1.069316    0.553409   -0.724829
     19          1           0       -3.374401    0.012317   -1.720115
     20          1           0       -3.827638   -0.756858   -0.197404
     21          1           0       -4.624502    1.558301   -0.449481
     22          1           0       -3.583627    1.469579    0.806854
 ---------------------------------------------------------------------

 SCF Done:  E(UB3LYP) =  -479.673855134     A.U. after   33 cycles
 SCF Done:  E(UB3LYP) =  -479.673855134     a.u. after    1 cycles

 The electronic state is 2-A.
 Alpha  occ. eigenvalues --  -19.06651 -14.18767 -10.14028 -10.12922 -10.09455
 Alpha  occ. eigenvalues --  -10.08591 -10.08555 -10.08437 -10.08423 -10.08128
 Alpha  occ. eigenvalues --  -10.06257  -0.98469  -0.77915  -0.76593  -0.68085
 Alpha  occ. eigenvalues --   -0.66068  -0.64859  -0.56701  -0.52426  -0.52019
 Alpha  occ. eigenvalues --   -0.47423  -0.42924  -0.40771  -0.39406  -0.38165
 Alpha  occ. eigenvalues --   -0.36358  -0.35500  -0.33609  -0.33268  -0.30338
 Alpha  occ. eigenvalues --   -0.28946  -0.28129  -0.27604  -0.26607  -0.25407
 Alpha  occ. eigenvalues --   -0.25100  -0.16871  -0.15699  -0.14358  -0.13423
 Alpha  occ. eigenvalues --    0.04472
 Alpha virt. eigenvalues --    0.05958   0.07202   0.07460   0.07674   0.08281
 Alpha virt. eigenvalues --    0.08692   0.09039   0.10547   0.10791   0.11375
 Alpha virt. eigenvalues --    0.11909   0.12280   0.13464   0.14275   0.15742

  Beta  occ. eigenvalues --  -19.06646 -14.18721 -10.14027 -10.12902 -10.09427
  Beta  occ. eigenvalues --  -10.08575 -10.08536 -10.08428 -10.08413 -10.08110
  Beta  occ. eigenvalues --  -10.06260  -0.98452  -0.77841  -0.76562  -0.68049
  Beta  occ. eigenvalues --   -0.66033  -0.64823  -0.56637  -0.52383  -0.51964
  Beta  occ. eigenvalues --   -0.47376  -0.42882  -0.40726  -0.39351  -0.38135
  Beta  occ. eigenvalues --   -0.36319  -0.35449  -0.33571  -0.33182  -0.30307
  Beta  occ. eigenvalues --   -0.28906  -0.28092  -0.27566  -0.26566  -0.25379
  Beta  occ. eigenvalues --   -0.25062  -0.16844  -0.15681  -0.14313  -0.13388
  Beta virt. eigenvalues --    0.06810   0.07345   0.07502   0.07767   0.08040
  Beta virt. eigenvalues --    0.08812   0.09446   0.09639   0.10884   0.11378
  Beta virt. eigenvalues --    0.11544   0.12357   0.12550   0.13554   0.14424

 Mulliken charges and spin densities:
               1          2
     1  C    1.579189  -1.925206
     2  C    0.314996  -0.487690
     3  C   -0.464368   0.608864
     4  C   -0.539442   0.139357
     5  C   -0.255770   0.418801
     6  C    0.358393  -0.558471
     7  O   -0.033614  -0.014215
     8  C   -0.974403   0.523181
     9  C   -0.061222   0.418902
    10  C    1.971239  -2.605516
    11  N   -0.413453   0.079896
    12  H   -0.449331   0.605443
    13  H   -0.448463   0.633192
    14  H   -0.009467   0.183892
    15  H    0.002340   0.166157
    16  H   -0.674769   0.862249
    17  H   -0.328108   0.488967
    18  H    0.274453  -0.096927
    19  H   -0.271237   0.417370
    20  H   -0.324896   0.456812
    21  H   -0.190658   0.419624
    22  H   -0.061408   0.265316
 Sum of Mulliken charges =  -1.00000   1.00000

 Dipole moment (field-independent basis, Debye):
    X=              1.7256    Y=             -2.9087    Z=              1.8050  Tot=              3.8336
 Quadrupole moment (field-independent basis, Debye-Ang):
   XX=           -157.3275   YY=           -102.2973   ZZ=            -96.3730
   XY=             -1.1148   XZ=              5.3939   YZ=              0.0424

 Summary of Natural Population Analysis:

                                       Natural Population
                Natural  -----------------------------------------------
    Atom  No    Charge         Core      Valence    Rydberg      Total
 -----------------------------------------------------------------------
      C    1   -0.10541      0.99956     2.09550    0.01035     3.10541
      C    2   -0.09556      0.99957     2.08544    0.01055     3.09556
      C    3   -0.11723      0.99950     2.10829    0.00944     3.11723
      C    4    0.14763      0.99935     1.83960    0.01341     2.85237
      C    5   -0.11751      0.99950     2.10822    0.00980     3.11751
      C    6   -0.09551      0.99957     2.08522    0.01072     3.09551
      O    7   -0.27545      0.99985     3.26479    0.01081     4.27545
      C    8    0.08407      0.99938     1.90249    0.01407     2.91593
      C    9   -0.14966      0.99953     2.14092    0.00922     3.14966
      C   10   -0.09884      0.99963     2.08603    0.01318     3.09884
      N   11   -0.42061      0.99977     2.90971    0.01113     3.92061
      H   12    0.10494      0.00000     0.39280    0.00225     0.39506
      H   13    0.10348      0.00000     0.39517    0.00135     0.39652
      H   14    0.10869      0.00000     0.39024    0.00107     0.39131
      H   15    0.10787      0.00000     0.39112    0.00101     0.39213
      H   16    0.10425      0.00000     0.39379    0.00196     0.39575
      H   17    0.08862      0.00000     0.40997    0.00141     0.41138
      H   18    0.10515      0.00000     0.39304    0.00182     0.39485
      H   19    0.09185      0.00000     0.40672    0.00143     0.40815
      H   20    0.08058      0.00000     0.41646    0.00296     0.41942
      H   21    0.17584      0.00000     0.32045    0.00372     0.32416
      H   22    0.17283      0.00000     0.32463    0.00255     0.32717
 =======================================================================
   * Total *   -0.00000     10.99521    28.86058    0.14421    40.00000

 Normal termination of Gaussian 16 at Tue Dec  8 20:08:07 2020.
