 Gaussian 16, Revision A.03,

 -----------------------------------------------------------
 # opt freq B3LYP/6-31G(d) empiricaldispersion=gd3bj scf=xqc
 -----------------------------------------------------------

 ------------------------------
 CID_15291835_JID_8559_neutraal
 ------------------------------
 Symbolic Z-matrix:
 Charge =  0 Multiplicity = 1

 SCF Done:  E(RB3LYP) =  -838.076837582     A.U. after   15 cycles
 SCF Done:  E(RB3LYP) =  -838.087053353     A.U. after   13 cycles
 SCF Done:  E(RB3LYP) =  -838.087722561     A.U. after   11 cycles
 SCF Done:  E(RB3LYP) =  -838.087778097     A.U. after   10 cycles
 SCF Done:  E(RB3LYP) =  -838.087782022     A.U. after    9 cycles
 SCF Done:  E(RB3LYP) =  -838.087783344     A.U. after    8 cycles
 Optimization completed.
    -- Stationary point found.

 1\1\GINC-NODE378\FOpt\RB3LYP\6-31G(d)\C14H6O4\VSC10255\11-Dec-2020\0\\
 # opt freq B3LYP/6-31G(d) empiricaldispersion=gd3bj scf=xqc\\CID_15291
 835_JID_8559_neutraal\\0,1\C,2.7105458568,1.3121747421,0.0014580923\C,
 1.3669728491,1.5847870082,-0.1735007376\C,0.4362667747,0.5272049023,-0
 .287012993\C,-0.9550530518,0.6839779003,-0.4674231694\C,-1.8605423795,
 -0.3756098418,-0.5776738651\C,-1.3839253676,-1.7012623155,-0.508045162
 3\C,-0.0285947437,-1.9134843655,-0.3319035726\C,0.8893961637,-0.826023
 7856,-0.2202296898\C,2.2708735693,-1.0697084054,-0.0405766107\C,3.1663

 Normal termination of Gaussian 16 at Fri Dec 11 20:59:51 2020.

 --------------------------------------------------------------------
 #N Geom=AllCheck Guess=TCheck SCRF=Check GenChk RB3LYP/6-31G(d) Freq
 --------------------------------------------------------------------

 Structure from the checkpoint file:  "JID_8559.chk"
 ------------------------------
 CID_15291835_JID_8559_neutraal
 ------------------------------
 Charge =  0 Multiplicity = 1

 SCF Done:  E(RB3LYP) =  -838.087783344     A.U. after    1 cycles

  Exact polarizability: 226.440  13.915 188.183   0.001  -0.000  50.403
 Approx polarizability: 387.658  16.404 354.472   0.004   0.004  82.747

                      1                      2                      3
                      A                      A                      A
 Frequencies --     56.8365               111.3656               127.1801
 Red. masses --      9.8401                 7.6718                 6.7779
 Frc consts  --      0.0187                 0.0561                 0.0646
 IR Inten    --      0.0570                 1.2375                 0.4701

                      4                      5                      6
                      A                      A                      A
 Frequencies --    142.5821               200.9438               227.0218
 Red. masses --      8.1643                 4.9892                 6.8043
 Frc consts  --      0.0978                 0.1187                 0.2066
 IR Inten    --      4.5629                 0.0961                 3.6625

                      7                      8                      9
                      A                      A                      A
 Frequencies --    293.8506               311.9715               316.6885
 Red. masses --      5.0477                 6.7602                 6.2021
 Frc consts  --      0.2568                 0.3876                 0.3665
 IR Inten    --      0.5021                 6.8546                 2.8901

                     10                     11                     12
                      A                      A                      A
 Frequencies --    354.3817               388.3361               428.7906
 Red. masses --     11.4763                10.1224                10.4319
 Frc consts  --      0.8492                 0.8994                 1.1301
 IR Inten    --      3.8944                 2.1631                12.9161

                     13                     14                     15
                      A                      A                      A
 Frequencies --    452.6545               494.5392               516.7782
 Red. masses --      4.0683                 9.1039                 4.9454
 Frc consts  --      0.4911                 1.3118                 0.7781
 IR Inten    --      2.2041                 0.8249                 0.2130

                     16                     17                     18
                      A                      A                      A
 Frequencies --    536.1594               565.9225               576.3732
 Red. masses --      6.3212                 7.9898                 4.5339
 Frc consts  --      1.0706                 1.5076                 0.8874
 IR Inten    --      4.7749                 0.2630                 4.6160

                     19                     20                     21
                      A                      A                      A
 Frequencies --    610.1974               670.9274               694.6424
 Red. masses --      4.1215                 9.5748                 5.9968
 Frc consts  --      0.9042                 2.5394                 1.7049
 IR Inten    --      7.6276                 9.3498                19.5750

                     22                     23                     24
                      A                      A                      A
 Frequencies --    714.6549               739.0279               746.4978
 Red. masses --      7.2999                 3.0171                 4.0301
 Frc consts  --      2.1967                 0.9709                 1.3232
 IR Inten    --     13.3274                 5.4013                 1.1631

                     25                     26                     27
                      A                      A                      A
 Frequencies --    765.5252               769.0613               776.3402
 Red. masses --      3.2865                 6.5172                 1.9792
 Frc consts  --      1.1348                 2.2711                 0.7028
 IR Inten    --     52.8946                 5.7063                 5.6101

                     28                     29                     30
                      A                      A                      A
 Frequencies --    819.2136               831.1314               862.1061
 Red. masses --      6.7424                 1.8866                 1.3103
 Frc consts  --      2.6660                 0.7678                 0.5738
 IR Inten    --     11.1883                18.7627                 1.1113

                     31                     32                     33
                      A                      A                      A
 Frequencies --    873.6023               909.7200               944.3582
 Red. masses --      7.0113                 6.3928                 1.4225
 Frc consts  --      3.1526                 3.1172                 0.7474
 IR Inten    --      4.1730                 6.5572                11.1582

                     34                     35                     36
                      A                      A                      A
 Frequencies --    954.1885               996.7740              1026.8082
 Red. masses --      1.3682                 1.3204                 7.5772
 Frc consts  --      0.7340                 0.7729                 4.7069
 IR Inten    --      0.3016                 0.6137                47.8345

                     37                     38                     39
                      A                      A                      A
 Frequencies --   1058.9286              1068.0532              1098.5476
 Red. masses --      5.5974                 2.3720                 3.0624
 Frc consts  --      3.6980                 1.5942                 2.1775
 IR Inten    --     85.1018                48.4065                81.2537

                     40                     41                     42
                      A                      A                      A
 Frequencies --   1105.9480              1151.9094              1171.6443
 Red. masses --      2.4954                 1.9229                 3.2638
 Frc consts  --      1.7983                 1.5033                 2.6397
 IR Inten    --     41.7849                73.4453                52.9907

                     43                     44                     45
                      A                      A                      A
 Frequencies --   1194.9106              1223.0589              1237.2606
 Red. masses --      1.3680                 1.6022                 3.0280
 Frc consts  --      1.1508                 1.4121                 2.7311
 IR Inten    --     33.7951                29.3878                75.2743

                     46                     47                     48
                      A                      A                      A
 Frequencies --   1298.3656              1335.8567              1355.7432
 Red. masses --      2.3911                 3.1304                 2.9554
 Frc consts  --      2.3748                 3.2913                 3.2005
 IR Inten    --     59.3449               151.0749                13.9122

                     49                     50                     51
                      A                      A                      A
 Frequencies --   1398.3194              1442.3934              1445.7638
 Red. masses --      7.1227                 4.1391                 6.5140
 Frc consts  --      8.2055                 5.0737                 8.0222
 IR Inten    --     53.0058                10.4432                21.5933

                     52                     53                     54
                      A                      A                      A
 Frequencies --   1488.1699              1495.8153              1569.4751
 Red. masses --      4.7952                 2.6111                 5.0580
 Frc consts  --      6.2569                 3.4422                 7.3407
 IR Inten    --     25.2571                15.0707                10.6620

                     55                     56                     57
                      A                      A                      A
 Frequencies --   1588.2716              1625.3900              1645.1000
 Red. masses --      5.7875                 6.8728                 6.5566
 Frc consts  --      8.6018                10.6979                10.4548
 IR Inten    --      4.0134                31.2936                93.8790

                     58                     59                     60
                      A                      A                      A
 Frequencies --   1683.9913              1823.7635              1859.5580
 Red. masses --      8.1305                13.1060                13.0093
 Frc consts  --     13.5846                25.6837                26.5048
 IR Inten    --      0.1915               364.5458               408.8993

                     61                     62                     63
                      A                      A                      A
 Frequencies --   3206.2477              3221.4564              3232.3523
 Red. masses --      1.0873                 1.0937                 1.0915
 Frc consts  --      6.5859                 6.6873                 6.7192
 IR Inten    --      3.5431                 7.4879                 0.0631

                     64                     65                     66
                      A                      A                      A
 Frequencies --   3233.6470              3278.0745              3309.9768
 Red. masses --      1.0938                 1.0927                 1.1047
 Frc consts  --      6.7388                 6.9179                 7.1307
 IR Inten    --      2.5471                 1.5908                 0.1498

 - Thermochemistry -
 -------------------
 Temperature   298.150 Kelvin.  Pressure   1.00000 Atm.
 Atom     1 has atomic number  6 and mass  12.00000

 Molecular mass:   238.02661 amu.
 Principal axes and moments of inertia in atomic units:
                           1         2         3
     Eigenvalues --  2378.819334719.642167098.46146
           X            0.99970   0.02429  -0.00000
           Y           -0.02429   0.99970  -0.00000
           Z            0.00000   0.00000   1.00000
 This molecule is an asymmetric top.
 Rotational symmetry number  1.
 Warning -- assumption of classical behavior for rotation
           may cause significant error
 Rotational temperatures (Kelvin)      0.03641     0.01835     0.01220
 Rotational constants (GHZ):           0.75867     0.38239     0.25424
 Zero-point vibrational energy     440555.6 (Joules/Mol)
                                  105.29532 (Kcal/Mol)
 Warning -- explicit consideration of  19 degrees of freedom as
           vibrations may cause significant error
 Vibrational temperatures:     81.78   160.23   182.98   205.14   289.11
          (Kelvin)            326.63   422.79   448.86   455.64   509.88
                              558.73   616.93   651.27   711.53   743.53
                              771.41   814.24   829.27   877.94   965.31
                              999.44  1028.23  1063.30  1074.04  1101.42
                             1106.51  1116.98  1178.67  1195.81  1240.38
                             1256.92  1308.88  1358.72  1372.86  1434.14
                             1477.35  1523.56  1536.69  1580.56  1591.21
                             1657.34  1685.73  1719.21  1759.71  1780.14
                             1868.06  1922.00  1950.61  2011.87  2075.28
                             2080.13  2141.14  2152.14  2258.12  2285.17
                             2338.57  2366.93  2422.89  2623.99  2675.49
                             4613.08  4634.96  4650.63  4652.50  4716.42
                             4762.32

 Zero-point correction=                           0.167799 (Hartree/Particle)
 Thermal correction to Energy=                    0.179734
 Thermal correction to Enthalpy=                  0.180678
 Thermal correction to Gibbs Free Energy=         0.129394
 Sum of electronic and zero-point Energies=           -837.919985
 Sum of electronic and thermal Energies=              -837.908049
 Sum of electronic and thermal Enthalpies=            -837.907105
 Sum of electronic and thermal Free Energies=         -837.958390

                     E (Thermal)             CV                S
                      KCal/Mol        Cal/Mol-Kelvin    Cal/Mol-Kelvin
 Total                  112.785             48.884            107.937
 Electronic               0.000              0.000              0.000
 Translational            0.889              2.981             42.303
 Rotational               0.889              2.981             32.744
 Vibrational            111.007             42.922             32.890
 Vibration     1          0.596              1.975              4.564
 Vibration     2          0.607              1.940              3.245
 Vibration     3          0.611              1.926              2.988
 Vibration     4          0.616              1.911              2.769
 Vibration     5          0.638              1.839              2.124
 Vibration     6          0.651              1.800              1.902
 Vibration     7          0.689              1.685              1.452
 Vibration     8          0.700              1.651              1.352
 Vibration     9          0.704              1.642              1.327
 Vibration    10          0.730              1.566              1.147
 Vibration    11          0.757              1.495              1.007
 Vibration    12          0.790              1.408              0.863
 Vibration    13          0.811              1.355              0.788
 Vibration    14          0.850              1.262              0.672
 Vibration    15          0.872              1.213              0.617
 Vibration    16          0.891              1.170              0.574
 Vibration    17          0.922              1.105              0.512
 Vibration    18          0.933              1.082              0.492
 Vibration    19          0.969              1.010              0.432

 Optimization completed.
    -- Stationary point found.

 1\1\GINC-NODE378\Freq\RB3LYP\6-31G(d)\C14H6O4\VSC10255\11-Dec-2020\0\\
 #N Geom=AllCheck Guess=TCheck SCRF=Check GenChk RB3LYP/6-31G(d) Freq\\
 CID_15291835_JID_8559_neutraal\\0,1\C,2.7105458568,1.3121747421,0.0014
 580923\C,1.3669728491,1.5847870082,-0.1735007376\C,0.4362667747,0.5272
 049023,-0.287012993\C,-0.9550530518,0.6839779003,-0.4674231694\C,-1.86
 05423795,-0.3756098418,-0.5776738651\C,-1.3839253676,-1.7012623155,-0.
 5080451623\C,-0.0285947437,-1.9134843655,-0.3319035726\C,0.8893961637,
 -0.8260237856,-0.2202296898\C,2.2708735693,-1.0697084054,-0.0405766107

 Normal termination of Gaussian 16 at Fri Dec 11 21:08:50 2020.

 ----------------------------------------------------------------------
 # B3LYP/6-311++G(d,p) empiricaldispersion=gd3bj scf=xqc pop=npa geom=c
 heck
 ----------------------------------------------------------------------

 --------------------------------------
 CID_15291835_JID_8559_Energie_neutraal
 --------------------------------------
 Structure from the checkpoint file:  "JID_8559.chk"
 Charge =  0 Multiplicity = 1

 SCF Done:  E(RB3LYP) =  -838.304175761     A.U. after   15 cycles
 Normal termination of Gaussian 16 at Fri Dec 11 21:11:51 2020.

 ----------------------------------------------------------------------
 # B3LYP/6-311++G(d,p) empiricaldispersion=gd3bj scf=xqc pop=npa geom=c
 heck
 ----------------------------------------------------------------------

 ------------------------------------
 CID_15291835_JID_8559_Energie_kation
 ------------------------------------
 Structure from the checkpoint file:  "JID_8559.chk"
 Charge =  1 Multiplicity = 2

 SCF Done:  E(UB3LYP) =  -837.991092031     A.U. after   24 cycles
 Normal termination of Gaussian 16 at Fri Dec 11 21:18:49 2020.
 Gaussian 16:  ES64L-G16RevA.03 25-Dec-2016

 -----------------------------------
 CID_15291835_JID_8559_Energie_anion
 -----------------------------------
 Structure from the checkpoint file:  "JID_8559.chk"
 Charge = -1 Multiplicity = 2

                         Standard orientation:
 ---------------------------------------------------------------------
 Center     Atomic      Atomic             Coordinates (Angstroms)
 Number     Number       Type             X           Y           Z
 ---------------------------------------------------------------------
      1          6           0        0.583693    3.073677   -0.000091
      2          6           0       -0.668811    2.489426   -0.000061
      3          6           0       -0.796259    1.081826   -0.000014
      4          6           0       -2.018732    0.375811    0.000012
      5          6           0       -2.124521   -1.018320    0.000055
      6          6           0       -0.950415   -1.799884    0.000059
      7          6           0        0.275775   -1.160007    0.000066
      8          6           0        0.375157    0.264026    0.000004
      9          6           0        1.641250    0.894223   -0.000043
     10          6           0        1.743205    2.276576   -0.000069
     11          6           0        2.872324    0.077553   -0.000127
     12          8           0        3.993455    0.519559    0.000298
     13          8           0        2.716875   -1.300021    0.000007
     14          6           0        1.504082   -1.976681    0.000180
     15          8           0        1.534394   -3.181774   -0.000332
     16          6           0       -3.539813   -1.299600    0.000063
     17          6           0       -4.160392   -0.093965    0.000033
     18          8           0       -3.252959    0.944931   -0.000010
     19          1           0        0.676701    4.154983   -0.000146
     20          1           0       -1.567028    3.098482   -0.000071
     21          1           0       -0.981505   -2.883885    0.000090
     22          1           0        2.731035    2.724034   -0.000100
     23          1           0       -4.015962   -2.269423    0.000098
     24          1           0       -5.196619    0.206277    0.000033
 ---------------------------------------------------------------------

 SCF Done:  E(UB3LYP) =  -838.357551912     A.U. after   21 cycles

 The electronic state is 2-A.
 Alpha  occ. eigenvalues --  -19.08364 -19.04098 -18.96953 -18.96558 -10.16424
 Alpha  occ. eigenvalues --  -10.15948 -10.13177 -10.11015 -10.08029 -10.07283
 Alpha  occ. eigenvalues --  -10.07191 -10.06892 -10.05522 -10.05441 -10.05357
 Alpha  occ. eigenvalues --  -10.05018 -10.05003 -10.04772  -1.00938  -0.98330
 Alpha  occ. eigenvalues --   -0.91989  -0.87550  -0.76323  -0.72059  -0.68484
 Alpha  occ. eigenvalues --   -0.67051  -0.62306  -0.61795  -0.55655  -0.53539
 Alpha  occ. eigenvalues --   -0.50807  -0.50298  -0.48195  -0.44269  -0.41829
 Alpha  occ. eigenvalues --   -0.40169  -0.38666  -0.36482  -0.35891  -0.34511
 Alpha  occ. eigenvalues --   -0.34483  -0.33013  -0.31739  -0.31073  -0.30421
 Alpha  occ. eigenvalues --   -0.30002  -0.28793  -0.27587  -0.27176  -0.26583
 Alpha  occ. eigenvalues --   -0.25581  -0.22498  -0.21949  -0.21820  -0.18655
 Alpha  occ. eigenvalues --   -0.17959  -0.16646  -0.16173  -0.13887  -0.12370
 Alpha  occ. eigenvalues --   -0.10747   0.00349
 Alpha virt. eigenvalues --    0.07091   0.07393   0.08706   0.09292   0.09318
 Alpha virt. eigenvalues --    0.10915   0.11589   0.11850   0.13072   0.13704
 Alpha virt. eigenvalues --    0.14519   0.14642   0.14842   0.15754   0.16721

  Beta  occ. eigenvalues --  -19.08298 -19.04162 -18.96767 -18.96306 -10.16309
  Beta  occ. eigenvalues --  -10.15821 -10.13230 -10.10745 -10.07996 -10.07319
  Beta  occ. eigenvalues --  -10.07274 -10.06972 -10.05482 -10.05467 -10.05047
  Beta  occ. eigenvalues --  -10.04891 -10.04677 -10.04559  -1.00794  -0.98218
  Beta  occ. eigenvalues --   -0.91609  -0.87287  -0.76113  -0.71837  -0.68295
  Beta  occ. eigenvalues --   -0.66705  -0.61905  -0.61535  -0.55215  -0.53214
  Beta  occ. eigenvalues --   -0.50566  -0.50073  -0.47983  -0.44165  -0.41684
  Beta  occ. eigenvalues --   -0.39961  -0.38489  -0.36290  -0.35423  -0.34324
  Beta  occ. eigenvalues --   -0.33929  -0.32823  -0.31593  -0.30898  -0.30296
  Beta  occ. eigenvalues --   -0.29856  -0.28652  -0.27033  -0.26423  -0.26090
  Beta  occ. eigenvalues --   -0.25479  -0.22368  -0.21836  -0.20985  -0.18011
  Beta  occ. eigenvalues --   -0.17428  -0.15981  -0.15601  -0.13670  -0.11550
  Beta  occ. eigenvalues --   -0.09368
  Beta virt. eigenvalues --    0.05649   0.07084   0.08082   0.08683   0.09274
  Beta virt. eigenvalues --    0.10548   0.10916   0.11844   0.12138   0.13059
  Beta virt. eigenvalues --    0.13789   0.14633   0.14840   0.15316   0.15801

 Mulliken charges and spin densities:
               1          2
     1  C   -0.335148  -0.033708
     2  C   -0.081812   0.255888
     3  C    0.050985  -0.105793
     4  C   -0.495635   0.176207
     5  C    0.248991  -0.072744
     6  C   -0.544812   0.266765
     7  C    0.147362   0.003668
     8  C    0.095530  -0.006728
     9  C    0.353010   0.076549
    10  C   -0.493646   0.180223
    11  C    0.054485   0.073209
    12  O   -0.353029   0.091200
    13  O   -0.239610  -0.018985
    14  C    0.002008   0.074744
    15  O   -0.343942   0.068083
    16  C    0.233456   0.041497
    17  C   -0.032914  -0.036493
    18  O   -0.078094   0.016054
    19  H    0.128853   0.001158
    20  H    0.115276  -0.019564
    21  H    0.128245  -0.019857
    22  H    0.143715  -0.012978
    23  H    0.146122  -0.000881
    24  H    0.150605   0.002489
 Sum of Mulliken charges =  -1.00000   1.00000

 Dipole moment (field-independent basis, Debye):
    X=             -8.1256    Y=              2.4128    Z=              0.0002  Tot=              8.4762
 Quadrupole moment (field-independent basis, Debye-Ang):
   XX=           -142.4865   YY=           -128.3289   ZZ=           -108.0272
   XY=              8.9262   XZ=             -0.0019   YZ=             -0.0035

 Summary of Natural Population Analysis:

                                       Natural Population
                Natural  -----------------------------------------------
    Atom  No    Charge         Core      Valence    Rydberg      Total
 -----------------------------------------------------------------------
      C    1   -0.12695      0.99960     2.11702    0.01033     3.12695
      C    2   -0.01328      0.99945     2.00513    0.00871     3.01328
      C    3   -0.08357      0.99941     2.07194    0.01222     3.08357
      C    4    0.21902      0.99934     1.76842    0.01322     2.78098
      C    5   -0.08771      0.99950     2.07857    0.00964     3.08771
      C    6    0.00867      0.99943     1.98301    0.00889     2.99133
      C    7   -0.09717      0.99942     2.08580    0.01196     3.09717
      C    8    0.05188      0.99951     1.94147    0.00714     2.94812
      C    9   -0.08234      0.99948     2.07027    0.01259     3.08234
      C   10   -0.02735      0.99955     2.01871    0.00910     3.02735
      C   11    0.41392      0.99961     1.56315    0.02332     2.58608
      O   12   -0.27469      0.99987     3.26839    0.00644     4.27469
      O   13   -0.29379      0.99984     3.28155    0.01241     4.29379
      C   14    0.41329      0.99960     1.56369    0.02341     2.58671
      O   15   -0.28436      0.99987     3.27774    0.00675     4.28436
      C   16   -0.13328      0.99953     2.12576    0.00799     3.13328
      C   17    0.04037      0.99951     1.94623    0.01389     2.95963
      O   18   -0.23417      0.99986     3.22533    0.00897     4.23417
      H   19    0.09312      0.00000     0.40581    0.00108     0.40688
      H   20    0.09428      0.00000     0.40406    0.00167     0.40572
      H   21    0.10406      0.00000     0.39397    0.00197     0.39594
      H   22    0.10428      0.00000     0.39456    0.00116     0.39572
      H   23    0.10533      0.00000     0.39382    0.00085     0.39467
      H   24    0.09050      0.00000     0.40857    0.00092     0.40950
 =======================================================================
   * Total *    0.00007     17.99237    42.79294    0.21461    60.99993

 Normal termination of Gaussian 16 at Fri Dec 11 21:24:31 2020.
