 Gaussian 16, Revision A.03,

 -----------------------------------------------------------
 # opt freq B3LYP/6-31G(d) empiricaldispersion=gd3bj scf=xqc
 -----------------------------------------------------------

 -------------------------------
 CID_148889499_JID_1155_neutraal
 -------------------------------
 Symbolic Z-matrix:
 Charge =  0 Multiplicity = 1

 SCF Done:  E(RB3LYP) =  -1521.51444351     A.U. after   15 cycles
 SCF Done:  E(RB3LYP) =  -1521.39483628     A.U. after   16 cycles
 SCF Done:  E(RB3LYP) =  -1521.51616452     A.U. after   14 cycles
 SCF Done:  E(RB3LYP) =  -1521.51934893     A.U. after   13 cycles
 SCF Done:  E(RB3LYP) =  -1521.52162129     A.U. after   15 cycles
 SCF Done:  E(RB3LYP) =  -1521.52245064     A.U. after   13 cycles
 SCF Done:  E(RB3LYP) =  -1521.52259929     A.U. after   13 cycles
 SCF Done:  E(RB3LYP) =  -1521.52319673     A.U. after   12 cycles
 SCF Done:  E(RB3LYP) =  -1521.52356174     A.U. after   12 cycles
 SCF Done:  E(RB3LYP) =  -1521.52402977     A.U. after   12 cycles
 SCF Done:  E(RB3LYP) =  -1521.52424332     A.U. after   12 cycles
 SCF Done:  E(RB3LYP) =  -1521.52437360     A.U. after   12 cycles
 SCF Done:  E(RB3LYP) =  -1521.52443096     A.U. after   11 cycles
 SCF Done:  E(RB3LYP) =  -1521.52443703     A.U. after   11 cycles
 SCF Done:  E(RB3LYP) =  -1521.52443766     A.U. after    8 cycles
 Optimization completed.
    -- Stationary point found.
 Normal termination of Gaussian 16 at Tue Dec  8 19:15:41 2020.

 --------------------------------------------------------------------
 #N Geom=AllCheck Guess=TCheck SCRF=Check GenChk RB3LYP/6-31G(d) Freq
 --------------------------------------------------------------------

 Structure from the checkpoint file:  "JID_1155.chk"
 -------------------------------
 CID_148889499_JID_1155_neutraal
 -------------------------------
 Charge =  0 Multiplicity = 1

 SCF Done:  E(RB3LYP) =  -1521.52443766     A.U. after    1 cycles

  Exact polarizability: 173.952 -10.642 115.067  11.074   9.630  95.726
 Approx polarizability: 249.584 -15.709 194.498  31.943  28.293 169.701

                      1                      2                      3
                      A                      A                      A
 Frequencies --     37.1547                43.5895                69.3096
 Red. masses --      5.8747                 4.7023                 5.3098
 Frc consts  --      0.0048                 0.0053                 0.0150
 IR Inten    --      0.1405                 1.7408                 2.7269

                      4                      5                      6
                      A                      A                      A
 Frequencies --    139.5754               155.7949               189.8421
 Red. masses --      7.3555                 5.4802                 2.4108
 Frc consts  --      0.0844                 0.0784                 0.0512
 IR Inten    --      1.5545                 1.5598                 7.2418

                      7                      8                      9
                      A                      A                      A
 Frequencies --    209.4687               253.9057               270.7221
 Red. masses --      1.4884                 8.2060                 1.1343
 Frc consts  --      0.0385                 0.3117                 0.0490
 IR Inten    --     12.7370                 3.1735                 0.5895

                     10                     11                     12
                      A                      A                      A
 Frequencies --    307.8437               324.6581               412.7924
 Red. masses --      7.2580                 2.7813                 3.5674
 Frc consts  --      0.4053                 0.1727                 0.3582
 IR Inten    --      4.2946                 0.4233                 3.6533

                     13                     14                     15
                      A                      A                      A
 Frequencies --    428.3113               442.0476               487.8501
 Red. masses --     11.5372                 4.7029                 3.3574
 Frc consts  --      1.2470                 0.5414                 0.4708
 IR Inten    --      2.6464                 4.4145                 2.2061

                     16                     17                     18
                      A                      A                      A
 Frequencies --    512.7216               585.2592               629.9025
 Red. masses --     17.3410                 3.9544                 7.4115
 Frc consts  --      2.6859                 0.7981                 1.7326
 IR Inten    --      1.5687                 2.5869                 2.5514

                     19                     20                     21
                      A                      A                      A
 Frequencies --    702.9242               735.6731               750.7904
 Red. masses --      4.3994                 6.9222                 4.2544
 Frc consts  --      1.2807                 2.2073                 1.4129
 IR Inten    --      6.4031                17.7780                 0.3083

                     22                     23                     24
                      A                      A                      A
 Frequencies --    776.9724               900.8285               908.4788
 Red. masses --      1.3080                 1.2396                 1.2249
 Frc consts  --      0.4652                 0.5927                 0.5957
 IR Inten    --     41.4556                 2.6815                 0.5146

                     25                     26                     27
                      A                      A                      A
 Frequencies --    973.7368              1005.9595              1006.8964
 Red. masses --      1.3871                 1.4059                 2.7761
 Frc consts  --      0.7749                 0.8382                 1.6583
 IR Inten    --      0.1500                 1.5278                 2.4972

                     28                     29                     30
                      A                      A                      A
 Frequencies --   1007.8407              1075.2781              1084.0967
 Red. masses --      1.8176                 2.6146                 1.4237
 Frc consts  --      1.0878                 1.7812                 0.9858
 IR Inten    --      3.7359                 5.1843                10.9470

                     31                     32                     33
                      A                      A                      A
 Frequencies --   1096.8252              1117.2665              1152.8660
 Red. masses --      2.3290                 1.8538                 2.5308
 Frc consts  --      1.6508                 1.3634                 1.9818
 IR Inten    --      0.1424                12.2049                59.1822

                     34                     35                     36
                      A                      A                      A
 Frequencies --   1188.1266              1233.3087              1312.6584
 Red. masses --      1.1501                 1.2121                 1.2623
 Frc consts  --      0.9565                 1.0863                 1.2815
 IR Inten    --      1.1142                28.3211                13.5904

                     37                     38                     39
                      A                      A                      A
 Frequencies --   1318.9122              1322.7261              1437.8892
 Red. masses --      7.0635                 1.4709                 1.2211
 Frc consts  --      7.2394                 1.5162                 1.4875
 IR Inten    --      1.0423                 1.4432                 8.5052

                     40                     41                     42
                      A                      A                      A
 Frequencies --   1467.6255              1500.3233              1515.2278
 Red. masses --      2.0711                 2.0555                 1.0390
 Frc consts  --      2.6284                 2.7261                 1.4055
 IR Inten    --     74.0048                60.0003                 7.8252

                     43                     44                     45
                      A                      A                      A
 Frequencies --   1523.9042              1627.5228              1635.4136
 Red. masses --      1.0462                 5.9327                 5.0729
 Frc consts  --      1.4314                 9.2588                 7.9940
 IR Inten    --      3.7057                38.7345                88.2983

                     46                     47                     48
                      A                      A                      A
 Frequencies --   2658.2105              3057.0452              3078.8563
 Red. masses --      1.0384                 1.0362                 1.0850
 Frc consts  --      4.3230                 5.7058                 6.0598
 IR Inten    --     41.4754                20.9356                 4.3996

                     49                     50                     51
                      A                      A                      A
 Frequencies --   3124.4773              3152.0863              3182.1030
 Red. masses --      1.1023                 1.1023                 1.0891
 Frc consts  --      6.3400                 6.4529                 6.4974
 IR Inten    --     14.6159                 7.4207                24.8702

                     52                     53                     54
                      A                      A                      A
 Frequencies --   3198.6865              3221.1137              3237.8504
 Red. masses --      1.0892                 1.0958                 1.0930
 Frc consts  --      6.5663                 6.6988                 6.7510
 IR Inten    --     11.6660                20.4146                 1.3930

 - Thermochemistry -
 -------------------
 Temperature   298.150 Kelvin.  Pressure   1.00000 Atm.
 Atom     1 has atomic number  6 and mass  12.00000

 Molecular mass:   202.98971 amu.
 Principal axes and moments of inertia in atomic units:
                           1         2         3
     Eigenvalues --  1388.230913820.091794377.13314
           X            0.99986  -0.00821  -0.01442
           Y            0.00861   0.99958   0.02767
           Z            0.01419  -0.02779   0.99951
 This molecule is an asymmetric top.
 Rotational symmetry number  1.
 Warning -- assumption of classical behavior for rotation
           may cause significant error
 Rotational temperatures (Kelvin)      0.06239     0.02267     0.01979
 Rotational constants (GHZ):           1.30003     0.47243     0.41231
 Zero-point vibrational energy     387537.7 (Joules/Mol)
                                   92.62374 (Kcal/Mol)
 Warning -- explicit consideration of  17 degrees of freedom as
           vibrations may cause significant error
 Vibrational temperatures:     53.46    62.72    99.72   200.82   224.15
          (Kelvin)            273.14   301.38   365.31   389.51   442.92
                              467.11   593.92   616.24   636.01   701.91
                              737.69   842.06   906.29  1011.35  1058.47
                             1080.22  1117.89  1296.09  1307.10  1400.99
                             1447.35  1448.70  1450.06  1547.09  1559.77
                             1578.09  1607.50  1658.72  1709.45  1774.46
                             1888.62  1897.62  1903.11  2068.80  2111.59
                             2158.63  2180.07  2192.56  2341.64  2353.00
                             3824.57  4398.41  4429.79  4495.43  4535.15
                             4578.34  4602.20  4634.46  4658.54

 Zero-point correction=                           0.147605 (Hartree/Particle)
 Thermal correction to Energy=                    0.159574
 Thermal correction to Enthalpy=                  0.160518
 Thermal correction to Gibbs Free Energy=         0.107927
 Sum of electronic and zero-point Energies=          -1521.376832
 Sum of electronic and thermal Energies=             -1521.364863
 Sum of electronic and thermal Enthalpies=           -1521.363919
 Sum of electronic and thermal Free Energies=        -1521.416510

                     E (Thermal)             CV                S
                      KCal/Mol        Cal/Mol-Kelvin    Cal/Mol-Kelvin
 Total                  100.134             43.110            110.687
 Electronic               0.000              0.000              0.000
 Translational            0.889              2.981             41.828
 Rotational               0.889              2.981             31.518
 Vibrational             98.357             37.148             37.341
 Vibration     1          0.594              1.982              5.405
 Vibration     2          0.595              1.980              5.089
 Vibration     3          0.598              1.969              4.173
 Vibration     4          0.615              1.914              2.810
 Vibration     5          0.620              1.896              2.600
 Vibration     6          0.633              1.854              2.229
 Vibration     7          0.642              1.826              2.048
 Vibration     8          0.665              1.756              1.703
 Vibration     9          0.674              1.727              1.592
 Vibration    10          0.698              1.659              1.374
 Vibration    11          0.709              1.626              1.287
 Vibration    12          0.777              1.442              0.917
 Vibration    13          0.790              1.409              0.864
 Vibration    14          0.802              1.378              0.820
 Vibration    15          0.844              1.277              0.689
 Vibration    16          0.868              1.222              0.627
 Vibration    17          0.942              1.063              0.476

                           ! Non-Optimized Parameters !
 Normal termination of Gaussian 16 at Tue Dec  8 19:19:30 2020.

 ----------------------------------------------------------------------
 # B3LYP/6-311++G(d,p) empiricaldispersion=gd3bj scf=xqc pop=npa geom=c
 heck
 ----------------------------------------------------------------------

 ---------------------------------------
 CID_148889499_JID_1155_Energie_neutraal
 ---------------------------------------
 Structure from the checkpoint file:  "JID_1155.chk"
 Charge =  0 Multiplicity = 1

 SCF Done:  E(RB3LYP) =  -1521.69546426     A.U. after   15 cycles
 Normal termination of Gaussian 16 at Tue Dec  8 19:21:21 2020.

 ----------------------------------------------------------------------
 # B3LYP/6-311++G(d,p) empiricaldispersion=gd3bj scf=xqc pop=npa geom=c
 heck
 ----------------------------------------------------------------------

 -------------------------------------
 CID_148889499_JID_1155_Energie_kation
 -------------------------------------
 Structure from the checkpoint file:  "JID_1155.chk"
 Charge =  1 Multiplicity = 2

 SCF Done:  E(UB3LYP) =  -1521.39144876     A.U. after   28 cycles
 Normal termination of Gaussian 16 at Tue Dec  8 19:26:19 2020.
 Gaussian 16:  ES64L-G16RevA.03 25-Dec-2016

 ----------------------------------------------------------------------
 # B3LYP/6-311++G(d,p) empiricaldispersion=gd3bj scf=xqc pop=npa geom=c
 heck
 ----------------------------------------------------------------------

 ------------------------------------
 CID_148889499_JID_1155_Energie_anion
 ------------------------------------
 Structure from the checkpoint file:  "JID_1155.chk"
 Charge = -1 Multiplicity = 2

                         Standard orientation:
 ---------------------------------------------------------------------
 Center     Atomic      Atomic             Coordinates (Angstroms)
 Number     Number       Type             X           Y           Z
 ---------------------------------------------------------------------
      1          6           0        3.181209   -0.327418   -1.107079
      2          6           0        2.562103    0.376175    0.092157
      3         16           0        1.532309    1.836317   -0.381428
      4         16           0        1.569146   -0.752301    1.170504
      5         16           0        0.173435   -1.602760   -0.105097
      6          6           0       -1.294979   -0.558969    0.001215
      7          6           0       -1.460802    0.517326    0.875713
      8          6           0       -2.672739    1.199696    0.825584
      9          6           0       -3.658657    0.784697   -0.071060
     10          6           0       -3.384784   -0.311796   -0.885631
     11          7           0       -2.223346   -0.976485   -0.855885
     12          1           0        2.401942   -0.699058   -1.777545
     13          1           0        3.794793   -1.170467   -0.773009
     14          1           0        3.818379    0.366005   -1.667333
     15          1           0        3.337395    0.708539    0.790891
     16          1           0        2.440492    2.381172   -1.222432
     17          1           0       -0.674805    0.807203    1.561886
     18          1           0       -2.844300    2.046940    1.483555
     19          1           0       -4.614363    1.294101   -0.137049
     20          1           0       -4.122468   -0.677404   -1.596827
 ---------------------------------------------------------------------

 SCF Done:  E(UB3LYP) =  -1521.68750990     A.U. after   33 cycles
 SCF Done:  E(UB3LYP) =  -1521.68750990     a.u. after    1 cycles

 The electronic state is 2-A.
 Alpha  occ. eigenvalues --  -88.75882 -88.75788 -88.72661 -14.18293 -10.12754
 Alpha  occ. eigenvalues --  -10.11796 -10.08397 -10.06322 -10.06182 -10.06113
 Alpha  occ. eigenvalues --  -10.05560  -7.84373  -7.84262  -7.81351  -5.80829
 Alpha  occ. eigenvalues --   -5.80735  -5.80382  -5.80233  -5.79699  -5.79617
 Alpha  occ. eigenvalues --   -5.77737  -5.77379  -5.76713  -0.83132  -0.72936
 Alpha  occ. eigenvalues --   -0.68580  -0.67905  -0.63132  -0.59584  -0.56452
 Alpha  occ. eigenvalues --   -0.51678  -0.49634  -0.45616  -0.39976  -0.36817
 Alpha  occ. eigenvalues --   -0.35764  -0.34461  -0.32562  -0.32303  -0.30175
 Alpha  occ. eigenvalues --   -0.29291  -0.28834  -0.27702  -0.25480  -0.23785
 Alpha  occ. eigenvalues --   -0.22471  -0.21276  -0.18541  -0.16833  -0.15428
 Alpha  occ. eigenvalues --   -0.13514  -0.12793  -0.11703   0.04900
 Alpha virt. eigenvalues --    0.06737   0.07609   0.07868   0.09116   0.09483
 Alpha virt. eigenvalues --    0.09628   0.10138   0.10799   0.11401   0.12242
 Alpha virt. eigenvalues --    0.12492   0.13659   0.14091   0.14536   0.15153

  Beta  occ. eigenvalues --  -88.75873 -88.75780 -88.72635 -14.18041 -10.12723
  Beta  occ. eigenvalues --  -10.11820 -10.08255 -10.06378 -10.06147 -10.05868
  Beta  occ. eigenvalues --  -10.05475  -7.84362  -7.84255  -7.81324  -5.80814
  Beta  occ. eigenvalues --   -5.80716  -5.80375  -5.80227  -5.79693  -5.79606
  Beta  occ. eigenvalues --   -5.77672  -5.77363  -5.76695  -0.82778  -0.72872
  Beta  occ. eigenvalues --   -0.68286  -0.67701  -0.62969  -0.59463  -0.56370
  Beta  occ. eigenvalues --   -0.51322  -0.49401  -0.45479  -0.39875  -0.36657
  Beta  occ. eigenvalues --   -0.35657  -0.34317  -0.32484  -0.32197  -0.30075
  Beta  occ. eigenvalues --   -0.28801  -0.28471  -0.27601  -0.25379  -0.23691
  Beta  occ. eigenvalues --   -0.22356  -0.21140  -0.18029  -0.15679  -0.15237
  Beta  occ. eigenvalues --   -0.13377  -0.12720  -0.11385
  Beta virt. eigenvalues --    0.07664   0.07798   0.08159   0.09119   0.09299
  Beta virt. eigenvalues --    0.09467   0.10272   0.10662   0.10934   0.11613
  Beta virt. eigenvalues --    0.12223   0.12808   0.13704   0.14033   0.14730

 Mulliken charges and spin densities:
               1          2
     1  C    0.524206  -1.285250
     2  C   -0.170561   0.352565
     3  S    0.361952  -0.663522
     4  S    0.433835  -0.220525
     5  S   -0.328289  -0.058992
     6  C   -0.333360  -0.086736
     7  C    0.531311   0.076061
     8  C   -0.745183   0.202200
     9  C    0.024298  -0.015075
    10  C   -0.200651   0.122053
    11  N    0.055244   0.109473
    12  H    0.056603   0.093172
    13  H   -0.033029   0.152174
    14  H   -0.372997   0.518809
    15  H   -0.743560   1.033639
    16  H   -0.530808   0.615410
    17  H    0.062285   0.060386
    18  H    0.138137  -0.004647
    19  H    0.117992   0.007097
    20  H    0.152576  -0.008292
 Sum of Mulliken charges =  -1.00000   1.00000

 Dipole moment (field-independent basis, Debye):
    X=             -5.3610    Y=             -1.4523    Z=              1.2833  Tot=              5.7005
 Quadrupole moment (field-independent basis, Debye-Ang):
   XX=           -145.8969   YY=           -115.1693   ZZ=           -109.5555
   XY=            -15.6823   XZ=              1.6673   YZ=              3.1730

 Summary of Natural Population Analysis:

                                       Natural Population
                Natural  -----------------------------------------------
    Atom  No    Charge         Core      Valence    Rydberg      Total
 -----------------------------------------------------------------------
      C    1   -0.29797      0.99961     2.28931    0.00905     3.29797
      C    2   -0.23699      0.99960     2.22064    0.01674     3.23699
      S    3   -0.01096      4.99960     2.99445    0.01691     8.01096
      S    4    0.04742      4.99960     2.93025    0.02273     7.95258
      S    5    0.06951      4.99956     2.90618    0.02474     7.93049
      C    6    0.03655      0.99945     1.94667    0.01733     2.96345
      C    7   -0.12172      0.99947     2.11382    0.00844     3.12172
      C    8   -0.03871      0.99957     2.03032    0.00883     3.03871
      C    9   -0.14670      0.99957     2.13855    0.00858     3.14670
      C   10    0.04889      0.99960     1.93702    0.01450     2.95111
      N   11   -0.21979      0.99964     2.70805    0.01210     3.71979
      H   12    0.10758      0.00000     0.39100    0.00142     0.39242
      H   13    0.10214      0.00000     0.39643    0.00143     0.39786
      H   14    0.10629      0.00000     0.39148    0.00224     0.39371
      H   15    0.10865      0.00000     0.38708    0.00427     0.39135
      H   16    0.06487      0.00000     0.43010    0.00503     0.43513
      H   17    0.11093      0.00000     0.38743    0.00164     0.38907
      H   18    0.09250      0.00000     0.40627    0.00122     0.40750
      H   19    0.09585      0.00000     0.40301    0.00115     0.40415
      H   20    0.08168      0.00000     0.41710    0.00122     0.41832
 =======================================================================
   * Total *    0.00000     22.99528    29.82515    0.17957    53.00000

 Normal termination of Gaussian 16 at Tue Dec  8 19:32:17 2020.
