 Gaussian 16, Revision A.03,

 -----------------------------------------------------------
 # opt freq B3LYP/6-31G(d) empiricaldispersion=gd3bj scf=xqc
 -----------------------------------------------------------

 -------------------------------
 CID_131177043_JID_3360_neutraal
 -------------------------------
 Symbolic Z-matrix:
 Charge =  0 Multiplicity = 1

 SCF Done:  E(RB3LYP) =  -561.768167281     A.U. after   13 cycles
 SCF Done:  E(RB3LYP) =  -561.779893304     A.U. after   11 cycles
 SCF Done:  E(RB3LYP) =  -561.776210357     A.U. after   11 cycles
 SCF Done:  E(RB3LYP) =  -561.782970863     A.U. after   11 cycles
 SCF Done:  E(RB3LYP) =  -561.784104799     A.U. after   11 cycles
 SCF Done:  E(RB3LYP) =  -561.785939623     A.U. after   11 cycles
 SCF Done:  E(RB3LYP) =  -561.785474558     A.U. after   11 cycles
 SCF Done:  E(RB3LYP) =  -561.787127151     A.U. after   10 cycles
 SCF Done:  E(RB3LYP) =  -561.788002354     A.U. after   11 cycles
 SCF Done:  E(RB3LYP) =  -561.788362931     A.U. after   11 cycles
 SCF Done:  E(RB3LYP) =  -561.788562399     A.U. after    8 cycles
 SCF Done:  E(RB3LYP) =  -561.788567702     A.U. after    9 cycles
 SCF Done:  E(RB3LYP) =  -561.788570866     A.U. after    9 cycles
 SCF Done:  E(RB3LYP) =  -561.788571701     A.U. after    9 cycles
 SCF Done:  E(RB3LYP) =  -561.788571911     A.U. after    7 cycles
 SCF Done:  E(RB3LYP) =  -561.788571864     A.U. after    7 cycles
 Optimization completed.
    -- Stationary point found.
 Normal termination of Gaussian 16 at Wed Dec  9 23:10:40 2020.

 --------------------------------------------------------------------
 #N Geom=AllCheck Guess=TCheck SCRF=Check GenChk RB3LYP/6-31G(d) Freq
 --------------------------------------------------------------------

 Structure from the checkpoint file:  "JID_3360.chk"
 -------------------------------
 CID_131177043_JID_3360_neutraal
 -------------------------------
 Charge =  0 Multiplicity = 1

 SCF Done:  E(RB3LYP) =  -561.788571864     A.U. after    1 cycles

  Exact polarizability: 130.012   0.355 119.149  -0.996   1.633 111.100
 Approx polarizability: 167.078   5.293 167.859  -2.881  -0.555 165.431

                      1                      2                      3
                      A                      A                      A
 Frequencies --     42.1489                74.9468                99.7439
 Red. masses --      3.2974                 5.0364                 2.5989
 Frc consts  --      0.0035                 0.0167                 0.0152
 IR Inten    --      0.5725                 5.6178                 0.4995

                      4                      5                      6
                      A                      A                      A
 Frequencies --    116.4256               175.9983               196.2128
 Red. masses --      3.4808                 2.3814                 1.9800
 Frc consts  --      0.0278                 0.0435                 0.0449
 IR Inten    --      3.8846                 3.3774                 0.1575

                      7                      8                      9
                      A                      A                      A
 Frequencies --    224.9731               244.1973               246.3873
 Red. masses --      3.0555                 1.2493                 1.1902
 Frc consts  --      0.0911                 0.0439                 0.0426
 IR Inten    --      0.2179                 0.3674                 0.2698

                     10                     11                     12
                      A                      A                      A
 Frequencies --    275.4258               307.6252               329.1283
 Red. masses --      2.5980                 2.0973                 2.3396
 Frc consts  --      0.1161                 0.1169                 0.1493
 IR Inten    --      2.3922                 0.3551                 2.0889

                     13                     14                     15
                      A                      A                      A
 Frequencies --    349.1178               400.5092               423.6584
 Red. masses --      2.3035                 2.0814                 2.8948
 Frc consts  --      0.1654                 0.1967                 0.3061
 IR Inten    --      1.0522                 1.6028                 3.6579

                     16                     17                     18
                      A                      A                      A
 Frequencies --    440.3796               459.7525               485.4976
 Red. masses --      2.5122                 2.2769                 3.1014
 Frc consts  --      0.2870                 0.2836                 0.4307
 IR Inten    --      1.6909                 0.6928                 3.2578

                     19                     20                     21
                      A                      A                      A
 Frequencies --    541.8593               599.0112               718.4366
 Red. masses --      2.8941                 2.4326                 2.6288
 Frc consts  --      0.5007                 0.5143                 0.7994
 IR Inten    --      0.7915                 1.0843                 1.8861

                     22                     23                     24
                      A                      A                      A
 Frequencies --    778.0188               792.8278               816.9499
 Red. masses --      1.5960                 2.3196                 3.1950
 Frc consts  --      0.5692                 0.8590                 1.2563
 IR Inten    --      1.2520                 0.2439                 5.0481

                     25                     26                     27
                      A                      A                      A
 Frequencies --    863.6861               890.1971               898.5892
 Red. masses --      2.9829                 1.9218                 1.5176
 Frc consts  --      1.3110                 0.8973                 0.7220
 IR Inten    --      6.8695                 0.8554                 0.2060

                     28                     29                     30
                      A                      A                      A
 Frequencies --    926.1251               951.3230               976.0962
 Red. masses --      2.0475                 1.3935                 1.9117
 Frc consts  --      1.0347                 0.7430                 1.0731
 IR Inten    --      5.3784                 2.3110                 0.0304

                     31                     32                     33
                      A                      A                      A
 Frequencies --    983.9714              1000.3443              1012.8320
 Red. masses --      2.0481                 1.6409                 3.0416
 Frc consts  --      1.1683                 0.9675                 1.8383
 IR Inten    --      2.3531                 0.8890                16.8911

                     34                     35                     36
                      A                      A                      A
 Frequencies --   1024.8093              1040.8975              1055.1510
 Red. masses --      2.4145                 9.3209                 2.1558
 Frc consts  --      1.4940                 5.9501                 1.4141
 IR Inten    --     16.9953                80.7091                 1.6547

                     37                     38                     39
                      A                      A                      A
 Frequencies --   1087.7409              1108.7646              1126.4291
 Red. masses --      3.1700                 2.6148                 1.9085
 Frc consts  --      2.2099                 1.8939                 1.4268
 IR Inten    --     24.1122                 1.3990                 2.4109

                     40                     41                     42
                      A                      A                      A
 Frequencies --   1138.7211              1138.8285              1154.9370
 Red. masses --      1.3215                 1.5133                 1.4229
 Frc consts  --      1.0096                 1.1564                 1.1182
 IR Inten    --     10.1250                 7.0862                16.3142

                     43                     44                     45
                      A                      A                      A
 Frequencies --   1161.9949              1166.8517              1175.0353
 Red. masses --      1.2306                 1.0990                 1.6059
 Frc consts  --      0.9790                 0.8816                 1.3064
 IR Inten    --      1.4552                 0.9171                16.4701

                     46                     47                     48
                      A                      A                      A
 Frequencies --   1180.0512              1220.1758              1248.5707
 Red. masses --      1.9160                 2.3892                 1.4944
 Frc consts  --      1.5720                 2.0958                 1.3726
 IR Inten    --      2.0783                30.1973                 1.1766

                     49                     50                     51
                      A                      A                      A
 Frequencies --   1284.5352              1287.5740              1305.7047
 Red. masses --      1.3500                 1.5153                 1.2877
 Frc consts  --      1.3124                 1.4801                 1.2935
 IR Inten    --     12.1166                18.2989                 1.2633

                     52                     53                     54
                      A                      A                      A
 Frequencies --   1309.7568              1325.5283              1356.4987
 Red. masses --      1.2926                 1.8436                 1.2922
 Frc consts  --      1.3065                 1.9085                 1.4010
 IR Inten    --      2.9788                37.2481                 0.3243

                     55                     56                     57
                      A                      A                      A
 Frequencies --   1365.9128              1367.3100              1382.3565
 Red. masses --      1.3149                 1.4549                 1.5014
 Frc consts  --      1.4455                 1.6026                 1.6904
 IR Inten    --      7.8771                 3.8910                22.4456

                     58                     59                     60
                      A                      A                      A
 Frequencies --   1401.9081              1405.4662              1415.6061
 Red. masses --      1.3944                 1.4529                 1.4298
 Frc consts  --      1.6146                 1.6909                 1.6881
 IR Inten    --      0.6404                 0.0369                 1.5784

                     61                     62                     63
                      A                      A                      A
 Frequencies --   1428.0704              1441.3691              1454.5859
 Red. masses --      1.5131                 1.2392                 1.1917
 Frc consts  --      1.8181                 1.5168                 1.4856
 IR Inten    --      2.7444                 4.9207                 6.8697

                     64                     65                     66
                      A                      A                      A
 Frequencies --   1466.8785              1505.4458              1508.7390
 Red. masses --      1.2634                 1.0786                 1.1762
 Frc consts  --      1.6017                 1.4403                 1.5775
 IR Inten    --     13.3297                13.8508                11.2946

                     67                     68                     69
                      A                      A                      A
 Frequencies --   1518.1576              1521.1008              1525.6020
 Red. masses --      1.0875                 1.1013                 1.0855
 Frc consts  --      1.4768                 1.5013                 1.4886
 IR Inten    --      6.4278                 5.0487                 6.8634

                     70                     71                     72
                      A                      A                      A
 Frequencies --   1527.6803              1530.8547              1536.5917
 Red. masses --      1.0454                 1.0690                 1.0850
 Frc consts  --      1.4375                 1.4761                 1.5094
 IR Inten    --      4.9253                 5.0002                 2.0351

                     73                     74                     75
                      A                      A                      A
 Frequencies --   1550.4157              1553.8311              1569.7210
 Red. masses --      1.0836                 1.0599                 1.1090
 Frc consts  --      1.5347                 1.5077                 1.6099
 IR Inten    --      1.0662                 2.6849                 4.3230

                     76                     77                     78
                      A                      A                      A
 Frequencies --   2964.1817              2992.1396              2994.4653
 Red. masses --      1.0598                 1.0826                 1.0833
 Frc consts  --      5.4862                 5.7107                 5.7232
 IR Inten    --     72.4118                28.0674                20.0986

                     79                     80                     81
                      A                      A                      A
 Frequencies --   3025.9452              3036.0023              3037.5119
 Red. masses --      1.0712                 1.0642                 1.0476
 Frc consts  --      5.7788                 5.7794                 5.6946
 IR Inten    --      9.1365                26.9474                61.7426

                     82                     83                     84
                      A                      A                      A
 Frequencies --   3041.6159              3043.6560              3046.9389
 Red. masses --      1.0628                 1.0674                 1.0678
 Frc consts  --      5.7932                 5.8260                 5.8408
 IR Inten    --      6.2219               132.0285                67.2469

                     85                     86                     87
                      A                      A                      A
 Frequencies --   3049.3382              3060.9983              3078.4109
 Red. masses --      1.0755                 1.0734                 1.0831
 Frc consts  --      5.8924                 5.9255                 6.0476
 IR Inten    --     19.5098                43.3103                28.0437

                     88                     89                     90
                      A                      A                      A
 Frequencies --   3080.5670              3091.5651              3097.8007
 Red. masses --      1.0938                 1.0949                 1.0915
 Frc consts  --      6.1156                 6.1656                 6.1712
 IR Inten    --     44.3498                53.9849                38.5342

                     91                     92                     93
                      A                      A                      A
 Frequencies --   3102.3804              3106.3556              3107.5581
 Red. masses --      1.1000                 1.1021                 1.1009
 Frc consts  --      6.2381                 6.2660                 6.2635
 IR Inten    --     13.0520                14.6222                57.3575

                     94                     95                     96
                      A                      A                      A
 Frequencies --   3109.0391              3135.4106              3149.3880
 Red. masses --      1.0979                 1.0935                 1.0935
 Frc consts  --      6.2526                 6.3338                 6.3904
 IR Inten    --     86.2818                27.5213                41.9716

 - Thermochemistry -
 -------------------
 Temperature   298.150 Kelvin.  Pressure   1.00000 Atm.
 Atom     1 has atomic number  6 and mass  12.00000

 Molecular mass:   183.16231 amu.
 Principal axes and moments of inertia in atomic units:
                           1         2         3
     Eigenvalues --  1801.897322615.729683409.68172
           X            0.99881  -0.04873   0.00072
           Y            0.04871   0.99869   0.01572
           Z           -0.00148  -0.01566   0.99988
 This molecule is an asymmetric top.
 Rotational symmetry number  1.
 Warning -- assumption of classical behavior for rotation
           may cause significant error
 Rotational temperatures (Kelvin)      0.04807     0.03311     0.02540
 Rotational constants (GHZ):           1.00158     0.68996     0.52930
 Zero-point vibrational energy     824644.7 (Joules/Mol)
                                  197.09481 (Kcal/Mol)
 Warning -- explicit consideration of  20 degrees of freedom as
           vibrations may cause significant error
 Vibrational temperatures:     60.64   107.83   143.51   167.51   253.22
          (Kelvin)            282.31   323.69   351.35   354.50   396.28
                              442.60   473.54   502.30   576.24   609.55
                              633.61   661.48   698.52   779.61   861.84
                             1033.67  1119.40  1140.70  1175.41  1242.65
                             1280.80  1292.87  1332.49  1368.74  1404.38
                             1415.72  1439.27  1457.24  1474.47  1497.62
                             1518.13  1565.02  1595.26  1620.68  1638.37
                             1638.52  1661.70  1671.85  1678.84  1690.61
                             1697.83  1755.56  1796.41  1848.16  1852.53
                             1878.62  1884.45  1907.14  1951.70  1965.24
                             1967.25  1988.90  2017.03  2022.15  2036.74
                             2054.67  2073.81  2092.82  2110.51  2166.00
                             2170.74  2184.29  2188.52  2195.00  2197.99
                             2202.56  2210.81  2230.70  2235.62  2258.48
                             4264.80  4305.02  4308.37  4353.66  4368.13
                             4370.30  4376.21  4379.14  4383.87  4387.32
                             4404.09  4429.15  4432.25  4448.07  4457.04
                             4463.63  4469.35  4471.08  4473.21  4511.16
                             4531.27

 Zero-point correction=                           0.314091 (Hartree/Particle)
 Thermal correction to Energy=                    0.327275
 Thermal correction to Enthalpy=                  0.328219
 Thermal correction to Gibbs Free Energy=         0.274894
 Sum of electronic and zero-point Energies=           -561.474481
 Sum of electronic and thermal Energies=              -561.461297
 Sum of electronic and thermal Enthalpies=            -561.460353
 Sum of electronic and thermal Free Energies=         -561.513678

                     E (Thermal)             CV                S
                      KCal/Mol        Cal/Mol-Kelvin    Cal/Mol-Kelvin
 Total                  205.368             51.727            112.232
 Electronic               0.000              0.000              0.000
 Translational            0.889              2.981             41.522
 Rotational               0.889              2.981             31.153
 Vibrational            203.591             45.765             39.558
 Vibration     1          0.595              1.980              5.155
 Vibration     2          0.599              1.966              4.019
 Vibration     3          0.604              1.949              3.459
 Vibration     4          0.608              1.936              3.159
 Vibration     5          0.628              1.872              2.370
 Vibration     6          0.636              1.845              2.168
 Vibration     7          0.650              1.803              1.919
 Vibration     8          0.660              1.772              1.772
 Vibration     9          0.661              1.769              1.756
 Vibration    10          0.677              1.719              1.562
 Vibration    11          0.697              1.659              1.375
 Vibration    12          0.712              1.617              1.264
 Vibration    13          0.726              1.577              1.170
 Vibration    14          0.766              1.469              0.961
 Vibration    15          0.786              1.419              0.880
 Vibration    16          0.800              1.382              0.825
 Vibration    17          0.818              1.339              0.767
 Vibration    18          0.842              1.282              0.695
 Vibration    19          0.897              1.158              0.561
 Vibration    20          0.957              1.034              0.451

 Optimization completed.
    -- Stationary point found.
 Normal termination of Gaussian 16 at Wed Dec  9 23:22:48 2020.

 ----------------------------------------------------------------------
 # B3LYP/6-311++G(d,p) empiricaldispersion=gd3bj scf=xqc pop=npa geom=c
 heck
 ----------------------------------------------------------------------

 ---------------------------------------
 CID_131177043_JID_3360_Energie_neutraal
 ---------------------------------------
 Structure from the checkpoint file:  "JID_3360.chk"
 Charge =  0 Multiplicity = 1

 SCF Done:  E(RB3LYP) =  -561.943611807     A.U. after   13 cycles
 Normal termination of Gaussian 16 at Wed Dec  9 23:28:07 2020.

 ----------------------------------------------------------------------
 # B3LYP/6-311++G(d,p) empiricaldispersion=gd3bj scf=xqc pop=npa geom=c
 heck
 ----------------------------------------------------------------------

 -------------------------------------
 CID_131177043_JID_3360_Energie_kation
 -------------------------------------
 Structure from the checkpoint file:  "JID_3360.chk"
 Charge =  1 Multiplicity = 2

 SCF Done:  E(UB3LYP) =  -561.664910031     A.U. after   18 cycles
 Normal termination of Gaussian 16 at Wed Dec  9 23:38:27 2020.
 Gaussian 16:  ES64L-G16RevA.03 25-Dec-2016

 ----------------------------------------------------------------------
 # B3LYP/6-311++G(d,p) empiricaldispersion=gd3bj scf=xqc pop=npa geom=c
 heck
 ----------------------------------------------------------------------

 ------------------------------------
 CID_131177043_JID_3360_Energie_anion
 ------------------------------------
 Structure from the checkpoint file:  "JID_3360.chk"
 Charge = -1 Multiplicity = 2

                         Standard orientation:
 ---------------------------------------------------------------------
 Center     Atomic      Atomic             Coordinates (Angstroms)
 Number     Number       Type             X           Y           Z
 ---------------------------------------------------------------------
      1          6           0       -3.268889    1.084093   -0.586196
      2          6           0       -2.401384   -0.000147    0.056595
      3          6           0       -1.689025   -0.854256   -1.003671
      4          6           0       -0.765316   -1.908672   -0.385026
      5          6           0        0.240542   -1.393348    0.682900
      6          6           0       -0.501823   -0.481816    1.674722
      7          6           0       -1.384174    0.602526    1.039662
      8          7           0        1.555428   -0.915772    0.200420
      9          6           0        2.258147   -1.937459   -0.560799
     10          6           0        1.942916    0.422467   -0.170183
     11          6           0        1.228760    1.351257   -1.202103
     12          8           0        1.238751    2.452559   -0.266379
     13          6           0        1.807181    1.637636    0.784641
     14          1           0       -2.651506    1.784000   -1.163331
     15          1           0       -4.009673    0.650093   -1.268325
     16          1           0       -3.807034    1.664796    0.172134
     17          1           0       -3.058335   -0.672659    0.631766
     18          1           0       -2.436261   -1.355140   -1.633612
     19          1           0       -1.124866   -0.199820   -1.678168
     20          1           0       -0.235332   -2.456595   -1.171799
     21          1           0       -1.395496   -2.651273    0.125220
     22          1           0        0.518081   -2.287380    1.259783
     23          1           0        0.203638   -0.063647    2.398900
     24          1           0       -1.162931   -1.144577    2.250398
     25          1           0       -0.785197    1.360957    0.524052
     26          1           0       -1.921269    1.135006    1.835800
     27          1           0        1.938824   -2.028004   -1.614380
     28          1           0        3.334008   -1.728153   -0.559544
     29          1           0        2.107709   -2.915145   -0.088729
     30          1           0        2.993391    0.335340   -0.461969
     31          1           0        1.797308    1.583002   -2.112155
     32          1           0        0.211115    1.067783   -1.478784
     33          1           0        1.125462    1.531385    1.629372
     34          1           0        2.758751    2.046294    1.148219
 ---------------------------------------------------------------------

 SCF Done:  E(UB3LYP) =  -561.928804156     A.U. after   29 cycles

 The electronic state is 2-A.
 Alpha  occ. eigenvalues --  -19.02099 -14.20274 -10.11441 -10.11133 -10.10660
 Alpha  occ. eigenvalues --  -10.09605 -10.08017 -10.07017 -10.06273 -10.06203
 Alpha  occ. eigenvalues --  -10.05981 -10.05910 -10.05573  -0.94408  -0.81682
 Alpha  occ. eigenvalues --   -0.72885  -0.66514  -0.64318  -0.62996  -0.59522
 Alpha  occ. eigenvalues --   -0.58371  -0.54515  -0.51145  -0.49385  -0.47273
 Alpha  occ. eigenvalues --   -0.42776  -0.40610  -0.39782  -0.37027  -0.35730
 Alpha  occ. eigenvalues --   -0.34930  -0.34255  -0.33775  -0.32483  -0.31397
 Alpha  occ. eigenvalues --   -0.30873  -0.30229  -0.29606  -0.27912  -0.27366
 Alpha  occ. eigenvalues --   -0.26588  -0.25473  -0.24377  -0.24298  -0.23606
 Alpha  occ. eigenvalues --   -0.21552  -0.21157  -0.20346  -0.19631  -0.15650
 Alpha  occ. eigenvalues --   -0.10198   0.04525
 Alpha virt. eigenvalues --    0.06478   0.07314   0.07466   0.08751   0.08980
 Alpha virt. eigenvalues --    0.09241   0.09695   0.10368   0.11356   0.11663
 Alpha virt. eigenvalues --    0.12020   0.12388   0.12512   0.13525   0.13657

  Beta  occ. eigenvalues --  -19.02099 -14.20274 -10.11430 -10.11120 -10.10645
  Beta  occ. eigenvalues --  -10.09595 -10.07973 -10.07006 -10.06256 -10.06190
  Beta  occ. eigenvalues --  -10.05976 -10.05896 -10.05549  -0.94400  -0.81667
  Beta  occ. eigenvalues --   -0.72858  -0.66483  -0.64286  -0.62965  -0.59492
  Beta  occ. eigenvalues --   -0.58328  -0.54451  -0.51095  -0.49346  -0.47236
  Beta  occ. eigenvalues --   -0.42730  -0.40568  -0.39746  -0.36986  -0.35697
  Beta  occ. eigenvalues --   -0.34895  -0.34219  -0.33749  -0.32462  -0.31364
  Beta  occ. eigenvalues --   -0.30848  -0.30204  -0.29576  -0.27884  -0.27333
  Beta  occ. eigenvalues --   -0.26550  -0.25441  -0.24349  -0.24264  -0.23574
  Beta  occ. eigenvalues --   -0.21521  -0.21130  -0.20312  -0.19599  -0.15641
  Beta  occ. eigenvalues --   -0.10180
  Beta virt. eigenvalues --    0.06716   0.07333   0.07879   0.08064   0.09297
  Beta virt. eigenvalues --    0.09449   0.09710   0.10186   0.10693   0.11723
  Beta virt. eigenvalues --    0.12110   0.12412   0.12668   0.12874   0.13761

 Mulliken charges and spin densities:
               1          2
     1  C   -0.181649  -0.546692
     2  C   -0.292227   0.418753
     3  C   -0.089387   0.031947
     4  C    0.713266  -1.449312
     5  C   -0.440121   0.503389
     6  C    0.163095  -0.752423
     7  C    0.398031  -0.651645
     8  N    0.091838   0.074373
     9  C    1.207072  -1.515812
    10  C   -0.490884   0.272296
    11  C    0.222711  -0.549587
    12  O   -0.174582   0.006582
    13  C   -0.069863  -0.288714
    14  H    0.104681   0.030842
    15  H   -0.090848   0.222314
    16  H   -0.013870   0.140027
    17  H   -0.292500   0.472882
    18  H   -0.158018   0.345511
    19  H   -0.330540   0.426467
    20  H   -0.073709   0.251237
    21  H   -0.168650   0.313440
    22  H   -0.398075   0.624622
    23  H   -0.229456   0.394045
    24  H   -0.073651   0.234982
    25  H    0.167505   0.050949
    26  H    0.130731   0.034097
    27  H   -0.215149   0.356715
    28  H   -0.545635   0.669647
    29  H   -0.317440   0.465900
    30  H    0.130008   0.047392
    31  H   -0.273556   0.411280
    32  H    0.637711  -0.389466
    33  H    0.301275  -0.144769
    34  H   -0.348115   0.488732
 Sum of Mulliken charges =  -1.00000   1.00000

 Dipole moment (field-independent basis, Debye):
    X=             -1.9572    Y=              4.1278    Z=              0.4448  Tot=              4.5899
 Quadrupole moment (field-independent basis, Debye-Ang):
   XX=           -144.9660   YY=           -136.3805   ZZ=           -119.8136
   XY=             -0.3381   XZ=              2.7595   YZ=              0.7468

 Summary of Natural Population Analysis:

                                       Natural Population
                Natural  -----------------------------------------------
    Atom  No    Charge         Core      Valence    Rydberg      Total
 -----------------------------------------------------------------------
      C    1   -0.28172      0.99965     2.27584    0.00623     3.28172
      C    2   -0.11000      0.99959     2.10096    0.00945     3.11000
      C    3   -0.18837      0.99960     2.17924    0.00952     3.18837
      C    4   -0.19724      0.99960     2.18848    0.00916     3.19724
      C    5    0.00240      0.99955     1.98264    0.01540     2.99760
      C    6   -0.19402      0.99960     2.18502    0.00940     3.19402
      C    7   -0.19717      0.99960     2.18838    0.00919     3.19717
      N    8   -0.28330      0.99969     2.76836    0.01525     3.78330
      C    9   -0.17238      0.99963     2.16399    0.00877     3.17238
      C   10   -0.02118      0.99956     2.00732    0.01429     3.02118
      C   11   -0.01457      0.99961     2.00323    0.01173     3.01457
      O   12   -0.30783      0.99991     3.30095    0.00697     4.30783
      C   13   -0.00677      0.99962     1.99482    0.01233     3.00677
      H   14    0.09581      0.00000     0.40324    0.00095     0.40419
      H   15    0.09810      0.00000     0.40113    0.00077     0.40190
      H   16    0.09696      0.00000     0.40230    0.00075     0.40304
      H   17    0.09180      0.00000     0.40626    0.00194     0.40820
      H   18    0.09982      0.00000     0.39905    0.00113     0.40018
      H   19    0.08938      0.00000     0.40880    0.00182     0.41062
      H   20    0.10284      0.00000     0.39584    0.00132     0.39716
      H   21    0.09832      0.00000     0.39983    0.00185     0.40168
      H   22    0.09740      0.00000     0.40075    0.00184     0.40260
      H   23    0.10025      0.00000     0.39836    0.00138     0.39975
      H   24    0.10125      0.00000     0.39736    0.00140     0.39875
      H   25    0.10000      0.00000     0.39714    0.00286     0.40000
      H   26    0.09699      0.00000     0.40211    0.00089     0.40301
      H   27    0.08218      0.00000     0.41584    0.00199     0.41782
      H   28    0.09505      0.00000     0.40331    0.00165     0.40495
      H   29    0.09665      0.00000     0.40178    0.00157     0.40335
      H   30    0.09936      0.00000     0.39870    0.00194     0.40064
      H   31    0.08144      0.00000     0.41707    0.00149     0.41856
      H   32    0.08215      0.00000     0.41598    0.00187     0.41785
      H   33    0.08482      0.00000     0.41322    0.00196     0.41518
      H   34    0.08156      0.00000     0.41699    0.00146     0.41844
 =======================================================================
   * Total *    0.00000     12.99522    37.83426    0.17051    51.00000

 Normal termination of Gaussian 16 at Wed Dec  9 23:54:43 2020.
