 Gaussian 16, Revision A.03,

 ----------------------------------------------------------------------
 # opt=(cartesian,calcfc) freq B3LYP/6-31G(d) empiricaldispersion=gd3bj
  scf=xqc
 ----------------------------------------------------------------------

 -------------------------------
 CID_116537586_JID_9604_neutraal
 -------------------------------
 Symbolic Z-matrix:
 Charge =  0 Multiplicity = 1

 SCF Done:  E(RB3LYP) =  -901.857748589     A.U. after   15 cycles
 SCF Done:  E(RB3LYP) =  -901.859513257     A.U. after   12 cycles
 SCF Done:  E(RB3LYP) =  -901.860638358     A.U. after   12 cycles
 SCF Done:  E(RB3LYP) =  -901.860870063     A.U. after   11 cycles
 SCF Done:  E(RB3LYP) =  -901.860911624     A.U. after   11 cycles
 SCF Done:  E(RB3LYP) =  -901.861009776     A.U. after   12 cycles
 SCF Done:  E(RB3LYP) =  -901.861088927     A.U. after   11 cycles
 SCF Done:  E(RB3LYP) =  -901.860978012     A.U. after   12 cycles
 SCF Done:  E(RB3LYP) =  -901.861073138     A.U. after   11 cycles
 SCF Done:  E(RB3LYP) =  -901.861089177     A.U. after    8 cycles
 SCF Done:  E(RB3LYP) =  -901.861424375     A.U. after    9 cycles
 SCF Done:  E(RB3LYP) =  -901.861424695     A.U. after    8 cycles
 SCF Done:  E(RB3LYP) =  -901.861424590     A.U. after    8 cycles
 SCF Done:  E(RB3LYP) =  -901.861424736     A.U. after    7 cycles
 SCF Done:  E(RB3LYP) =  -901.861424748     A.U. after    7 cycles
 Optimization completed.
    -- Stationary point found.
 Normal termination of Gaussian 16 at Mon Jan  4 12:37:31 2021.

 --------------------------------------------------------------------
 #N Geom=AllCheck Guess=TCheck SCRF=Check GenChk RB3LYP/6-31G(d) Freq
 --------------------------------------------------------------------

 Structure from the checkpoint file:  "JID_9604.chk"
 -------------------------------
 CID_116537586_JID_9604_neutraal
 -------------------------------
 Charge =  0 Multiplicity = 1

 SCF Done:  E(RB3LYP) =  -901.861424748     A.U. after    1 cycles

  Exact polarizability: 198.605  -3.096 156.110  -2.222  -7.210 123.761
 Approx polarizability: 251.496   2.285 226.605 -13.566  -9.081 209.873

                      1                      2                      3
                      A                      A                      A
 Frequencies --     18.2884                29.3243                37.4753
 Red. masses --      4.5160                 4.3862                 4.3092
 Frc consts  --      0.0009                 0.0022                 0.0036
 IR Inten    --      0.0737                 0.4773                 0.6318

                      4                      5                      6
                      A                      A                      A
 Frequencies --     46.6801                55.0370                68.9316
 Red. masses --      3.8596                 4.7931                 3.7587
 Frc consts  --      0.0050                 0.0086                 0.0105
 IR Inten    --      0.8962                 0.0650                 0.8258

                      7                      8                      9
                      A                      A                      A
 Frequencies --     87.4758               101.0012               135.8008
 Red. masses --      3.3660                 3.9923                 4.1323
 Frc consts  --      0.0152                 0.0240                 0.0449
 IR Inten    --      0.9835                 1.4721                 0.9802

                     10                     11                     12
                      A                      A                      A
 Frequencies --    151.8169               163.6055               178.1920
 Red. masses --      4.8850                 4.5750                 4.3833
 Frc consts  --      0.0663                 0.0722                 0.0820
 IR Inten    --      1.5966                 2.1404                 0.4741

                     13                     14                     15
                      A                      A                      A
 Frequencies --    203.5568               223.3173               239.7097
 Red. masses --      2.3751                 1.1822                 1.3901
 Frc consts  --      0.0580                 0.0347                 0.0471
 IR Inten    --      2.5195                 1.5847                 2.1189

                     16                     17                     18
                      A                      A                      A
 Frequencies --    267.7026               269.3552               304.9775
 Red. masses --      1.3133                 1.1223                 3.0656
 Frc consts  --      0.0555                 0.0480                 0.1680
 IR Inten    --      0.7088                 0.7023                 6.0176

                     19                     20                     21
                      A                      A                      A
 Frequencies --    309.8321               321.5794               333.6981
 Red. masses --      2.2584                 2.1317                 2.7170
 Frc consts  --      0.1277                 0.1299                 0.1783
 IR Inten    --      3.4467                 2.8634                 3.0992

                     22                     23                     24
                      A                      A                      A
 Frequencies --    351.3625               374.3619               394.1131
 Red. masses --      3.0151                 4.2539                 2.4940
 Frc consts  --      0.2193                 0.3513                 0.2282
 IR Inten    --      4.2098                 7.4337                 1.8666

                     25                     26                     27
                      A                      A                      A
 Frequencies --    414.6856               455.5452               459.1760
 Red. masses --      2.6854                 3.3834                 4.1925
 Frc consts  --      0.2721                 0.4137                 0.5208
 IR Inten    --      0.7602                 3.0000                 5.2951

                     28                     29                     30
                      A                      A                      A
 Frequencies --    530.9478               556.0115               613.7548
 Red. masses --      3.2560                 1.8136                 3.3547
 Frc consts  --      0.5408                 0.3303                 0.7446
 IR Inten    --     14.2025                34.4511                 4.8301

                     31                     32                     33
                      A                      A                      A
 Frequencies --    615.7928               655.5405               675.7574
 Red. masses --      4.6819                 2.1505                 4.1611
 Frc consts  --      1.0460                 0.5445                 1.1195
 IR Inten    --     13.8894                61.1480                18.1784

                     34                     35                     36
                      A                      A                      A
 Frequencies --    737.7064               743.6703               764.7025
 Red. masses --      5.3989                 1.3645                 3.8382
 Frc consts  --      1.7311                 0.4446                 1.3224
 IR Inten    --      2.7515                36.7694                 5.8247

                     37                     38                     39
                      A                      A                      A
 Frequencies --    776.6521               803.2370               819.5522
 Red. masses --      2.6114                 2.5097                 1.3325
 Frc consts  --      0.9281                 0.9540                 0.5273
 IR Inten    --      6.5467                 6.1859                17.3880

                     40                     41                     42
                      A                      A                      A
 Frequencies --    822.6262               858.9482               869.6810
 Red. masses --      2.2344                 2.4328                 1.3106
 Frc consts  --      0.8909                 1.0575                 0.5840
 IR Inten    --      1.8603                 8.5145                 0.5683

                     43                     44                     45
                      A                      A                      A
 Frequencies --    908.3049               911.1428               934.4100
 Red. masses --      5.4522                 3.4836                 2.6654
 Frc consts  --      2.6502                 1.7039                 1.3711
 IR Inten    --      4.8372                 0.6917                 7.7501

                     46                     47                     48
                      A                      A                      A
 Frequencies --    949.3645               952.5627               955.8381
 Red. masses --      1.7398                 2.1272                 2.1223
 Frc consts  --      0.9239                 1.1372                 1.1424
 IR Inten    --      1.8936                 1.1384                 4.4922

                     49                     50                     51
                      A                      A                      A
 Frequencies --    980.4590               983.3252              1001.1946
 Red. masses --      2.3618                 1.2072                 2.2582
 Frc consts  --      1.3377                 0.6877                 1.3337
 IR Inten    --     20.6874                 0.9469                 0.8278

                     52                     53                     54
                      A                      A                      A
 Frequencies --   1044.2672              1057.1566              1074.0800
 Red. masses --      1.3475                 2.5145                 1.4542
 Frc consts  --      0.8658                 1.6557                 0.9884
 IR Inten    --     33.7526                24.9459                 3.5295

                     55                     56                     57
                      A                      A                      A
 Frequencies --   1079.2729              1116.9423              1127.5696
 Red. masses --      1.9593                 2.9492                 3.4568
 Frc consts  --      1.3447                 2.1678                 2.5895
 IR Inten    --     44.6317                20.3583                 7.3755

                     58                     59                     60
                      A                      A                      A
 Frequencies --   1135.7333              1188.2093              1209.4362
 Red. masses --      1.9790                 1.8931                 1.7567
 Frc consts  --      1.5040                 1.5747                 1.5140
 IR Inten    --     28.4605                19.7111                 4.6509

                     61                     62                     63
                      A                      A                      A
 Frequencies --   1222.4597              1236.2163              1243.6389
 Red. masses --      2.0861                 1.8716                 2.2738
 Frc consts  --      1.8368                 1.6852                 2.0720
 IR Inten    --     72.1120                42.0213               117.2140

                     64                     65                     66
                      A                      A                      A
 Frequencies --   1263.1402              1267.0056              1287.2014
 Red. masses --      3.1255                 2.3119                 3.0241
 Frc consts  --      2.9382                 2.1866                 2.9522
 IR Inten    --      6.1588                69.3122               156.7446

                     67                     68                     69
                      A                      A                      A
 Frequencies --   1292.3828              1317.0449              1340.9549
 Red. masses --      2.0544                 1.3347                 1.2200
 Frc consts  --      2.0217                 1.3640                 1.2926
 IR Inten    --     63.9071                26.9413                37.9995

                     70                     71                     72
                      A                      A                      A
 Frequencies --   1354.6894              1399.5128              1409.7633
 Red. masses --      1.5033                 1.2948                 1.9033
 Frc consts  --      1.6254                 1.4942                 2.2287
 IR Inten    --     76.6814                25.6335                97.7057

                     73                     74                     75
                      A                      A                      A
 Frequencies --   1421.7173              1425.3109              1431.4421
 Red. masses --      1.3475                 1.2381                 1.2293
 Frc consts  --      1.6048                 1.4819                 1.4841
 IR Inten    --     12.5499                 5.2940                14.4175

                     76                     77                     78
                      A                      A                      A
 Frequencies --   1435.9670              1448.7525              1460.6597
 Red. masses --      2.5922                 1.3130                 1.2258
 Frc consts  --      3.1492                 1.6237                 1.5408
 IR Inten    --      0.6944                 6.4742                13.2849

                     79                     80                     81
                      A                      A                      A
 Frequencies --   1499.4801              1509.4973              1516.3436
 Red. masses --      1.7038                 1.0473                 1.0636
 Frc consts  --      2.2571                 1.4060                 1.4409
 IR Inten    --     92.3634                 1.2345                11.7344

                     82                     83                     84
                      A                      A                      A
 Frequencies --   1516.7707              1519.9270              1525.9798
 Red. masses --      1.0489                 1.0657                 1.0797
 Frc consts  --      1.4217                 1.4506                 1.4813
 IR Inten    --      0.1038                 1.4619                 3.1111

                     85                     86                     87
                      A                      A                      A
 Frequencies --   1527.1949              1532.1648              1534.3666
 Red. masses --      1.0482                 1.0648                 1.0624
 Frc consts  --      1.4404                 1.4728                 1.4736
 IR Inten    --      0.7512                20.7522                 5.4286

                     88                     89                     90
                      A                      A                      A
 Frequencies --   1542.8710              1553.6234              1557.6399
 Red. masses --      1.0562                 4.4301                 1.0551
 Frc consts  --      1.4814                 6.3002                 1.5082
 IR Inten    --      4.8155                15.7910                13.8653

                     91                     92                     93
                      A                      A                      A
 Frequencies --   1657.1867              1779.4696              1798.0159
 Red. masses --      6.3102                 8.5562                 9.8922
 Frc consts  --     10.2103                15.9629                18.8421
 IR Inten    --      1.8906               511.1421                52.5107

                     94                     95                     96
                      A                      A                      A
 Frequencies --   3035.6385              3041.7059              3046.8345
 Red. masses --      1.0718                 1.0393                 1.0372
 Frc consts  --      5.8190                 5.6652                 5.6729
 IR Inten    --     35.4753                22.4159                29.3442

                     97                     98                     99
                      A                      A                      A
 Frequencies --   3059.4033              3063.7463              3083.7805
 Red. masses --      1.0444                 1.0384                 1.0830
 Frc consts  --      5.7595                 5.7428                 6.0678
 IR Inten    --     38.7826                15.6097                 8.1899

                    100                    101                    102
                      A                      A                      A
 Frequencies --   3098.3269              3102.8445              3113.0097
 Red. masses --      1.0588                 1.0998                 1.1011
 Frc consts  --      5.9884                 6.2385                 6.2868
 IR Inten    --     23.6402                18.9451                50.9581

                    103                    104                    105
                      A                      A                      A
 Frequencies --   3118.9454              3127.3542              3130.4441
 Red. masses --      1.1013                 1.0962                 1.1005
 Frc consts  --      6.3123                 6.3170                 6.3543
 IR Inten    --     12.8312                57.4598                26.3191

                    106                    107                    108
                      A                      A                      A
 Frequencies --   3142.2200              3148.3688              3156.0644
 Red. masses --      1.0916                 1.1063                 1.0986
 Frc consts  --      6.3504                 6.4610                 6.4472
 IR Inten    --      1.0416                 6.9937                 9.3313

                    109                    110                    111
                      A                      A                      A
 Frequencies --   3170.4727              3180.1560              3265.2094
 Red. masses --      1.1041                 1.0994                 1.0926
 Frc consts  --      6.5391                 6.5509                 6.8632
 IR Inten    --     17.6895                 4.1353                 3.8426

                    112                    113                    114
                      A                      A                      A
 Frequencies --   3277.0632              3305.4983              3585.7830
 Red. masses --      1.0962                 1.1049                 1.0759
 Frc consts  --      6.9359                 7.1129                 8.1504
 IR Inten    --      1.3449                 0.9493                24.2927

 - Thermochemistry -
 -------------------
 Temperature   298.150 Kelvin.  Pressure   1.00000 Atm.
 Atom     1 has atomic number  6 and mass  12.00000

 Molecular mass:   267.14706 amu.
 Principal axes and moments of inertia in atomic units:
                           1         2         3
     Eigenvalues --  2913.303337426.234838809.01953
           X            0.99993  -0.01017   0.00565
           Y            0.01036   0.99935  -0.03451
           Z           -0.00530   0.03457   0.99939
 This molecule is an asymmetric top.
 Rotational symmetry number  1.
 Warning -- assumption of classical behavior for rotation
           may cause significant error
 Rotational temperatures (Kelvin)      0.02973     0.01166     0.00983
 Rotational constants (GHZ):           0.61948     0.24302     0.20487
 Zero-point vibrational energy     894398.3 (Joules/Mol)
                                  213.76632 (Kcal/Mol)
 Warning -- explicit consideration of  31 degrees of freedom as
           vibrations may cause significant error
 Vibrational temperatures:     26.31    42.19    53.92    67.16    79.19
          (Kelvin)             99.18   125.86   145.32   195.39   218.43
                              235.39   256.38   292.87   321.30   344.89
                              385.16   387.54   438.79   445.78   462.68
                              480.12   505.53   538.62   567.04   596.64
                              655.43   660.65   763.92   799.98   883.06
                              885.99   943.18   972.26  1061.40  1069.98
                             1100.24  1117.43  1155.68  1179.15  1183.58
                             1235.83  1251.28  1306.85  1310.93  1344.41
                             1365.92  1370.53  1375.24  1410.66  1414.79
                             1440.50  1502.47  1521.01  1545.36  1552.83
                             1607.03  1622.32  1634.07  1709.57  1740.11
                             1758.85  1778.64  1789.32  1817.38  1822.94
                             1852.00  1859.45  1894.93  1929.33  1949.10
                             2013.59  2028.33  2045.53  2050.70  2059.53
                             2066.04  2084.43  2101.56  2157.42  2171.83
                             2181.68  2182.29  2186.84  2195.54  2197.29
                             2204.44  2207.61  2219.85  2235.32  2241.10
                             2384.32  2560.26  2586.94  4367.61  4376.34
                             4383.72  4401.80  4408.05  4436.87  4457.80
                             4464.30  4478.93  4487.47  4499.57  4504.01
                             4520.95  4529.80  4540.87  4561.60  4575.54
                             4697.91  4714.96  4755.87  5159.14

 Zero-point correction=                           0.340658 (Hartree/Particle)
 Thermal correction to Energy=                    0.361043
 Thermal correction to Enthalpy=                  0.361987
 Thermal correction to Gibbs Free Energy=         0.289617
 Sum of electronic and zero-point Energies=           -901.520766
 Sum of electronic and thermal Energies=              -901.500382
 Sum of electronic and thermal Enthalpies=            -901.499438
 Sum of electronic and thermal Free Energies=         -901.571808

                     E (Thermal)             CV                S
                      KCal/Mol        Cal/Mol-Kelvin    Cal/Mol-Kelvin
 Total                  226.558             75.052            152.315
 Electronic               0.000              0.000              0.000
 Translational            0.889              2.981             42.647
 Rotational               0.889              2.981             33.610
 Vibrational            224.780             69.090             76.058
 Vibration     1          0.593              1.986              6.812
 Vibration     2          0.593              1.984              5.875
 Vibration     3          0.594              1.982              5.388
 Vibration     4          0.595              1.979              4.953
 Vibration     5          0.596              1.976              4.628
 Vibration     6          0.598              1.969              4.184
 Vibration     7          0.601              1.958              3.716
 Vibration     8          0.604              1.948              3.435
 Vibration     9          0.614              1.918              2.862
 Vibration    10          0.619              1.901              2.649
 Vibration    11          0.623              1.887              2.508
 Vibration    12          0.629              1.869              2.347
 Vibration    13          0.639              1.835              2.101
 Vibration    14          0.649              1.806              1.932
 Vibration    15          0.657              1.780              1.805
 Vibration    16          0.673              1.732              1.611
 Vibration    17          0.674              1.730              1.600
 Vibration    18          0.696              1.664              1.389
 Vibration    19          0.699              1.655              1.363
 Vibration    20          0.707              1.632              1.302
 Vibration    21          0.715              1.608              1.242
 Vibration    22          0.728              1.572              1.160
 Vibration    23          0.745              1.525              1.062
 Vibration    24          0.761              1.483              0.985
 Vibration    25          0.778              1.438              0.910
 Vibration    26          0.814              1.349              0.779
 Vibration    27          0.817              1.341              0.769
 Vibration    28          0.886              1.182              0.585
 Vibration    29          0.911              1.127              0.532
 Vibration    30          0.973              1.003              0.427
 Vibration    31          0.975              0.998              0.423

 Normal termination of Gaussian 16 at Mon Jan  4 13:00:09 2021.

 ----------------------------------------------------------------------
 # B3LYP/6-311++G(d,p) empiricaldispersion=gd3bj scf=xqc pop=npa geom=c
 heck
 ----------------------------------------------------------------------

 ---------------------------------------
 CID_116537586_JID_9604_Energie_neutraal
 ---------------------------------------
 Structure from the checkpoint file:  "JID_9604.chk"
 Charge =  0 Multiplicity = 1

 SCF Done:  E(RB3LYP) =  -902.121084765     A.U. after   16 cycles
 Normal termination of Gaussian 16 at Mon Jan  4 13:11:11 2021.

 ----------------------------------------------------------------------
 # B3LYP/6-311++G(d,p) empiricaldispersion=gd3bj scf=xqc pop=npa geom=c
 heck
 ----------------------------------------------------------------------

 -------------------------------------
 CID_116537586_JID_9604_Energie_kation
 -------------------------------------
 Structure from the checkpoint file:  "JID_9604.chk"
 Charge =  1 Multiplicity = 2

 SCF Done:  E(UB3LYP) =  -901.816073263     A.U. after   27 cycles
 Normal termination of Gaussian 16 at Mon Jan  4 13:37:48 2021.
 Gaussian 16:  ES64L-G16RevA.03 25-Dec-2016

 ----------------------------------------------------------------------
 # B3LYP/6-311++G(d,p) empiricaldispersion=gd3bj scf=xqc pop=npa geom=c
 heck
 ----------------------------------------------------------------------

 ------------------------------------
 CID_116537586_JID_9604_Energie_anion
 ------------------------------------
 Structure from the checkpoint file:  "JID_9604.chk"
 Charge = -1 Multiplicity = 2

                         Standard orientation:
 ---------------------------------------------------------------------
 Center     Atomic      Atomic             Coordinates (Angstroms)
 Number     Number       Type             X           Y           Z
 ---------------------------------------------------------------------
      1          6           0       -1.028715    3.039271   -0.537963
      2          6           0        0.479484    3.012208   -0.359375
      3          8           0        0.988341    1.661826   -0.493594
      4          6           0        0.955120    0.890420    0.605940
      5          8           0        0.549580    1.263498    1.689496
      6          6           0        1.475180   -0.516243    0.328127
      7          6           0        0.700459   -1.115590   -0.859775
      8          8           0        1.185496   -1.316574   -1.965462
      9          7           0       -0.615606   -1.413514   -0.621223
     10          6           0       -1.380688   -1.376218    0.626005
     11          6           0       -2.790285   -0.962024    0.381690
     12          6           0       -3.981234   -1.625037    0.422756
     13          6           0       -4.994709   -0.673403    0.065413
     14          6           0       -4.343237    0.497399   -0.170953
     15          8           0       -3.000777    0.341562    0.016176
     16          6           0        3.035311   -0.592931    0.218894
     17          6           0        3.622381   -0.059680    1.539401
     18          6           0        3.429965   -2.073335    0.064251
     19          6           0        3.611803    0.219209   -0.953344
     20          1           0       -1.310317    2.599729   -1.499782
     21          1           0       -1.385738    4.075150   -0.508188
     22          1           0       -1.521571    2.474734    0.256288
     23          1           0        0.992384    3.568966   -1.146390
     24          1           0        0.775058    3.401627    0.617400
     25          1           0        1.212642   -1.085222    1.225089
     26          1           0       -1.082172   -1.814136   -1.426885
     27          1           0       -1.394848   -2.362940    1.109215
     28          1           0       -0.909678   -0.675371    1.317423
     29          1           0       -4.121682   -2.666000    0.678879
     30          1           0       -6.059479   -0.844468   -0.003967
     31          1           0       -4.661850    1.485622   -0.464072
     32          1           0        3.251604   -0.624835    2.402862
     33          1           0        4.714423   -0.146686    1.521924
     34          1           0        3.373308    0.994572    1.701380
     35          1           0        3.066653   -2.480294   -0.881671
     36          1           0        4.521226   -2.171582    0.085832
     37          1           0        3.025918   -2.678416    0.886108
     38          1           0        3.172093   -0.098526   -1.898969
     39          1           0        3.428300    1.289719   -0.827711
     40          1           0        4.696829    0.066182   -0.995536
 ---------------------------------------------------------------------

 SCF Done:  E(UB3LYP) =  -902.110007258     A.U. after   33 cycles
 SCF Done:  E(UB3LYP) =  -902.110007258     a.u. after    1 cycles

 The electronic state is 2-A.
 Alpha  occ. eigenvalues --  -19.10021 -19.08147 -19.02564 -19.00126 -14.25039
 Alpha  occ. eigenvalues --  -10.21602 -10.19114 -10.14164 -10.13975 -10.13402
 Alpha  occ. eigenvalues --  -10.13374 -10.11143 -10.11109 -10.08475 -10.08430
 Alpha  occ. eigenvalues --  -10.07744 -10.07214 -10.07205 -10.06375  -1.02515
 Alpha  occ. eigenvalues --   -1.02322  -0.95397  -0.93548  -0.83835  -0.75238
 Alpha  occ. eigenvalues --   -0.71566  -0.69440  -0.68809  -0.65217  -0.60663
 Alpha  occ. eigenvalues --   -0.60502  -0.59898  -0.56861  -0.51733  -0.51313
 Alpha  occ. eigenvalues --   -0.47932  -0.47301  -0.45775  -0.44951  -0.43025
 Alpha  occ. eigenvalues --   -0.41169  -0.40645  -0.39514  -0.37980  -0.36895
 Alpha  occ. eigenvalues --   -0.36510  -0.36026  -0.35512  -0.34791  -0.34628
 Alpha  occ. eigenvalues --   -0.33439  -0.32238  -0.32164  -0.31786  -0.30830
 Alpha  occ. eigenvalues --   -0.30213  -0.30003  -0.29441  -0.28630  -0.28437
 Alpha  occ. eigenvalues --   -0.27761  -0.27691  -0.26220  -0.24874  -0.24825
 Alpha  occ. eigenvalues --   -0.24377  -0.21999  -0.19823  -0.19680  -0.17285
 Alpha  occ. eigenvalues --   -0.16949  -0.14270   0.03961
 Alpha virt. eigenvalues --    0.05792   0.05892   0.06652   0.07327   0.07621
 Alpha virt. eigenvalues --    0.08055   0.08386   0.08694   0.09111   0.09372
 Alpha virt. eigenvalues --    0.09753   0.10009   0.10736   0.10883   0.11310

  Beta  occ. eigenvalues --  -19.10009 -19.08143 -19.02530 -19.00112 -14.25030
  Beta  occ. eigenvalues --  -10.21545 -10.19097 -10.14153 -10.13975 -10.13385
  Beta  occ. eigenvalues --  -10.13353 -10.11140 -10.11107 -10.08461 -10.08407
  Beta  occ. eigenvalues --  -10.07734 -10.07193 -10.07187 -10.06369  -1.02492
  Beta  occ. eigenvalues --   -1.02275  -0.95369  -0.93500  -0.83809  -0.75216
  Beta  occ. eigenvalues --   -0.71534  -0.69404  -0.68774  -0.65183  -0.60620
  Beta  occ. eigenvalues --   -0.60477  -0.59881  -0.56807  -0.51696  -0.51264
  Beta  occ. eigenvalues --   -0.47872  -0.47253  -0.45744  -0.44903  -0.42987
  Beta  occ. eigenvalues --   -0.41141  -0.40578  -0.39450  -0.37916  -0.36866
  Beta  occ. eigenvalues --   -0.36477  -0.35994  -0.35479  -0.34762  -0.34593
  Beta  occ. eigenvalues --   -0.33410  -0.32202  -0.32110  -0.31742  -0.30798
  Beta  occ. eigenvalues --   -0.30185  -0.29937  -0.29412  -0.28600  -0.28396
  Beta  occ. eigenvalues --   -0.27738  -0.27660  -0.26199  -0.24862  -0.24802
  Beta  occ. eigenvalues --   -0.24357  -0.21920  -0.19796  -0.19650  -0.17241
  Beta  occ. eigenvalues --   -0.16927  -0.14242
  Beta virt. eigenvalues --    0.05830   0.06328   0.06852   0.07369   0.07887
  Beta virt. eigenvalues --    0.08112   0.08168   0.08345   0.09143   0.09339
  Beta virt. eigenvalues --    0.09557   0.09836   0.10178   0.10934   0.11211

 Mulliken charges and spin densities:
               1          2
     1  C   -0.053007  -0.464840
     2  C    0.082520  -0.103524
     3  O    0.167498   0.032406
     4  C   -1.196929  -0.093357
     5  O   -0.095341   0.027131
     6  C    1.154917  -0.473705
     7  C    0.317007  -0.472315
     8  O   -0.300430   0.009520
     9  N   -0.190325   0.018154
    10  C    3.629198  -3.936275
    11  C    0.305237  -0.331958
    12  C   -3.094792   2.958183
    13  C    2.219976  -2.668839
    14  C   -0.942035   1.018688
    15  O   -0.008555   0.052103
    16  C   -0.704428   1.033454
    17  C   -0.220609  -0.402736
    18  C   -0.138816  -0.390821
    19  C   -0.585954  -0.069750
    20  H    0.244473  -0.073088
    21  H   -0.480060   0.630815
    22  H    0.052056   0.181623
    23  H   -0.127998   0.283764
    24  H    0.153101   0.001490
    25  H    0.380598  -0.056049
    26  H    0.284188   0.036018
    27  H   -0.681287   0.923395
    28  H    0.171120   0.026784
    29  H   -1.026895   1.223440
    30  H   -0.553902   0.728813
    31  H   -0.553921   0.728622
    32  H   -0.007257   0.146790
    33  H    0.087363   0.068909
    34  H    0.154926   0.030926
    35  H    0.188525  -0.012781
    36  H    0.100096   0.050326
    37  H   -0.104702   0.232513
    38  H    0.223211  -0.012369
    39  H    0.084114   0.048317
    40  H    0.067118   0.070224
 Sum of Mulliken charges =  -1.00000   1.00000

 Dipole moment (field-independent basis, Debye):
    X=              7.2556    Y=              2.1176    Z=             -0.6868  Tot=              7.5895
 Quadrupole moment (field-independent basis, Debye-Ang):
   XX=           -198.5409   YY=           -174.6318   ZZ=           -154.9273
   XY=             -4.5054   XZ=              5.7702   YZ=              5.0291

 Summary of Natural Population Analysis:

                                       Natural Population
                Natural  -----------------------------------------------
    Atom  No    Charge         Core      Valence    Rydberg      Total
 -----------------------------------------------------------------------
      C    1   -0.30084      0.99966     2.29600    0.00518     3.30084
      C    2   -0.01602      0.99957     2.00492    0.01153     3.01602
      O    3   -0.28009      0.99985     3.27075    0.00949     4.28009
      C    4    0.42467      0.99965     1.54980    0.02587     2.57533
      O    5   -0.30665      0.99987     3.30128    0.00550     4.30665
      C    6   -0.19247      0.99946     2.17928    0.01373     3.19247
      C    7    0.35696      0.99964     1.61937    0.02403     2.64304
      O    8   -0.32061      0.99987     3.31535    0.00539     4.32061
      N    9   -0.31243      0.99967     2.80279    0.00997     3.81243
      C   10   -0.11532      0.99955     2.10374    0.01203     3.11532
      C   11    0.14048      0.99946     1.84434    0.01572     2.85952
      C   12   -0.13893      0.99949     2.13024    0.00920     3.13893
      C   13   -0.14884      0.99956     2.14035    0.00892     3.14884
      C   14    0.06343      0.99950     1.92239    0.01467     2.93657
      O   15   -0.23449      0.99986     3.22561    0.00902     4.23449
      C   16   -0.03419      0.99959     2.02404    0.01055     3.03419
      C   17   -0.28473      0.99963     2.27911    0.00599     3.28473
      C   18   -0.28861      0.99962     2.28156    0.00742     3.28861
      C   19   -0.29053      0.99962     2.28484    0.00608     3.29053
      H   20    0.10260      0.00000     0.39620    0.00121     0.39740
      H   21    0.10166      0.00000     0.39691    0.00144     0.39834
      H   22    0.11097      0.00000     0.38724    0.00178     0.38903
      H   23    0.08947      0.00000     0.40951    0.00103     0.41053
      H   24    0.09415      0.00000     0.40470    0.00115     0.40585
      H   25    0.11876      0.00000     0.37932    0.00192     0.38124
      H   26    0.19614      0.00000     0.30170    0.00216     0.30386
      H   27    0.10578      0.00000     0.39158    0.00265     0.39422
      H   28    0.11592      0.00000     0.38184    0.00224     0.38408
      H   29    0.11387      0.00000     0.38309    0.00303     0.38613
      H   30    0.11054      0.00000     0.38796    0.00150     0.38946
      H   31    0.09745      0.00000     0.40111    0.00144     0.40255
      H   32    0.10114      0.00000     0.39801    0.00085     0.39886
      H   33    0.09840      0.00000     0.40081    0.00079     0.40160
      H   34    0.10202      0.00000     0.39713    0.00084     0.39798
      H   35    0.11216      0.00000     0.38699    0.00085     0.38784
      H   36    0.09710      0.00000     0.40224    0.00066     0.40290
      H   37    0.09867      0.00000     0.40050    0.00083     0.40133
      H   38    0.11811      0.00000     0.38101    0.00088     0.38189
      H   39    0.10112      0.00000     0.39797    0.00091     0.39888
      H   40    0.09320      0.00000     0.40603    0.00077     0.40680
 =======================================================================
   * Total *    0.00000     18.99313    52.76763    0.23923    72.00000

 Normal termination of Gaussian 16 at Mon Jan  4 14:10:48 2021.
