 Gaussian 16, Revision A.03,

 -----------------------------------------------------------
 # opt freq B3LYP/6-31G(d) empiricaldispersion=gd3bj scf=xqc
 -----------------------------------------------------------

 -------------------------------
 CID_127922826_JID_7331_neutraal
 -------------------------------
 Symbolic Z-matrix:
 Charge =  0 Multiplicity = 1

 SCF Done:  E(RB3LYP) =  -755.002070785     A.U. after   13 cycles
 SCF Done:  E(RB3LYP) =  -755.006575587     A.U. after   11 cycles
 SCF Done:  E(RB3LYP) =  -755.006935122     A.U. after   10 cycles
 SCF Done:  E(RB3LYP) =  -755.006849241     A.U. after   11 cycles
 SCF Done:  E(RB3LYP) =  -755.007228601     A.U. after   11 cycles
 SCF Done:  E(RB3LYP) =  -755.007351526     A.U. after    9 cycles
 SCF Done:  E(RB3LYP) =  -755.007385572     A.U. after   10 cycles
 SCF Done:  E(RB3LYP) =  -755.007405754     A.U. after    9 cycles
 SCF Done:  E(RB3LYP) =  -755.007412347     A.U. after    9 cycles
 SCF Done:  E(RB3LYP) =  -755.007415334     A.U. after    8 cycles
 SCF Done:  E(RB3LYP) =  -755.007415706     A.U. after    7 cycles
 Optimization completed.
    -- Stationary point found.
 Normal termination of Gaussian 16 at Sun Dec 13 12:29:51 2020.

 --------------------------------------------------------------------
 #N Geom=AllCheck Guess=TCheck SCRF=Check GenChk RB3LYP/6-31G(d) Freq
 --------------------------------------------------------------------

 Structure from the checkpoint file:  "JID_7331.chk"
 -------------------------------
 CID_127922826_JID_7331_neutraal
 -------------------------------
 Charge =  0 Multiplicity = 1

 SCF Done:  E(RB3LYP) =  -755.007415706     A.U. after    1 cycles

  Exact polarizability: 188.052  -2.813 142.448   1.477   1.658 138.235
 Approx polarizability: 226.296  -0.179 207.639   1.041   2.344 213.415

                      1                      2                      3
                      A                      A                      A
 Frequencies --     18.1300                32.3730                63.9092
 Red. masses --      3.4475                 3.4629                 4.1827
 Frc consts  --      0.0007                 0.0021                 0.0101
 IR Inten    --      0.3985                 0.5311                 0.3248

                      4                      5                      6
                      A                      A                      A
 Frequencies --     69.0378               108.0646               127.5940
 Red. masses --      3.7261                 2.4298                 5.0078
 Frc consts  --      0.0105                 0.0167                 0.0480
 IR Inten    --      0.0598                 5.5857                 1.0355

                      7                      8                      9
                      A                      A                      A
 Frequencies --    146.7941               210.1674               216.2449
 Red. masses --      2.8445                 1.9940                 1.3972
 Frc consts  --      0.0361                 0.0519                 0.0385
 IR Inten    --      0.2871                 1.7823                 1.6956

                     10                     11                     12
                      A                      A                      A
 Frequencies --    227.9133               241.6273               252.1614
 Red. masses --      2.0626                 1.1827                 1.2768
 Frc consts  --      0.0631                 0.0407                 0.0478
 IR Inten    --      1.0583                 0.3361                 0.9849

                     13                     14                     15
                      A                      A                      A
 Frequencies --    252.8419               278.1572               309.8713
 Red. masses --      2.0568                 2.6445                 1.9722
 Frc consts  --      0.0775                 0.1206                 0.1116
 IR Inten    --      0.4646                22.3984                 1.4550

                     16                     17                     18
                      A                      A                      A
 Frequencies --    314.5079               333.5195               347.7729
 Red. masses --      1.8636                 1.3966                 3.6540
 Frc consts  --      0.1086                 0.0915                 0.2604
 IR Inten    --      7.9058               141.4771                 1.7502

                     19                     20                     21
                      A                      A                      A
 Frequencies --    359.9231               377.4672               412.3903
 Red. masses --      2.1469                 2.3669                 2.3294
 Frc consts  --      0.1639                 0.1987                 0.2334
 IR Inten    --      1.3158                 2.9847                 7.0445

                     22                     23                     24
                      A                      A                      A
 Frequencies --    415.0989               425.6471               455.3350
 Red. masses --      2.3287                 1.8048                 2.5914
 Frc consts  --      0.2364                 0.1927                 0.3166
 IR Inten    --      0.3667                42.0910                 7.5440

                     25                     26                     27
                      A                      A                      A
 Frequencies --    466.5691               479.4714               484.9970
 Red. masses --      1.6142                 2.9812                 2.5982
 Frc consts  --      0.2070                 0.4038                 0.3601
 IR Inten    --      2.6175                 2.9515                 7.9479

                     28                     29                     30
                      A                      A                      A
 Frequencies --    516.5066               592.5079               618.7874
 Red. masses --      2.6703                 2.9347                 2.7528
 Frc consts  --      0.4197                 0.6070                 0.6210
 IR Inten    --      9.2153                 1.4665                 4.0741

                     31                     32                     33
                      A                      A                      A
 Frequencies --    702.0348               723.7884               765.7060
 Red. masses --      2.8770                 3.2272                 3.7480
 Frc consts  --      0.8354                 0.9961                 1.2947
 IR Inten    --      2.0035                 9.6760                 3.1174

                     34                     35                     36
                      A                      A                      A
 Frequencies --    796.4894               802.2371               837.9309
 Red. masses --      2.8654                 1.6297                 2.7947
 Frc consts  --      1.0710                 0.6179                 1.1561
 IR Inten    --      5.1690                 1.6818                 4.4939

                     37                     38                     39
                      A                      A                      A
 Frequencies --    873.5265               885.7759               911.1188
 Red. masses --      2.0679                 2.4740                 1.8277
 Frc consts  --      0.9297                 1.1437                 0.8939
 IR Inten    --      2.2687                13.7957                 2.3250

                     40                     41                     42
                      A                      A                      A
 Frequencies --    917.8667               926.8898               953.4607
 Red. masses --      2.0568                 1.7434                 1.4856
 Frc consts  --      1.0209                 0.8825                 0.7957
 IR Inten    --      4.1835                 4.9959                 7.5925

                     43                     44                     45
                      A                      A                      A
 Frequencies --    961.6955               969.4440               996.3829
 Red. masses --      1.5290                 2.0263                 2.0925
 Frc consts  --      0.8332                 1.1220                 1.2240
 IR Inten    --      8.7485                 2.8167                17.1868

                     46                     47                     48
                      A                      A                      A
 Frequencies --    999.5338              1005.1100              1010.6753
 Red. masses --      2.6091                 2.3661                 1.5564
 Frc consts  --      1.5358                 1.4084                 0.9367
 IR Inten    --     10.7133                14.4467                 0.3359

                     49                     50                     51
                      A                      A                      A
 Frequencies --   1022.6614              1035.7869              1056.3365
 Red. masses --      1.3561                 1.7367                 1.8028
 Frc consts  --      0.8356                 1.0978                 1.1852
 IR Inten    --      1.5919                 9.7146                42.4389

                     52                     53                     54
                      A                      A                      A
 Frequencies --   1061.6090              1078.6626              1087.8963
 Red. masses --      2.0942                 2.3861                 5.0083
 Frc consts  --      1.3906                 1.6357                 3.4923
 IR Inten    --     48.0811                64.7820                77.4825

                     55                     56                     57
                      A                      A                      A
 Frequencies --   1093.0214              1129.2034              1141.7215
 Red. masses --      2.1884                 2.3331                 1.7399
 Frc consts  --      1.5404                 1.7528                 1.3362
 IR Inten    --      9.2674                64.4003                12.4593

                     58                     59                     60
                      A                      A                      A
 Frequencies --   1156.5968              1174.5351              1185.6397
 Red. masses --      1.8194                 1.8792                 1.8747
 Frc consts  --      1.4340                 1.5274                 1.5527
 IR Inten    --      8.2944                 4.2637                70.9769

                     61                     62                     63
                      A                      A                      A
 Frequencies --   1214.7564              1227.5509              1235.5302
 Red. masses --      1.6601                 1.4110                 2.0440
 Frc consts  --      1.4433                 1.2527                 1.8384
 IR Inten    --     10.9846                 9.0228                18.2886

                     64                     65                     66
                      A                      A                      A
 Frequencies --   1242.7659              1258.5904              1274.9342
 Red. masses --      1.5543                 1.2096                 1.8559
 Frc consts  --      1.4144                 1.1290                 1.7773
 IR Inten    --      2.0683                10.5338                11.1821

                     67                     68                     69
                      A                      A                      A
 Frequencies --   1289.9483              1318.4095              1341.0979
 Red. masses --      2.1828                 1.7087                 1.4626
 Frc consts  --      2.1400                 1.7499                 1.5499
 IR Inten    --     27.4944                 6.5887                 4.9724

                     70                     71                     72
                      A                      A                      A
 Frequencies --   1344.3385              1350.8338              1356.2854
 Red. masses --      1.6438                 1.3881                 1.6459
 Frc consts  --      1.7504                 1.4924                 1.7839
 IR Inten    --      2.7584                 8.2052                 3.0346

                     73                     74                     75
                      A                      A                      A
 Frequencies --   1370.1577              1376.5592              1380.6522
 Red. masses --      1.4524                 1.3915                 1.4770
 Frc consts  --      1.6065                 1.5536                 1.6588
 IR Inten    --      8.8642                 1.5418                 2.3253

                     76                     77                     78
                      A                      A                      A
 Frequencies --   1397.7952              1404.6639              1417.0392
 Red. masses --      1.2855                 1.2945                 1.2645
 Frc consts  --      1.4798                 1.5048                 1.4960
 IR Inten    --     24.4292                 1.3272                 5.0990

                     79                     80                     81
                      A                      A                      A
 Frequencies --   1422.9720              1427.1227              1429.9843
 Red. masses --      1.3466                 1.3312                 1.4121
 Frc consts  --      1.6065                 1.5974                 1.7012
 IR Inten    --     16.8651                20.4043                14.6059

                     82                     83                     84
                      A                      A                      A
 Frequencies --   1431.3321              1434.7254              1442.6316
 Red. masses --      1.2729                 1.2965                 1.2489
 Frc consts  --      1.5365                 1.5724                 1.5314
 IR Inten    --     10.1032                13.1845                 6.8075

                     85                     86                     87
                      A                      A                      A
 Frequencies --   1456.2240              1495.9935              1505.7961
 Red. masses --      1.2473                 1.0838                 1.0643
 Frc consts  --      1.5584                 1.4290                 1.4218
 IR Inten    --     19.3949                 5.0040                 0.1590

                     88                     89                     90
                      A                      A                      A
 Frequencies --   1506.8489              1509.3667              1512.1416
 Red. masses --      1.0807                 1.0896                 1.0694
 Frc consts  --      1.4458                 1.4626                 1.4407
 IR Inten    --      0.8091                 9.0496                 3.9763

                     91                     92                     93
                      A                      A                      A
 Frequencies --   1513.9281              1522.0502              1524.0696
 Red. masses --      1.0740                 1.0720                 1.0768
 Frc consts  --      1.4504                 1.4633                 1.4736
 IR Inten    --      3.8145                 6.4790                 1.5052

                     94                     95                     96
                      A                      A                      A
 Frequencies --   1528.8277              1529.6693              1530.0027
 Red. masses --      1.0719                 1.0545                 1.0874
 Frc consts  --      1.4761                 1.4538                 1.4997
 IR Inten    --      1.4563                 4.4793                 3.4766

                     97                     98                     99
                      A                      A                      A
 Frequencies --   1531.3403              1534.4592              1540.5613
 Red. masses --      1.0733                 1.0769                 1.0768
 Frc consts  --      1.4830                 1.4940                 1.5057
 IR Inten    --      6.3910                 6.9859                 0.4378

                    100                    101                    102
                      A                      A                      A
 Frequencies --   2987.4153              2990.2456              3016.0690
 Red. masses --      1.0711                 1.0705                 1.0674
 Frc consts  --      5.6323                 5.6395                 5.7209
 IR Inten    --    123.1309                38.6393                34.2061

                    103                    104                    105
                      A                      A                      A
 Frequencies --   3020.3899              3034.1794              3039.9623
 Red. masses --      1.0641                 1.0554                 1.0442
 Frc consts  --      5.7197                 5.7246                 5.6855
 IR Inten    --     37.7970                16.5129                49.9754

                    106                    107                    108
                      A                      A                      A
 Frequencies --   3046.2954              3049.6275              3054.5700
 Red. masses --      1.0842                 1.0360                 1.0395
 Frc consts  --      5.9281                 5.6768                 5.7147
 IR Inten    --    107.1858                22.5353                16.7545

                    109                    110                    111
                      A                      A                      A
 Frequencies --   3056.3700              3062.7353              3070.0373
 Red. masses --      1.0604                 1.0603                 1.0915
 Frc consts  --      5.8362                 5.8598                 6.0614
 IR Inten    --     41.2197                20.0451                17.7373

                    112                    113                    114
                      A                      A                      A
 Frequencies --   3074.8909              3079.9877              3082.9604
 Red. masses --      1.0748                 1.0945                 1.0951
 Frc consts  --      5.9876                 6.1171                 6.1326
 IR Inten    --     31.4658                28.9080                15.9465

                    115                    116                    117
                      A                      A                      A
 Frequencies --   3087.2597              3092.2889              3102.6356
 Red. masses --      1.0947                 1.0942                 1.1048
 Frc consts  --      6.1477                 6.1648                 6.2659
 IR Inten    --     35.2399                40.9551                36.0821

                    118                    119                    120
                      A                      A                      A
 Frequencies --   3103.1992              3113.4450              3113.8285
 Red. masses --      1.1020                 1.1010                 1.0996
 Frc consts  --      6.2523                 6.2882                 6.2817
 IR Inten    --     52.7574                55.8609                25.0172

                    121                    122                    123
                      A                      A                      A
 Frequencies --   3118.3758              3124.0608              3129.7984
 Red. masses --      1.1018                 1.1024                 1.1013
 Frc consts  --      6.3127                 6.3388                 6.3561
 IR Inten    --     19.3700                27.6488                31.5364

                    124                    125                    126
                      A                      A                      A
 Frequencies --   3132.2518              3133.3022              3762.7826
 Red. masses --      1.1025                 1.1015                 1.0660
 Frc consts  --      6.3732                 6.3715                 8.8929
 IR Inten    --     27.9542                40.8476                11.5023

 - Thermochemistry -
 -------------------
 Temperature   298.150 Kelvin.  Pressure   1.00000 Atm.
 Atom     1 has atomic number  6 and mass  12.00000

 Molecular mass:   241.20418 amu.
 Principal axes and moments of inertia in atomic units:
                           1         2         3
     Eigenvalues --  1688.392128079.116138492.91566
           X            0.99997  -0.00503   0.00498
           Y            0.00504   0.99998  -0.00225
           Z           -0.00497   0.00228   0.99999
 This molecule is an asymmetric top.
 Rotational symmetry number  1.
 Warning -- assumption of classical behavior for rotation
           may cause significant error
 Rotational temperatures (Kelvin)      0.05130     0.01072     0.01020
 Rotational constants (GHZ):           1.06891     0.22338     0.21250
 Zero-point vibrational energy    1060068.7 (Joules/Mol)
                                  253.36250 (Kcal/Mol)
 Warning -- explicit consideration of  30 degrees of freedom as
           vibrations may cause significant error
 Vibrational temperatures:     26.08    46.58    91.95    99.33   155.48
          (Kelvin)            183.58   211.20   302.38   311.13   327.92
                              347.65   362.80   363.78   400.21   445.84
                              452.51   479.86   500.37   517.85   543.09
                              593.34   597.23   612.41   655.13   671.29
                              689.85   697.80   743.14   852.49   890.30
                             1010.07  1041.37  1101.68  1145.97  1154.24
                             1205.60  1256.81  1274.43  1310.90  1320.61
                             1333.59  1371.82  1383.67  1394.81  1433.57
                             1438.11  1446.13  1454.14  1471.38  1490.27
                             1519.83  1527.42  1551.95  1565.24  1572.61
                             1624.67  1642.68  1664.08  1689.89  1705.87
                             1747.76  1766.17  1777.65  1788.06  1810.83
                             1834.35  1855.95  1896.90  1929.54  1934.20
                             1943.55  1951.39  1971.35  1980.56  1986.45
                             2011.12  2021.00  2038.80  2047.34  2053.31
                             2057.43  2059.37  2064.25  2075.63  2095.18
                             2152.40  2166.50  2168.02  2171.64  2175.63
                             2178.20  2189.89  2192.80  2199.64  2200.85
                             2201.33  2203.26  2207.74  2216.52  4298.22
                             4302.30  4339.45  4345.67  4365.51  4373.83
                             4382.94  4387.73  4394.84  4397.43  4406.59
                             4417.10  4424.08  4431.42  4435.69  4441.88
                             4449.11  4464.00  4464.81  4479.55  4480.10
                             4486.65  4494.83  4503.08  4506.61  4508.12
                             5413.80

 Zero-point correction=                           0.403759 (Hartree/Particle)
 Thermal correction to Energy=                    0.421829
 Thermal correction to Enthalpy=                  0.422773
 Thermal correction to Gibbs Free Energy=         0.357737
 Sum of electronic and zero-point Energies=           -754.603657
 Sum of electronic and thermal Energies=              -754.585587
 Sum of electronic and thermal Enthalpies=            -754.584642
 Sum of electronic and thermal Free Energies=         -754.649679

                     E (Thermal)             CV                S
                      KCal/Mol        Cal/Mol-Kelvin    Cal/Mol-Kelvin
 Total                  264.702             71.453            136.881
 Electronic               0.000              0.000              0.000
 Translational            0.889              2.981             42.343
 Rotational               0.889              2.981             33.115
 Vibrational            262.924             65.491             61.423
 Vibration     1          0.593              1.986              6.829
 Vibration     2          0.594              1.983              5.678
 Vibration     3          0.597              1.972              4.333
 Vibration     4          0.598              1.969              4.181
 Vibration     5          0.606              1.943              3.303
 Vibration     6          0.611              1.926              2.982
 Vibration     7          0.617              1.906              2.713
 Vibration     8          0.642              1.825              2.042
 Vibration     9          0.645              1.816              1.990
 Vibration    10          0.651              1.798              1.895
 Vibration    11          0.658              1.777              1.791
 Vibration    12          0.664              1.759              1.715
 Vibration    13          0.664              1.758              1.711
 Vibration    14          0.679              1.714              1.545
 Vibration    15          0.699              1.655              1.363
 Vibration    16          0.702              1.646              1.339
 Vibration    17          0.715              1.609              1.243
 Vibration    18          0.725              1.580              1.176
 Vibration    19          0.734              1.555              1.122
 Vibration    20          0.748              1.518              1.049
 Vibration    21          0.776              1.443              0.918
 Vibration    22          0.779              1.437              0.909
 Vibration    23          0.787              1.414              0.873
 Vibration    24          0.814              1.349              0.780
 Vibration    25          0.824              1.324              0.747
 Vibration    26          0.836              1.296              0.711
 Vibration    27          0.841              1.283              0.697
 Vibration    28          0.872              1.213              0.618
 Vibration    29          0.950              1.048              0.463
 Vibration    30          0.979              0.992              0.418

                           ! Non-Optimized Parameters !
 Normal termination of Gaussian 16 at Sun Dec 13 12:51:54 2020.

 ----------------------------------------------------------------------
 # B3LYP/6-311++G(d,p) empiricaldispersion=gd3bj scf=xqc pop=npa geom=c
 heck
 ----------------------------------------------------------------------

 ---------------------------------------
 CID_127922826_JID_7331_Energie_neutraal
 ---------------------------------------
 Structure from the checkpoint file:  "JID_7331.chk"
 Charge =  0 Multiplicity = 1

 SCF Done:  E(RB3LYP) =  -755.224804805     A.U. after   13 cycles
 Normal termination of Gaussian 16 at Sun Dec 13 13:01:28 2020.

 ----------------------------------------------------------------------
 # B3LYP/6-311++G(d,p) empiricaldispersion=gd3bj scf=xqc pop=npa geom=c
 heck
 ----------------------------------------------------------------------

 -------------------------------------
 CID_127922826_JID_7331_Energie_kation
 -------------------------------------
 Structure from the checkpoint file:  "JID_7331.chk"
 Charge =  1 Multiplicity = 2

 SCF Done:  E(UB3LYP) =  -754.961388667     A.U. after   18 cycles
 Normal termination of Gaussian 16 at Sun Dec 13 13:21:02 2020.
 Gaussian 16:  ES64L-G16RevA.03 25-Dec-2016

 ----------------------------------------------------------------------
 # B3LYP/6-311++G(d,p) empiricaldispersion=gd3bj scf=xqc pop=npa geom=c
 heck
 ----------------------------------------------------------------------

 ------------------------------------
 CID_127922826_JID_7331_Energie_anion
 ------------------------------------
 Structure from the checkpoint file:  "JID_7331.chk"
 Charge = -1 Multiplicity = 2

                         Standard orientation:
 ---------------------------------------------------------------------
 Center     Atomic      Atomic             Coordinates (Angstroms)
 Number     Number       Type             X           Y           Z
 ---------------------------------------------------------------------
      1          6           0        4.103847    1.565779   -0.606574
      2          6           0        3.701494    0.179330   -0.086778
      3          6           0        3.133044    0.240227    1.340725
      4          6           0        1.665686    0.620177    1.108724
      5          6           0        1.336490   -0.067147   -0.234805
      6          8           0        2.600245   -0.318734   -0.872480
      7          6           0        0.625406   -1.435145   -0.106360
      8          7           0       -0.818072   -1.490948    0.021577
      9          6           0       -1.618904   -1.279552   -1.170693
     10          6           0       -2.093068    0.173331   -1.381565
     11          6           0       -2.723887    0.834640   -0.130511
     12          6           0       -1.863712    0.514376    1.115574
     13          6           0       -1.453037   -0.965676    1.223169
     14          6           0       -2.747435    2.359478   -0.342387
     15          6           0       -4.197850    0.418598    0.069868
     16          8           0       -4.446809   -0.952056    0.367202
     17          6           0        4.847880   -0.815563   -0.239324
     18          1           0        4.350668    1.505444   -1.671253
     19          1           0        3.286353    2.285311   -0.490447
     20          1           0        4.977615    1.951026   -0.068285
     21          1           0        3.202099   -0.750888    1.804234
     22          1           0        3.666709    0.948847    1.981375
     23          1           0        1.015624    0.282810    1.919395
     24          1           0        1.553439    1.706504    1.029634
     25          1           0        0.747142    0.591907   -0.883994
     26          1           0        0.901108   -2.004922   -1.000797
     27          1           0        1.068468   -1.966673    0.748771
     28          1           0       -2.492262   -1.948628   -1.116792
     29          1           0       -1.041311   -1.605333   -2.042539
     30          1           0       -2.804882    0.212800   -2.219754
     31          1           0       -1.228726    0.775442   -1.687669
     32          1           0       -0.961936    1.137123    1.075293
     33          1           0       -2.409693    0.811265    2.021708
     34          1           0       -2.351034   -1.559662    1.425636
     35          1           0       -0.769000   -1.108372    2.067430
     36          1           0       -3.341571    2.632319   -1.223483
     37          1           0       -3.175200    2.874521    0.526521
     38          1           0       -1.732337    2.742982   -0.492355
     39          1           0       -4.600803    0.969109    0.927164
     40          1           0       -4.774772    0.729568   -0.816663
     41          1           0       -4.285053   -1.466147   -0.437250
     42          1           0        4.527809   -1.811074    0.083856
     43          1           0        5.164019   -0.879552   -1.285736
     44          1           0        5.710821   -0.509887    0.362809
 ---------------------------------------------------------------------

 SCF Done:  E(UB3LYP) =  -755.212361673     A.U. after   31 cycles

 The electronic state is 2-A.
 Alpha  occ. eigenvalues --  -19.03130 -19.02011 -14.20303 -10.13357 -10.12128
 Alpha  occ. eigenvalues --  -10.11957 -10.10008 -10.09584 -10.09323 -10.09095
 Alpha  occ. eigenvalues --  -10.07569 -10.07520 -10.07102 -10.06917 -10.06912
 Alpha  occ. eigenvalues --  -10.06838 -10.06286  -0.93935  -0.93253  -0.83090
 Alpha  occ. eigenvalues --   -0.72982  -0.70591  -0.68848  -0.66016  -0.63736
 Alpha  occ. eigenvalues --   -0.59924  -0.59697  -0.58353  -0.55316  -0.54044
 Alpha  occ. eigenvalues --   -0.50605  -0.48499  -0.45753  -0.45214  -0.41747
 Alpha  occ. eigenvalues --   -0.40085  -0.39374  -0.37973  -0.37268  -0.36303
 Alpha  occ. eigenvalues --   -0.36190  -0.35413  -0.34588  -0.34286  -0.32595
 Alpha  occ. eigenvalues --   -0.31411  -0.31026  -0.30768  -0.29918  -0.29386
 Alpha  occ. eigenvalues --   -0.28980  -0.28648  -0.28180  -0.27487  -0.27099
 Alpha  occ. eigenvalues --   -0.26326  -0.25734  -0.24793  -0.24219  -0.23869
 Alpha  occ. eigenvalues --   -0.23178  -0.22868  -0.21951  -0.21344  -0.17790
 Alpha  occ. eigenvalues --   -0.16311  -0.10483   0.04067
 Alpha virt. eigenvalues --    0.05543   0.06575   0.07217   0.07776   0.08067
 Alpha virt. eigenvalues --    0.08465   0.09321   0.09365   0.09915   0.10143
 Alpha virt. eigenvalues --    0.10444   0.10741   0.10968   0.11769   0.12461

  Beta  occ. eigenvalues --  -19.03111 -19.02006 -14.20298 -10.13357 -10.12107
  Beta  occ. eigenvalues --  -10.11949 -10.09988 -10.09577 -10.09316 -10.09095
  Beta  occ. eigenvalues --  -10.07553 -10.07499 -10.07078 -10.06905 -10.06891
  Beta  occ. eigenvalues --  -10.06820 -10.06253  -0.93924  -0.93213  -0.83078
  Beta  occ. eigenvalues --   -0.72959  -0.70571  -0.68820  -0.65990  -0.63710
  Beta  occ. eigenvalues --   -0.59877  -0.59659  -0.58295  -0.55273  -0.53996
  Beta  occ. eigenvalues --   -0.50569  -0.48468  -0.45717  -0.45171  -0.41697
  Beta  occ. eigenvalues --   -0.40053  -0.39340  -0.37946  -0.37245  -0.36274
  Beta  occ. eigenvalues --   -0.36157  -0.35379  -0.34551  -0.34252  -0.32573
  Beta  occ. eigenvalues --   -0.31384  -0.31004  -0.30743  -0.29895  -0.29362
  Beta  occ. eigenvalues --   -0.28951  -0.28623  -0.28157  -0.27455  -0.27070
  Beta  occ. eigenvalues --   -0.26294  -0.25712  -0.24771  -0.24186  -0.23844
  Beta  occ. eigenvalues --   -0.23147  -0.22845  -0.21935  -0.21323  -0.17766
  Beta  occ. eigenvalues --   -0.16295  -0.10439
  Beta virt. eigenvalues --    0.06086   0.06586   0.07036   0.07544   0.08166
  Beta virt. eigenvalues --    0.08518   0.08808   0.09588   0.09663   0.10172
  Beta virt. eigenvalues --    0.10338   0.10578   0.11046   0.11153   0.12057

 Mulliken charges and spin densities:
               1          2
     1  C    0.763779  -1.346681
     2  C   -1.230283   1.657545
     3  C    1.211949  -2.017327
     4  C   -0.606328   0.485181
     5  C   -0.030109  -0.196873
     6  O    0.005768  -0.019801
     7  C   -0.847589   0.024577
     8  N    0.105497   0.095847
     9  C    1.244955  -1.513573
    10  C   -1.154938   1.019855
    11  C   -0.406483   0.430907
    12  C    0.042334   0.179000
    13  C   -0.256312  -0.502951
    14  C    0.288797  -0.893526
    15  C    0.872564  -1.417768
    16  O   -0.204118   0.033621
    17  C   -0.090374  -0.295650
    18  H   -0.017570   0.166734
    19  H   -0.351239   0.492524
    20  H   -0.180984   0.322156
    21  H    0.077065   0.078329
    22  H   -0.440409   0.643967
    23  H    0.205142  -0.082365
    24  H   -0.000683   0.188059
    25  H    0.775997  -0.516456
    26  H    0.091328   0.096518
    27  H    0.161508   0.019021
    28  H   -0.055393   0.192736
    29  H   -0.064771   0.202052
    30  H   -0.360886   0.564313
    31  H   -0.327330   0.489399
    32  H   -0.108451   0.370063
    33  H   -0.024275   0.188488
    34  H    0.276995  -0.048197
    35  H   -0.099856   0.233133
    36  H   -0.094103   0.239042
    37  H   -0.051076   0.182187
    38  H    0.021103   0.121047
    39  H    0.137985   0.037640
    40  H   -0.291791   0.445508
    41  H    0.040761   0.196955
    42  H    0.005053   0.135399
    43  H    0.032965   0.116346
    44  H   -0.066192   0.203021
 Sum of Mulliken charges =  -1.00000   1.00000

 Dipole moment (field-independent basis, Debye):
    X=             -0.2641    Y=             -2.3091    Z=              1.1284  Tot=              2.5836
 Quadrupole moment (field-independent basis, Debye-Ang):
   XX=           -212.9079   YY=           -151.3280   ZZ=           -148.6429
   XY=            -11.2526   XZ=            -10.5069   YZ=             -1.4937

 Summary of Natural Population Analysis:

                                       Natural Population
                Natural  -----------------------------------------------
    Atom  No    Charge         Core      Valence    Rydberg      Total
 -----------------------------------------------------------------------
      C    1   -0.29519      0.99960     2.28867    0.00692     3.29519
      C    2    0.13140      0.99955     1.85239    0.01665     2.86860
      C    3   -0.19989      0.99958     2.19058    0.00974     3.19989
      C    4   -0.20683      0.99962     2.19831    0.00890     3.20683
      C    5    0.05550      0.99955     1.93204    0.01291     2.94450
      O    6   -0.31577      0.99987     3.30680    0.00909     4.31577
      C    7   -0.08358      0.99958     2.07211    0.01189     3.08358
      N    8   -0.28274      0.99972     2.77026    0.01276     3.78274
      C    9   -0.07695      0.99961     2.06503    0.01232     3.07695
      C   10   -0.20165      0.99958     2.19115    0.01091     3.20165
      C   11   -0.05674      0.99956     2.04464    0.01254     3.05674
      C   12   -0.19871      0.99958     2.18984    0.00929     3.19871
      C   13   -0.08396      0.99961     2.07468    0.00967     3.08396
      C   14   -0.28137      0.99962     2.27451    0.00724     3.28137
      C   15   -0.00515      0.99951     1.99123    0.01441     3.00515
      O   16   -0.37133      0.99990     3.36472    0.00671     4.37133
      C   17   -0.28686      0.99960     2.28145    0.00581     3.28686
      H   18    0.10198      0.00000     0.39708    0.00094     0.39802
      H   19    0.10204      0.00000     0.39672    0.00124     0.39796
      H   20    0.10037      0.00000     0.39837    0.00126     0.39963
      H   21    0.09763      0.00000     0.40113    0.00123     0.40237
      H   22    0.10729      0.00000     0.39126    0.00145     0.39271
      H   23    0.10401      0.00000     0.39477    0.00122     0.39599
      H   24    0.10230      0.00000     0.39615    0.00155     0.39770
      H   25    0.08524      0.00000     0.41272    0.00204     0.41476
      H   26    0.10025      0.00000     0.39846    0.00129     0.39975
      H   27    0.09005      0.00000     0.40869    0.00127     0.40995
      H   28    0.08177      0.00000     0.41669    0.00154     0.41823
      H   29    0.09805      0.00000     0.40095    0.00101     0.40195
      H   30    0.10141      0.00000     0.39672    0.00187     0.39859
      H   31    0.09759      0.00000     0.40052    0.00189     0.40241
      H   32    0.09747      0.00000     0.40035    0.00218     0.40253
      H   33    0.09900      0.00000     0.40000    0.00100     0.40100
      H   34    0.10145      0.00000     0.39723    0.00131     0.39855
      H   35    0.09328      0.00000     0.40577    0.00095     0.40672
      H   36    0.10096      0.00000     0.39802    0.00101     0.39904
      H   37    0.09866      0.00000     0.40044    0.00090     0.40134
      H   38    0.10269      0.00000     0.39621    0.00110     0.39731
      H   39    0.08474      0.00000     0.41403    0.00123     0.41526
      H   40    0.08001      0.00000     0.41852    0.00147     0.41999
      H   41    0.22822      0.00000     0.26791    0.00387     0.27178
      H   42    0.10133      0.00000     0.39767    0.00100     0.39867
      H   43    0.10153      0.00000     0.39754    0.00093     0.39847
      H   44    0.10052      0.00000     0.39856    0.00092     0.39948
 =======================================================================
   * Total *   -0.00000     16.99364    49.79092    0.21545    67.00000

 Normal termination of Gaussian 16 at Sun Dec 13 13:53:13 2020.
