 Gaussian 16, Revision A.03,

 -----------------------------------------------------------
 # opt freq B3LYP/6-31G(d) empiricaldispersion=gd3bj scf=xqc
 -----------------------------------------------------------

 -------------------------------
 CID_112636651_JID_8122_neutraal
 -------------------------------
 Symbolic Z-matrix:
 Charge =  0 Multiplicity = 1

 SCF Done:  E(RB3LYP) =  -838.864344409     A.U. after   15 cycles
 SCF Done:  E(RB3LYP) =  -838.873745408     A.U. after   12 cycles
 SCF Done:  E(RB3LYP) =  -838.875536613     A.U. after   13 cycles
 SCF Done:  E(RB3LYP) =  -838.875941674     A.U. after   13 cycles
 SCF Done:  E(RB3LYP) =  -838.876188311     A.U. after   12 cycles
 SCF Done:  E(RB3LYP) =  -838.876487803     A.U. after   12 cycles
 SCF Done:  E(RB3LYP) =  -838.876555612     A.U. after   11 cycles
 SCF Done:  E(RB3LYP) =  -838.876611684     A.U. after   11 cycles
 SCF Done:  E(RB3LYP) =  -838.876639406     A.U. after   10 cycles
 SCF Done:  E(RB3LYP) =  -838.876692511     A.U. after   10 cycles
 SCF Done:  E(RB3LYP) =  -838.878422990     A.U. after    8 cycles
 SCF Done:  E(RB3LYP) =  -838.878425204     A.U. after    9 cycles
 SCF Done:  E(RB3LYP) =  -838.878425643     A.U. after    8 cycles
 SCF Done:  E(RB3LYP) =  -838.878425901     A.U. after    8 cycles
 SCF Done:  E(RB3LYP) =  -838.878425978     A.U. after    7 cycles
 Optimization completed.
    -- Stationary point found.
 Normal termination of Gaussian 16 at Fri Dec 11 18:57:59 2020.

 --------------------------------------------------------------------
 #N Geom=AllCheck Guess=TCheck SCRF=Check GenChk RB3LYP/6-31G(d) Freq
 --------------------------------------------------------------------

 Structure from the checkpoint file:  "JID_8122.chk"
 -------------------------------
 CID_112636651_JID_8122_neutraal
 -------------------------------
 Charge =  0 Multiplicity = 1

 SCF Done:  E(RB3LYP) =  -838.878425978     A.U. after    1 cycles

  Exact polarizability: 197.054 -11.178 167.509 -15.045  -2.355 119.001
 Approx polarizability: 251.310 -13.095 263.692 -36.370  -5.123 178.046

                      1                      2                      3
                      A                      A                      A
 Frequencies --     17.4963                31.4590                33.5031
 Red. masses --      4.3122                 4.2709                 3.7895
 Frc consts  --      0.0008                 0.0025                 0.0025
 IR Inten    --      1.8353                 0.4567                 1.3508

                      4                      5                      6
                      A                      A                      A
 Frequencies --     47.6907                58.3454                83.7732
 Red. masses --      3.9347                 3.9594                 2.2180
 Frc consts  --      0.0053                 0.0079                 0.0092
 IR Inten    --      1.1403                 3.8163                 0.1922

                      7                      8                      9
                      A                      A                      A
 Frequencies --     98.2925               107.8615               130.4944
 Red. masses --      1.1934                 1.6837                 1.4343
 Frc consts  --      0.0068                 0.0115                 0.0144
 IR Inten    --      0.3378                 0.1181                 0.1558

                     10                     11                     12
                      A                      A                      A
 Frequencies --    147.3777               166.0147               177.8430
 Red. masses --      2.8260                 1.8236                 2.5865
 Frc consts  --      0.0362                 0.0296                 0.0482
 IR Inten    --      1.6749                 2.3668                 1.1476

                     13                     14                     15
                      A                      A                      A
 Frequencies --    183.9472               215.1745               222.2838
 Red. masses --      2.9570                 2.8335                 2.8856
 Frc consts  --      0.0590                 0.0773                 0.0840
 IR Inten    --      3.3458                 4.8572                 3.5902

                     16                     17                     18
                      A                      A                      A
 Frequencies --    231.7506               253.5900               305.0546
 Red. masses --      3.0166                 1.6299                 3.4464
 Frc consts  --      0.0955                 0.0618                 0.1890
 IR Inten    --      0.6952                 2.2859                 4.6845

                     19                     20                     21
                      A                      A                      A
 Frequencies --    318.3936               344.5901               355.5072
 Red. masses --      2.4042                 3.0826                 2.9589
 Frc consts  --      0.1436                 0.2157                 0.2203
 IR Inten    --      1.6583                 8.7994                 9.2591

                     22                     23                     24
                      A                      A                      A
 Frequencies --    417.6050               426.9475               448.3596
 Red. masses --      3.0662                 2.6018                 2.7762
 Frc consts  --      0.3150                 0.2794                 0.3288
 IR Inten    --      3.2626                18.1927                 1.5403

                     25                     26                     27
                      A                      A                      A
 Frequencies --    485.5951               538.4334               547.9498
 Red. masses --      3.2699                 3.3465                 2.1692
 Frc consts  --      0.4543                 0.5716                 0.3837
 IR Inten    --     24.3643                 3.6936                60.7689

                     28                     29                     30
                      A                      A                      A
 Frequencies --    567.6814               592.0934               598.4682
 Red. masses --      4.5234                 4.2772                 3.9673
 Frc consts  --      0.8589                 0.8835                 0.8372
 IR Inten    --     13.9877                30.5543                 7.5369

                     31                     32                     33
                      A                      A                      A
 Frequencies --    633.7644               682.2616               710.2376
 Red. masses --      2.5721                 3.2880                 4.1644
 Frc consts  --      0.6087                 0.9017                 1.2377
 IR Inten    --     40.0480                 1.6322                 1.1793

                     34                     35                     36
                      A                      A                      A
 Frequencies --    724.4703               786.1166               798.3292
 Red. masses --      2.8494                 1.3440                 6.3509
 Frc consts  --      0.8811                 0.4893                 2.3848
 IR Inten    --     30.4177                 1.4147                13.3876

                     37                     38                     39
                      A                      A                      A
 Frequencies --    821.7961               833.6380               868.1745
 Red. masses --      1.4811                 7.0390                 2.7544
 Frc consts  --      0.5894                 2.8821                 1.2232
 IR Inten    --     24.7039                13.0257                 2.4186

                     40                     41                     42
                      A                      A                      A
 Frequencies --    931.8342               941.8412               973.2123
 Red. masses --      1.3446                 3.0932                 2.8001
 Frc consts  --      0.6879                 1.6167                 1.5625
 IR Inten    --      2.2071                15.9936                 7.9440

                     43                     44                     45
                      A                      A                      A
 Frequencies --    981.4384              1001.3671              1025.5825
 Red. masses --      3.3210                 3.4151                 2.2254
 Frc consts  --      1.8847                 2.0176                 1.3791
 IR Inten    --     13.4206                 1.4377                 3.8883

                     46                     47                     48
                      A                      A                      A
 Frequencies --   1048.7347              1074.3845              1084.2237
 Red. masses --      2.0588                 1.5964                 2.2134
 Frc consts  --      1.3341                 1.0857                 1.5330
 IR Inten    --     21.6558                 4.9919                15.6815

                     49                     50                     51
                      A                      A                      A
 Frequencies --   1091.3022              1100.9955              1128.3442
 Red. masses --      2.9060                 1.4800                 1.9464
 Frc consts  --      2.0391                 1.0570                 1.4601
 IR Inten    --     85.1732                 7.8647                 6.6611

                     52                     53                     54
                      A                      A                      A
 Frequencies --   1142.8473              1162.7918              1181.7667
 Red. masses --      1.2231                 2.4002                 1.5504
 Frc consts  --      0.9412                 1.9120                 1.2757
 IR Inten    --      0.6251                68.6812                11.5170

                     55                     56                     57
                      A                      A                      A
 Frequencies --   1184.8710              1201.9603              1220.4436
 Red. masses --      1.6117                 2.0026                 2.1198
 Frc consts  --      1.3332                 1.7046                 1.8603
 IR Inten    --     18.0790                76.6694               111.9618

                     58                     59                     60
                      A                      A                      A
 Frequencies --   1279.8122              1297.8009              1310.0432
 Red. masses --      1.4246                 4.8860                 1.2009
 Frc consts  --      1.3748                 4.8486                 1.2143
 IR Inten    --     25.1107                51.5428                 5.5808

                     61                     62                     63
                      A                      A                      A
 Frequencies --   1317.3329              1326.8808              1373.4142
 Red. masses --      3.4698                 1.3135                 1.5094
 Frc consts  --      3.5477                 1.3625                 1.6774
 IR Inten    --     28.9985                25.6608                84.3539

                     64                     65                     66
                      A                      A                      A
 Frequencies --   1390.8454              1409.2749              1418.7394
 Red. masses --      1.6527                 1.7434                 1.7054
 Frc consts  --      1.8836                 2.0400                 2.0224
 IR Inten    --    175.1519                66.7815                25.0357

                     67                     68                     69
                      A                      A                      A
 Frequencies --   1431.8561              1443.9717              1447.8090
 Red. masses --      1.2722                 1.3816                 1.3565
 Frc consts  --      1.5368                 1.6973                 1.6753
 IR Inten    --      6.3571                54.1949                25.3929

                     70                     71                     72
                      A                      A                      A
 Frequencies --   1459.9672              1468.0117              1484.9412
 Red. masses --      1.6642                 1.8213                 1.7056
 Frc consts  --      2.0900                 2.3125                 2.2158
 IR Inten    --     87.9212                29.1159                17.5374

                     73                     74                     75
                      A                      A                      A
 Frequencies --   1494.9815              1505.5489              1508.5471
 Red. masses --      1.4188                 1.0565                 1.1198
 Frc consts  --      1.8683                 1.4109                 1.5014
 IR Inten    --     18.9231                 6.5605                 3.2858

                     76                     77                     78
                      A                      A                      A
 Frequencies --   1509.1027              1513.1697              1521.6305
 Red. masses --      1.2329                 1.1259                 1.1285
 Frc consts  --      1.6543                 1.5189                 1.5394
 IR Inten    --      2.6808                47.5740                76.9617

                     79                     80                     81
                      A                      A                      A
 Frequencies --   1525.4614              1532.0591              1536.1951
 Red. masses --      1.0757                 1.1661                 1.0652
 Frc consts  --      1.4748                 1.6126                 1.4811
 IR Inten    --      3.3730                55.5171                27.8273

                     82                     83                     84
                      A                      A                      A
 Frequencies --   1538.4669              1557.9839              1560.6606
 Red. masses --      1.0509                 1.1770                 1.1445
 Frc consts  --      1.4655                 1.6833                 1.6424
 IR Inten    --      7.9173                16.5819                12.5280

                     85                     86                     87
                      A                      A                      A
 Frequencies --   1589.4210              1630.6669              1642.1106
 Red. masses --      2.9613                 8.8468                 5.4697
 Frc consts  --      4.4077                13.8601                 8.6900
 IR Inten    --    194.8329               399.7489               600.9429

                     88                     89                     90
                      A                      A                      A
 Frequencies --   1753.5719              3025.8872              3037.8066
 Red. masses --      9.2762                 1.0445                 1.0401
 Frc consts  --     16.8061                 5.6347                 5.6553
 IR Inten    --    290.6429                58.8384                81.3584

                     91                     92                     93
                      A                      A                      A
 Frequencies --   3038.6198              3056.3378              3058.4906
 Red. masses --      1.0613                 1.0368                 1.0357
 Frc consts  --      5.7733                 5.7065                 5.7079
 IR Inten    --     27.4935                15.4137                20.5979

                     94                     95                     96
                      A                      A                      A
 Frequencies --   3074.1007              3084.8625              3090.0028
 Red. masses --      1.0998                 1.1047                 1.0644
 Frc consts  --      6.1232                 6.1942                 5.9881
 IR Inten    --     15.6593                40.3655                64.3654

                     97                     98                     99
                      A                      A                      A
 Frequencies --   3090.8499              3100.2428              3114.6930
 Red. masses --      1.0710                 1.0932                 1.1001
 Frc consts  --      6.0284                 6.1908                 6.2879
 IR Inten    --     23.2050                18.7249                13.4956

                    100                    101                    102
                      A                      A                      A
 Frequencies --   3124.2311              3133.8125              3145.6252
 Red. masses --      1.1022                 1.1029                 1.1027
 Frc consts  --      6.3384                 6.3819                 6.4285
 IR Inten    --     50.6063                25.5086                19.3211

                    103                    104                    105
                      A                      A                      A
 Frequencies --   3155.3105              3156.2097              3192.8551
 Red. masses --      1.1047                 1.1026                 1.0964
 Frc consts  --      6.4802                 6.4717                 6.5853
 IR Inten    --     12.2628                 5.2572                 1.5107

                    106                    107                    108
                      A                      A                      A
 Frequencies --   3199.3703              3243.1218              3608.3020
 Red. masses --      1.0930                 1.0929                 1.0757
 Frc consts  --      6.5920                 6.7724                 8.2518
 IR Inten    --      6.9404                 1.9244                39.6445

 - Thermochemistry -
 -------------------
 Temperature   298.150 Kelvin.  Pressure   1.00000 Atm.
 Atom     1 has atomic number  6 and mass  12.00000

 Molecular mass:   252.15863 amu.
 Principal axes and moments of inertia in atomic units:
                           1         2         3
     Eigenvalues --  2605.557548134.294199483.72772
           X            0.99971  -0.02308   0.00639
           Y            0.02309   0.99973  -0.00116
           Z           -0.00636   0.00130   0.99998
 This molecule is an asymmetric top.
 Rotational symmetry number  1.
 Warning -- assumption of classical behavior for rotation
           may cause significant error
 Rotational temperatures (Kelvin)      0.03324     0.01065     0.00913
 Rotational constants (GHZ):           0.69265     0.22187     0.19030
 Zero-point vibrational energy     855337.8 (Joules/Mol)
                                  204.43064 (Kcal/Mol)
 Warning -- explicit consideration of  30 degrees of freedom as
           vibrations may cause significant error
 Vibrational temperatures:     25.17    45.26    48.20    68.62    83.95
          (Kelvin)            120.53   141.42   155.19   187.75   212.04
                              238.86   255.88   264.66   309.59   319.82
                              333.44   364.86   438.91   458.10   495.79
                              511.50   600.84   614.28   645.09   698.66
                              774.69   788.38   816.77   851.89   861.06
                              911.85   981.62  1021.87  1042.35  1131.05
                             1148.62  1182.38  1199.42  1249.11  1340.70
                             1355.10  1400.24  1412.07  1440.74  1475.58
                             1508.90  1545.80  1559.96  1570.14  1584.09
                             1623.44  1644.30  1673.00  1700.30  1704.77
                             1729.35  1755.95  1841.36  1867.25  1884.86
                             1895.35  1909.09  1976.04  2001.12  2027.63
                             2041.25  2060.12  2077.55  2083.07  2100.57
                             2112.14  2136.50  2150.94  2166.15  2170.46
                             2171.26  2177.11  2189.29  2194.80  2204.29
                             2210.24  2213.51  2241.59  2245.44  2286.82
                             2346.17  2362.63  2523.00  4353.58  4370.73
                             4371.90  4397.39  4400.49  4422.95  4438.43
                             4445.82  4447.04  4460.56  4481.35  4495.07
                             4508.86  4525.85  4539.79  4541.08  4593.81
                             4603.18  4666.13  5191.54

 Zero-point correction=                           0.325781 (Hartree/Particle)
 Thermal correction to Energy=                    0.345361
 Thermal correction to Enthalpy=                  0.346305
 Thermal correction to Gibbs Free Energy=         0.275270
 Sum of electronic and zero-point Energies=           -838.552645
 Sum of electronic and thermal Energies=              -838.533065
 Sum of electronic and thermal Enthalpies=            -838.532121
 Sum of electronic and thermal Free Energies=         -838.603156

                     E (Thermal)             CV                S
                      KCal/Mol        Cal/Mol-Kelvin    Cal/Mol-Kelvin
 Total                  216.717             70.442            149.506
 Electronic               0.000              0.000              0.000
 Translational            0.889              2.981             42.475
 Rotational               0.889              2.981             33.663
 Vibrational            214.940             64.481             73.368
 Vibration     1          0.593              1.986              6.900
 Vibration     2          0.594              1.983              5.735
 Vibration     3          0.594              1.983              5.610
 Vibration     4          0.595              1.978              4.911
 Vibration     5          0.596              1.974              4.512
 Vibration     6          0.601              1.960              3.800
 Vibration     7          0.604              1.950              3.488
 Vibration     8          0.606              1.943              3.307
 Vibration     9          0.612              1.923              2.939
 Vibration    10          0.617              1.906              2.706
 Vibration    11          0.624              1.884              2.480
 Vibration    12          0.628              1.870              2.351
 Vibration    13          0.631              1.862              2.288
 Vibration    14          0.645              1.818              1.999
 Vibration    15          0.648              1.807              1.940
 Vibration    16          0.653              1.792              1.865
 Vibration    17          0.665              1.757              1.705
 Vibration    18          0.696              1.664              1.389
 Vibration    19          0.705              1.638              1.318
 Vibration    20          0.723              1.586              1.191
 Vibration    21          0.731              1.564              1.142
 Vibration    22          0.781              1.432              0.900
 Vibration    23          0.789              1.412              0.869
 Vibration    24          0.807              1.365              0.801
 Vibration    25          0.842              1.282              0.695
 Vibration    26          0.893              1.165              0.569
 Vibration    27          0.903              1.144              0.548
 Vibration    28          0.924              1.101              0.509
 Vibration    29          0.950              1.049              0.463
 Vibration    30          0.956              1.035              0.452

                           ! Non-Optimized Parameters !
 Normal termination of Gaussian 16 at Fri Dec 11 19:12:46 2020.

 ----------------------------------------------------------------------
 # B3LYP/6-311++G(d,p) empiricaldispersion=gd3bj scf=xqc pop=npa geom=c
 heck
 ----------------------------------------------------------------------

 ---------------------------------------
 CID_112636651_JID_8122_Energie_neutraal
 ---------------------------------------
 Structure from the checkpoint file:  "JID_8122.chk"
 Charge =  0 Multiplicity = 1

 SCF Done:  E(RB3LYP) =  -839.114577759     A.U. after   15 cycles
 Normal termination of Gaussian 16 at Fri Dec 11 19:18:44 2020.

 ----------------------------------------------------------------------
 # B3LYP/6-311++G(d,p) empiricaldispersion=gd3bj scf=xqc pop=npa geom=c
 heck
 ----------------------------------------------------------------------

 -------------------------------------
 CID_112636651_JID_8122_Energie_kation
 -------------------------------------
 Structure from the checkpoint file:  "JID_8122.chk"
 Charge =  1 Multiplicity = 2

 SCF Done:  E(UB3LYP) =  -838.827930133     A.U. after   28 cycles
 Normal termination of Gaussian 16 at Fri Dec 11 19:33:22 2020.
 Gaussian 16:  ES64L-G16RevA.03 25-Dec-2016

 ----------------------------------------------------------------------
 # B3LYP/6-311++G(d,p) empiricaldispersion=gd3bj scf=xqc pop=npa geom=c
 heck
 ----------------------------------------------------------------------

 ------------------------------------
 CID_112636651_JID_8122_Energie_anion
 ------------------------------------
 Structure from the checkpoint file:  "JID_8122.chk"
 Charge = -1 Multiplicity = 2

                         Standard orientation:
 ---------------------------------------------------------------------
 Center     Atomic      Atomic             Coordinates (Angstroms)
 Number     Number       Type             X           Y           Z
 ---------------------------------------------------------------------
      1          6           0        4.295391   -1.080030    1.288597
      2          6           0        4.810703   -1.153865   -0.150907
      3          6           0        3.733583   -0.931997   -1.206709
      4          8           0        3.196185    0.406387   -1.115539
      5          6           0        2.003124    0.601157   -0.529512
      6          7           0        1.304130   -0.424833   -0.069345
      7          6           0        0.115453   -0.125845    0.498240
      8          7           0       -0.421249    1.095034    0.625033
      9          6           0        0.313157    2.122296    0.148234
     10          6           0        1.550641    1.931742   -0.443677
     11          6           0       -0.298056    3.489252    0.288318
     12          7           0       -0.569631   -1.192843    1.018011
     13          6           0       -1.979209   -1.089303    1.349020
     14          6           0       -2.848637   -1.293249    0.098180
     15          8           0       -2.732021   -2.355409   -0.512333
     16          7           0       -3.717677   -0.309071   -0.275194
     17          6           0       -3.801016    1.008570    0.344932
     18          6           0       -4.623618   -0.563097   -1.386273
     19          1           0        3.482155   -1.793387    1.456239
     20          1           0        3.908744   -0.081705    1.516671
     21          1           0        5.099676   -1.297821    1.999670
     22          1           0        5.610356   -0.417431   -0.301303
     23          1           0        5.253174   -2.141302   -0.342239
     24          1           0        4.158192   -0.994235   -2.212785
     25          1           0        2.921213   -1.653812   -1.108736
     26          1           0        2.147626    2.745805   -0.834019
     27          1           0       -1.242277    3.537596   -0.266470
     28          1           0       -0.531444    3.691525    1.339357
     29          1           0        0.367961    4.271653   -0.084826
     30          1           0       -0.279053   -2.084529    0.637009
     31          1           0       -2.228086   -1.911425    2.027225
     32          1           0       -2.141348   -0.151994    1.874041
     33          1           0       -2.819595    1.331169    0.696050
     34          1           0       -4.132397    1.723339   -0.415148
     35          1           0       -4.528225    1.032636    1.168633
     36          1           0       -4.485658   -1.592565   -1.713085
     37          1           0       -5.663279   -0.408346   -1.071432
     38          1           0       -4.409157    0.115219   -2.222068
 ---------------------------------------------------------------------

 SCF Done:  E(UB3LYP) =  -839.102960088     A.U. after   33 cycles
 SCF Done:  E(UB3LYP) =  -839.102960089     a.u. after    1 cycles

 The electronic state is 2-A.
 Alpha  occ. eigenvalues --  -19.07166 -18.99321 -14.25514 -14.24193 -14.21114
 Alpha  occ. eigenvalues --  -14.20454 -10.18231 -10.18212 -10.17754 -10.13519
 Alpha  occ. eigenvalues --  -10.12978 -10.12163 -10.10339 -10.10222 -10.08693
 Alpha  occ. eigenvalues --  -10.07689 -10.07539 -10.07280  -0.99540  -0.94681
 Alpha  occ. eigenvalues --   -0.90771  -0.84368  -0.82855  -0.79499  -0.71298
 Alpha  occ. eigenvalues --   -0.68929  -0.65168  -0.63797  -0.62359  -0.60412
 Alpha  occ. eigenvalues --   -0.59524  -0.53765  -0.53561  -0.50422  -0.45942
 Alpha  occ. eigenvalues --   -0.45353  -0.44187  -0.42239  -0.40707  -0.39599
 Alpha  occ. eigenvalues --   -0.38769  -0.38089  -0.37531  -0.36360  -0.35947
 Alpha  occ. eigenvalues --   -0.35238  -0.33868  -0.32775  -0.31863  -0.31718
 Alpha  occ. eigenvalues --   -0.31314  -0.30843  -0.30336  -0.29861  -0.29493
 Alpha  occ. eigenvalues --   -0.28350  -0.27673  -0.27109  -0.26680  -0.25744
 Alpha  occ. eigenvalues --   -0.25366  -0.22016  -0.21326  -0.18447  -0.16768
 Alpha  occ. eigenvalues --   -0.16460  -0.15320  -0.13305   0.03958
 Alpha virt. eigenvalues --    0.05260   0.06348   0.06560   0.07142   0.07551
 Alpha virt. eigenvalues --    0.07805   0.08111   0.08498   0.08856   0.09370
 Alpha virt. eigenvalues --    0.09778   0.10362   0.10563   0.10668   0.11334

  Beta  occ. eigenvalues --  -19.07161 -18.99320 -14.25512 -14.24193 -14.21084
  Beta  occ. eigenvalues --  -14.20434 -10.18214 -10.18191 -10.17751 -10.13511
  Beta  occ. eigenvalues --  -10.12913 -10.12157 -10.10308 -10.10177 -10.08673
  Beta  occ. eigenvalues --  -10.07666 -10.07546 -10.07265  -0.99515  -0.94677
  Beta  occ. eigenvalues --   -0.90740  -0.84356  -0.82831  -0.79430  -0.71259
  Beta  occ. eigenvalues --   -0.68882  -0.65136  -0.63745  -0.62306  -0.60382
  Beta  occ. eigenvalues --   -0.59482  -0.53723  -0.53513  -0.50378  -0.45906
  Beta  occ. eigenvalues --   -0.45299  -0.44151  -0.42215  -0.40676  -0.39539
  Beta  occ. eigenvalues --   -0.38735  -0.38053  -0.37504  -0.36335  -0.35873
  Beta  occ. eigenvalues --   -0.35185  -0.33835  -0.32726  -0.31828  -0.31659
  Beta  occ. eigenvalues --   -0.31273  -0.30800  -0.30297  -0.29809  -0.29453
  Beta  occ. eigenvalues --   -0.28321  -0.27648  -0.27091  -0.26649  -0.25684
  Beta  occ. eigenvalues --   -0.25341  -0.21961  -0.21198  -0.18356  -0.16738
  Beta  occ. eigenvalues --   -0.16422  -0.15298  -0.13257
  Beta virt. eigenvalues --    0.05803   0.06315   0.06773   0.07159   0.07402
  Beta virt. eigenvalues --    0.07816   0.08196   0.08478   0.08590   0.09323
  Beta virt. eigenvalues --    0.09507   0.10014   0.10676   0.10772   0.10805

 Mulliken charges and spin densities:
               1          2
     1  C   -0.188292  -0.261935
     2  C    0.315206  -0.525165
     3  C   -0.112432  -0.181653
     4  O   -0.062807   0.021354
     5  C    0.771161  -1.210408
     6  N   -0.046492   0.033594
     7  C   -0.692246   0.177989
     8  N   -0.164106   0.078709
     9  C    0.197683   0.147374
    10  C   -1.453042   1.425052
    11  C    1.195856  -1.635805
    12  N   -0.028641   0.014911
    13  C   -0.098370  -0.172347
    14  C   -0.419289   0.409227
    15  O   -0.367904   0.000795
    16  N   -0.113956   0.206447
    17  C    0.667692  -1.086396
    18  C    0.460344  -0.755684
    19  H    0.123692   0.019453
    20  H    0.102857   0.046078
    21  H   -0.150590   0.294723
    22  H    0.025518   0.126156
    23  H   -0.255757   0.390147
    24  H   -0.145386   0.307325
    25  H    0.191784   0.001446
    26  H   -0.120113   0.313540
    27  H   -0.149848   0.327335
    28  H    0.020409   0.148182
    29  H   -0.215184   0.363498
    30  H    0.238937   0.051793
    31  H   -0.035566   0.239167
    32  H    0.245685  -0.010631
    33  H    0.410078  -0.260602
    34  H   -0.389927   0.540691
    35  H   -0.430062   0.604083
    36  H    0.052383   0.112359
    37  H   -0.251796   0.408271
    38  H   -0.127479   0.290928
 Sum of Mulliken charges =  -1.00000   1.00000

 Dipole moment (field-independent basis, Debye):
    X=              3.2058    Y=             -1.4375    Z=              1.6405  Tot=              3.8775
 Quadrupole moment (field-independent basis, Debye-Ang):
   XX=           -216.5829   YY=           -160.6133   ZZ=           -139.2279
   XY=             12.6301   XZ=             -4.1774   YZ=              0.6530

 Summary of Natural Population Analysis:

                                       Natural Population
                Natural  -----------------------------------------------
    Atom  No    Charge         Core      Valence    Rydberg      Total
 -----------------------------------------------------------------------
      C    1   -0.28797      0.99966     2.28349    0.00481     3.28797
      C    2   -0.20133      0.99964     2.19386    0.00783     3.20133
      C    3   -0.01500      0.99954     2.00328    0.01219     3.01500
      O    4   -0.27452      0.99985     3.26519    0.00947     4.27452
      C    5    0.30204      0.99947     1.68193    0.01657     2.69796
      N    6   -0.29959      0.99962     2.79141    0.00857     3.79959
      C    7    0.31325      0.99960     1.66992    0.01722     2.68675
      N    8   -0.30097      0.99964     2.79088    0.01046     3.80097
      C    9    0.14721      0.99955     1.84076    0.01248     2.85279
      C   10   -0.18654      0.99945     2.17839    0.00870     3.18654
      C   11   -0.30087      0.99963     2.29512    0.00612     3.30087
      N   12   -0.30359      0.99966     2.79371    0.01021     3.80359
      C   13   -0.12620      0.99958     2.11620    0.01042     3.12620
      C   14    0.33818      0.99964     1.64020    0.02198     2.66182
      O   15   -0.33770      0.99988     3.33214    0.00567     4.33770
      N   16   -0.24587      0.99965     2.73592    0.01030     3.74587
      C   17   -0.18385      0.99962     2.17610    0.00812     3.18385
      C   18   -0.17952      0.99963     2.17172    0.00817     3.17952
      H   19    0.10145      0.00000     0.39728    0.00128     0.39855
      H   20    0.09979      0.00000     0.39896    0.00125     0.40021
      H   21    0.09718      0.00000     0.40185    0.00098     0.40282
      H   22    0.09612      0.00000     0.40266    0.00122     0.40388
      H   23    0.09833      0.00000     0.40014    0.00153     0.40167
      H   24    0.09034      0.00000     0.40859    0.00107     0.40966
      H   25    0.09996      0.00000     0.39833    0.00171     0.40004
      H   26    0.11035      0.00000     0.38858    0.00107     0.38965
      H   27    0.11401      0.00000     0.38421    0.00177     0.38599
      H   28    0.10764      0.00000     0.39136    0.00100     0.39236
      H   29    0.10079      0.00000     0.39835    0.00087     0.39921
      H   30    0.19774      0.00000     0.29972    0.00254     0.30226
      H   31    0.10491      0.00000     0.39409    0.00100     0.39509
      H   32    0.11180      0.00000     0.38650    0.00170     0.38820
      H   33    0.11577      0.00000     0.38195    0.00227     0.38423
      H   34    0.10133      0.00000     0.39643    0.00224     0.39867
      H   35    0.09185      0.00000     0.40642    0.00173     0.40815
      H   36    0.11374      0.00000     0.38518    0.00108     0.38626
      H   37    0.09411      0.00000     0.40469    0.00120     0.40589
      H   38    0.09565      0.00000     0.40323    0.00112     0.40435
 =======================================================================
   * Total *   -0.00000     17.99333    49.78874    0.21792    68.00000

 Normal termination of Gaussian 16 at Fri Dec 11 19:51:11 2020.
