 Gaussian 16, Revision A.03,

 -----------------------------------------------------------
 # opt freq B3LYP/6-31G(d) empiricaldispersion=gd3bj scf=xqc
 -----------------------------------------------------------

 -------------------------------
 CID_118329846_JID_4714_neutraal
 -------------------------------
 Symbolic Z-matrix:
 Charge =  0 Multiplicity = 1

 SCF Done:  E(RB3LYP) =  -588.814707994     A.U. after   15 cycles
 SCF Done:  E(RB3LYP) =  -588.822658825     A.U. after   12 cycles
 SCF Done:  E(RB3LYP) =  -588.823800353     A.U. after   12 cycles
 SCF Done:  E(RB3LYP) =  -588.824092460     A.U. after   12 cycles
 SCF Done:  E(RB3LYP) =  -588.824234814     A.U. after   12 cycles
 SCF Done:  E(RB3LYP) =  -588.824281260     A.U. after   10 cycles
 SCF Done:  E(RB3LYP) =  -588.824298037     A.U. after    9 cycles
 SCF Done:  E(RB3LYP) =  -588.824299798     A.U. after    8 cycles
 SCF Done:  E(RB3LYP) =  -588.824300409     A.U. after    8 cycles
 Optimization completed.
    -- Stationary point found.

 1\1\GINC-NODE118\FOpt\RB3LYP\6-31G(d)\C11H9N3\VSC10255\10-Dec-2020\0\\
 # opt freq B3LYP/6-31G(d) empiricaldispersion=gd3bj scf=xqc\\CID_11832
 9846_JID_4714_neutraal\\0,1\C,0.8020791954,2.3688817973,-0.0779847819\
 C,1.2584508817,0.9130566392,-0.0802125003\C,0.2034378116,0.1395930409,
 -0.5308814013\C,-0.962465992,0.981366095,-0.9185404906\N,-0.674135028,
 2.3135217719,-0.3190264037\N,-1.4321612864,2.3746049889,0.8908311353\C
 ,-2.2488373125,1.3858244227,0.8939245526\N,-2.1575178091,0.5148018799,
 -0.2087669482\C,-2.3151304735,-0.8900682963,-0.1245302753\C,-1.2852333

 Normal termination of Gaussian 16 at Thu Dec 10 10:22:17 2020.

 --------------------------------------------------------------------
 #N Geom=AllCheck Guess=TCheck SCRF=Check GenChk RB3LYP/6-31G(d) Freq
 --------------------------------------------------------------------

 Structure from the checkpoint file:  "JID_4714.chk"
 -------------------------------
 CID_118329846_JID_4714_neutraal
 -------------------------------
 Charge =  0 Multiplicity = 1

 SCF Done:  E(RB3LYP) =  -588.824300409     A.U. after    1 cycles

  Exact polarizability: 149.557  -5.162 144.332  -3.634  -1.362  69.801
 Approx polarizability: 249.007  -8.975 258.514 -10.780   0.744 117.487

                      1                      2                      3
                      A                      A                      A
 Frequencies --    101.5454               162.1919               232.9788
 Red. masses --      4.4518                 4.9270                 3.4061
 Frc consts  --      0.0270                 0.0764                 0.1089
 IR Inten    --      1.6599                 3.2373                 4.2150

                      4                      5                      6
                      A                      A                      A
 Frequencies --    256.6686               325.7602               393.5116
 Red. masses --      3.7790                 2.7297                 3.8371
 Frc consts  --      0.1467                 0.1707                 0.3501
 IR Inten    --      1.4452                 9.6849                 0.5253

                      7                      8                      9
                      A                      A                      A
 Frequencies --    451.0017               473.1461               482.5229
 Red. masses --      4.1483                 6.0006                 4.1268
 Frc consts  --      0.4971                 0.7915                 0.5661
 IR Inten    --     12.5821                 3.1377                 8.3025

                     10                     11                     12
                      A                      A                      A
 Frequencies --    516.1082               530.8449               572.2268
 Red. masses --      4.8681                 4.3450                 4.8533
 Frc consts  --      0.7640                 0.7214                 0.9363
 IR Inten    --      3.0454                 6.8181                13.3307

                     13                     14                     15
                      A                      A                      A
 Frequencies --    604.3678               656.0637               662.3739
 Red. masses --      4.1389                 5.3805                 5.7709
 Frc consts  --      0.8907                 1.3645                 1.4918
 IR Inten    --      2.4375                18.4142                15.7290

                     16                     17                     18
                      A                      A                      A
 Frequencies --    708.3150               732.6379               754.9854
 Red. masses --      4.0221                 3.3491                 1.7824
 Frc consts  --      1.1889                 1.0592                 0.5986
 IR Inten    --     16.0797                19.2624                14.2138

                     19                     20                     21
                      A                      A                      A
 Frequencies --    781.3648               800.2679               829.5110
 Red. masses --      2.1895                 2.1333                 4.0939
 Frc consts  --      0.7876                 0.8049                 1.6597
 IR Inten    --     20.0388                54.1524                24.2380

                     22                     23                     24
                      A                      A                      A
 Frequencies --    855.7233               888.3063               895.6219
 Red. masses --      1.4329                 1.7254                 2.9803
 Frc consts  --      0.6182                 0.8022                 1.4085
 IR Inten    --      7.5934                 4.5266                 6.7060

                     25                     26                     27
                      A                      A                      A
 Frequencies --    914.3019               927.0031               953.4604
 Red. masses --      4.9875                 1.3399                 3.8297
 Frc consts  --      2.4565                 0.6784                 2.0513
 IR Inten    --      8.1038                 2.0958                 3.8397

                     28                     29                     30
                      A                      A                      A
 Frequencies --    966.4373               996.8123              1025.6838
 Red. masses --      1.3003                 3.4402                 3.8397
 Frc consts  --      0.7156                 2.0140                 2.3800
 IR Inten    --      0.4508                 8.2743                 8.7397

                     31                     32                     33
                      A                      A                      A
 Frequencies --   1046.6053              1077.6142              1110.6917
 Red. masses --      2.5863                 2.0924                 3.7137
 Frc consts  --      1.6692                 1.4316                 2.6992
 IR Inten    --     18.8973                 1.0857                 8.1265

                     34                     35                     36
                      A                      A                      A
 Frequencies --   1149.3070              1193.4494              1199.4193
 Red. masses --      1.7674                 1.5600                 1.9923
 Frc consts  --      1.3755                 1.3091                 1.6887
 IR Inten    --      3.3018                15.9722                42.9409

                     37                     38                     39
                      A                      A                      A
 Frequencies --   1230.4804              1242.8457              1252.3672
 Red. masses --      2.0533                 1.5733                 1.7497
 Frc consts  --      1.8317                 1.4318                 1.6169
 IR Inten    --      6.2013                 7.9580                 7.9481

                     40                     41                     42
                      A                      A                      A
 Frequencies --   1269.1036              1278.6226              1310.8405
 Red. masses --      1.5246                 1.5548                 2.2468
 Frc consts  --      1.4468                 1.4977                 2.2746
 IR Inten    --      6.7001                 1.3687                14.5866

                     43                     44                     45
                      A                      A                      A
 Frequencies --   1324.4910              1343.6476              1371.3959
 Red. masses --      1.4831                 2.0008                 1.6494
 Frc consts  --      1.5329                 2.1283                 1.8277
 IR Inten    --      1.3827                43.8301                 3.8950

                     46                     47                     48
                      A                      A                      A
 Frequencies --   1382.6738              1428.7308              1493.7912
 Red. masses --      3.8613                 1.7457                 2.8446
 Frc consts  --      4.3493                 2.0995                 3.7399
 IR Inten    --      8.2604                 6.9336                21.6731

                     49                     50                     51
                      A                      A                      A
 Frequencies --   1510.9528              1519.1169              1609.9001
 Red. masses --      1.1315                 2.7311                 6.1261
 Frc consts  --      1.5220                 3.7133                 9.3547
 IR Inten    --      3.1262                 9.9095                46.8674

                     52                     53                     54
                      A                      A                      A
 Frequencies --   1646.6641              1659.5474              1674.4825
 Red. masses --      6.9951                 7.6281                 7.1903
 Frc consts  --     11.1751                12.3778                11.8785
 IR Inten    --     15.6547                40.8197                16.4377

                     55                     56                     57
                      A                      A                      A
 Frequencies --   3054.2190              3060.7523              3135.0724
 Red. masses --      1.0860                 1.0685                 1.0976
 Frc consts  --      5.9690                 5.8978                 6.3562
 IR Inten    --     42.3257                50.8108                 5.3934

                     58                     59                     60
                      A                      A                      A
 Frequencies --   3182.0596              3193.5376              3199.5271
 Red. masses --      1.0860                 1.0906                 1.0864
 Frc consts  --      6.4788                 6.5534                 6.5523
 IR Inten    --      1.4749                18.2546                 0.5612

                     61                     62                     63
                      A                      A                      A
 Frequencies --   3205.9055              3217.8141              3256.5240
 Red. masses --      1.0957                 1.0965                 1.0962
 Frc consts  --      6.6350                 6.6894                 6.8493
 IR Inten    --     32.8928                23.6234                 7.3447

 - Thermochemistry -
 -------------------
 Temperature   298.150 Kelvin.  Pressure   1.00000 Atm.
 Atom     1 has atomic number  6 and mass  12.00000

 Molecular mass:   183.07965 amu.
 Principal axes and moments of inertia in atomic units:
                           1         2         3
     Eigenvalues --  1467.964452096.507813198.34956
           X            0.99962  -0.02709  -0.00575
           Y            0.02705   0.99961  -0.00758
           Z            0.00595   0.00742   0.99995
 This molecule is an asymmetric top.
 Rotational symmetry number  1.
 Warning -- assumption of classical behavior for rotation
           may cause significant error
 Rotational temperatures (Kelvin)      0.05900     0.04131     0.02708
 Rotational constants (GHZ):           1.22942     0.86083     0.56427
 Zero-point vibrational energy     480204.3 (Joules/Mol)
                                  114.77159 (Kcal/Mol)
 Warning -- explicit consideration of  13 degrees of freedom as
           vibrations may cause significant error
 Vibrational temperatures:    146.10   233.36   335.20   369.29   468.70
          (Kelvin)            566.18   648.89   680.75   694.24   742.56
                              763.77   823.31   869.55   943.93   953.01
                             1019.11  1054.10  1086.26  1124.21  1151.41
                             1193.48  1231.19  1278.07  1288.60  1315.48
                             1333.75  1371.82  1390.49  1434.19  1475.73
                             1505.83  1550.45  1598.04  1653.60  1717.11
                             1725.70  1770.39  1788.18  1801.88  1825.96
                             1839.65  1886.01  1905.65  1933.21  1973.13
                             1989.36  2055.62  2149.23  2173.92  2185.67
                             2316.29  2369.18  2387.72  2409.21  4394.34
                             4403.74  4510.67  4578.27  4594.79  4603.41
                             4612.58  4629.72  4685.41

 Zero-point correction=                           0.182900 (Hartree/Particle)
 Thermal correction to Energy=                    0.191781
 Thermal correction to Enthalpy=                  0.192725
 Thermal correction to Gibbs Free Energy=         0.148888
 Sum of electronic and zero-point Energies=           -588.641400
 Sum of electronic and thermal Energies=              -588.632519
 Sum of electronic and thermal Enthalpies=            -588.631575
 Sum of electronic and thermal Free Energies=         -588.675413

                     E (Thermal)             CV                S
                      KCal/Mol        Cal/Mol-Kelvin    Cal/Mol-Kelvin
 Total                  120.344             38.630             92.264
 Electronic               0.000              0.000              0.000
 Translational            0.889              2.981             41.521
 Rotational               0.889              2.981             30.666
 Vibrational            118.567             32.669             20.078
 Vibration     1          0.604              1.948              3.424
 Vibration     2          0.622              1.889              2.524
 Vibration     3          0.654              1.790              1.856
 Vibration     4          0.666              1.752              1.684
 Vibration     5          0.710              1.624              1.281
 Vibration     6          0.761              1.484              0.987
 Vibration     7          0.810              1.359              0.793
 Vibration     8          0.830              1.310              0.729
 Vibration     9          0.839              1.289              0.703
 Vibration    10          0.871              1.214              0.619
 Vibration    11          0.886              1.182              0.585
 Vibration    12          0.928              1.091              0.500
 Vibration    13          0.963              1.023              0.442

 Optimization completed.
    -- Stationary point found.

 1\1\GINC-NODE118\Freq\RB3LYP\6-31G(d)\C11H9N3\VSC10255\10-Dec-2020\0\\
 #N Geom=AllCheck Guess=TCheck SCRF=Check GenChk RB3LYP/6-31G(d) Freq\\
 CID_118329846_JID_4714_neutraal\\0,1\C,0.8020791954,2.3688817973,-0.07
 79847819\C,1.2584508817,0.9130566392,-0.0802125003\C,0.2034378116,0.13
 95930409,-0.5308814013\C,-0.962465992,0.981366095,-0.9185404906\N,-0.6
 74135028,2.3135217719,-0.3190264037\N,-1.4321612864,2.3746049889,0.890
 8311353\C,-2.2488373125,1.3858244227,0.8939245526\N,-2.1575178091,0.51
 48018799,-0.2087669482\C,-2.3151304735,-0.8900682963,-0.1245302753\C,-

 Normal termination of Gaussian 16 at Thu Dec 10 10:29:44 2020.

 ----------------------------------------------------------------------
 # B3LYP/6-311++G(d,p) empiricaldispersion=gd3bj scf=xqc pop=npa geom=c
 heck
 ----------------------------------------------------------------------

 ---------------------------------------
 CID_118329846_JID_4714_Energie_neutraal
 ---------------------------------------
 Structure from the checkpoint file:  "JID_4714.chk"
 Charge =  0 Multiplicity = 1

 SCF Done:  E(RB3LYP) =  -588.970672098     A.U. after   16 cycles
 Normal termination of Gaussian 16 at Thu Dec 10 10:33:20 2020.

 ----------------------------------------------------------------------
 # B3LYP/6-311++G(d,p) empiricaldispersion=gd3bj scf=xqc pop=npa geom=c
 heck
 ----------------------------------------------------------------------

 -------------------------------------
 CID_118329846_JID_4714_Energie_kation
 -------------------------------------
 Structure from the checkpoint file:  "JID_4714.chk"
 Charge =  1 Multiplicity = 2

 SCF Done:  E(UB3LYP) =  -588.697179775     A.U. after   24 cycles
 Normal termination of Gaussian 16 at Thu Dec 10 10:40:28 2020.
 Gaussian 16:  ES64L-G16RevA.03 25-Dec-2016

 ------------------------------------
 CID_118329846_JID_4714_Energie_anion
 ------------------------------------
 Structure from the checkpoint file:  "JID_4714.chk"
 Charge = -1 Multiplicity = 2

                         Standard orientation:
 ---------------------------------------------------------------------
 Center     Atomic      Atomic             Coordinates (Angstroms)
 Number     Number       Type             X           Y           Z
 ---------------------------------------------------------------------
      1          6           0       -0.252005   -2.248327    0.245286
      2          6           0        0.916021   -1.268962    0.179983
      3          6           0        0.442143   -0.020494    0.542158
      4          6           0       -0.994227   -0.075136    0.932091
      5          7           0       -1.466933   -1.392508    0.423888
      6          7           0       -2.136555   -1.122909   -0.809406
      7          6           0       -2.292866    0.146521   -0.903058
      8          7           0       -1.749192    0.908117    0.149243
      9          6           0       -1.125948    2.167984   -0.023671
     10          6           0        0.204631    2.352307    0.159821
     11          6           0        1.081760    1.181559    0.252600
     12          6           0        2.408980    1.081206   -0.199887
     13          6           0        2.973862   -0.181537   -0.417237
     14          6           0        2.231023   -1.366234   -0.276090
     15          1           0       -0.368976   -2.838837   -0.666370
     16          1           0       -0.179857   -2.937162    1.095475
     17          1           0       -1.190838    0.052283    2.003158
     18          1           0       -2.824570    0.621263   -1.718316
     19          1           0       -1.792643    2.978154   -0.302969
     20          1           0        0.622688    3.349568    0.068384
     21          1           0        2.973921    1.975723   -0.448673
     22          1           0        3.997526   -0.242886   -0.776586
     23          1           0        2.671264   -2.320320   -0.552148
 ---------------------------------------------------------------------

 SCF Done:  E(UB3LYP) =  -588.964015395     A.U. after   33 cycles
 SCF Done:  E(UB3LYP) =  -588.964015395     a.u. after    1 cycles

 The electronic state is 2-A.
 Alpha  occ. eigenvalues --  -14.20636 -14.20108 -14.19106 -10.09925 -10.09179
 Alpha  occ. eigenvalues --  -10.07222 -10.03643 -10.02872 -10.02288 -10.01820
 Alpha  occ. eigenvalues --  -10.01361 -10.01149 -10.01005 -10.00536  -0.89875
 Alpha  occ. eigenvalues --   -0.78348  -0.73777  -0.68499  -0.63186  -0.60317
 Alpha  occ. eigenvalues --   -0.59559  -0.55119  -0.48698  -0.47851  -0.46436
 Alpha  occ. eigenvalues --   -0.44243  -0.41451  -0.37077  -0.34903  -0.33790
 Alpha  occ. eigenvalues --   -0.33301  -0.32041  -0.30416  -0.28252  -0.27323
 Alpha  occ. eigenvalues --   -0.26549  -0.26097  -0.24273  -0.23924  -0.22082
 Alpha  occ. eigenvalues --   -0.19957  -0.18917  -0.17014  -0.15978  -0.13528
 Alpha  occ. eigenvalues --   -0.10128  -0.08336  -0.05731   0.06365
 Alpha virt. eigenvalues --    0.09042   0.09579   0.10066   0.10749   0.11512
 Alpha virt. eigenvalues --    0.11754   0.12544   0.13132   0.13630   0.14020
 Alpha virt. eigenvalues --    0.14233   0.15759   0.16390   0.17460   0.17955

  Beta  occ. eigenvalues --  -14.20623 -14.20071 -14.19057 -10.09884 -10.09178
  Beta  occ. eigenvalues --  -10.07221 -10.03163 -10.02921 -10.02281 -10.01751
  Beta  occ. eigenvalues --  -10.01128 -10.01093 -10.00687 -10.00390  -0.89765
  Beta  occ. eigenvalues --   -0.78089  -0.73563  -0.68244  -0.62715  -0.59980
  Beta  occ. eigenvalues --   -0.59291  -0.54781  -0.48589  -0.47182  -0.46293
  Beta  occ. eigenvalues --   -0.44119  -0.41188  -0.36863  -0.34717  -0.33550
  Beta  occ. eigenvalues --   -0.33035  -0.31918  -0.30242  -0.28033  -0.27240
  Beta  occ. eigenvalues --   -0.26375  -0.25952  -0.24059  -0.23701  -0.21151
  Beta  occ. eigenvalues --   -0.19797  -0.18684  -0.16539  -0.15666  -0.12435
  Beta  occ. eigenvalues --   -0.09466  -0.07157  -0.04812
  Beta virt. eigenvalues --    0.08981   0.09526   0.09949   0.10702   0.11370
  Beta virt. eigenvalues --    0.11706   0.12041   0.12696   0.13179   0.13772
  Beta virt. eigenvalues --    0.14158   0.14255   0.16006   0.16546   0.17746

 Mulliken charges and spin densities:
               1          2
     1  C   -0.478194  -0.010294
     2  C   -0.297382  -0.043445
     3  C   -0.291757   0.040438
     4  C   -0.444598  -0.004303
     5  N    0.343457   0.021981
     6  N   -0.427401   0.018502
     7  C    0.024220   0.001540
     8  N   -0.006451  -0.029434
     9  C   -0.403274   0.356410
    10  C    0.004419  -0.073093
    11  C    0.909846   0.244321
    12  C   -0.027864   0.065459
    13  C   -0.193214  -0.043844
    14  C   -0.666242   0.246583
    15  H    0.182659   0.012399
    16  H    0.120556   0.029154
    17  H    0.219655   0.001459
    18  H    0.127041   0.014088
    19  H    0.076248   0.012507
    20  H    0.050888   0.050084
    21  H    0.020584   0.073277
    22  H    0.057831   0.039672
    23  H    0.098973  -0.023460
 Sum of Mulliken charges =  -1.00000   1.00000

 Dipole moment (field-independent basis, Debye):
    X=             -0.7376    Y=             -0.5224    Z=             -0.3079  Tot=              0.9549
 Quadrupole moment (field-independent basis, Debye-Ang):
   XX=           -110.6281   YY=           -102.8352   ZZ=            -92.0608
   XY=             -4.4989   XZ=              0.1113   YZ=             -3.8139

 Summary of Natural Population Analysis:

                                       Natural Population
                Natural  -----------------------------------------------
    Atom  No    Charge         Core      Valence    Rydberg      Total
 -----------------------------------------------------------------------
      C    1   -0.08558      0.99959     2.07715    0.00884     3.08558
      C    2   -0.03478      0.99943     2.02753    0.00782     3.03478
      C    3   -0.00460      0.99941     1.99607    0.00912     3.00460
      C    4    0.09203      0.99955     1.89325    0.01517     2.90797
      N    5   -0.18918      0.99974     2.67049    0.01896     3.68918
      N    6   -0.16428      0.99970     2.65235    0.01223     3.66428
      C    7    0.12625      0.99965     1.85824    0.01586     2.87375
      N    8   -0.25328      0.99967     2.74185    0.01176     3.75328
      C    9    0.08714      0.99953     1.89945    0.01388     2.91286
      C   10   -0.13346      0.99953     2.12562    0.00830     3.13346
      C   11    0.00624      0.99943     1.98353    0.01079     2.99376
      C   12   -0.08995      0.99954     2.08165    0.00876     3.08995
      C   13   -0.10742      0.99959     2.09865    0.00918     3.10742
      C   14   -0.06018      0.99952     2.05094    0.00971     3.06018
      H   15    0.10227      0.00000     0.39655    0.00118     0.39773
      H   16    0.09072      0.00000     0.40814    0.00114     0.40928
      H   17    0.09210      0.00000     0.40677    0.00113     0.40790
      H   18    0.08949      0.00000     0.40946    0.00105     0.41051
      H   19    0.08121      0.00000     0.41756    0.00123     0.41879
      H   20    0.09319      0.00000     0.40523    0.00159     0.40681
      H   21    0.08886      0.00000     0.40963    0.00151     0.41114
      H   22    0.08679      0.00000     0.41149    0.00172     0.41321
      H   23    0.08644      0.00000     0.41212    0.00144     0.41356
 =======================================================================
   * Total *    0.00000     13.99389    33.83373    0.17237    48.00000

 Normal termination of Gaussian 16 at Thu Dec 10 10:50:56 2020.
