 Gaussian 16, Revision A.03,

 -----------------------------------------------------------
 # opt freq B3LYP/6-31G(d) empiricaldispersion=gd3bj scf=xqc
 -----------------------------------------------------------

 ------------------------------
 CID_18408238_JID_3069_neutraal
 ------------------------------
 Symbolic Z-matrix:
 Charge =  0 Multiplicity = 1

 SCF Done:  E(RB3LYP) =  -689.455619622     A.U. after   14 cycles
 SCF Done:  E(RB3LYP) =  -689.457988217     A.U. after   13 cycles
 SCF Done:  E(RB3LYP) =  -689.454278901     A.U. after   13 cycles
 SCF Done:  E(RB3LYP) =  -689.457257287     A.U. after   13 cycles
 SCF Done:  E(RB3LYP) =  -689.459395925     A.U. after   10 cycles
 SCF Done:  E(RB3LYP) =  -689.460069549     A.U. after   12 cycles
 SCF Done:  E(RB3LYP) =  -689.460155998     A.U. after   11 cycles
 SCF Done:  E(RB3LYP) =  -689.460232206     A.U. after   11 cycles
 SCF Done:  E(RB3LYP) =  -689.460273235     A.U. after   10 cycles
 SCF Done:  E(RB3LYP) =  -689.460265109     A.U. after   11 cycles
 SCF Done:  E(RB3LYP) =  -689.460295805     A.U. after    9 cycles
 SCF Done:  E(RB3LYP) =  -689.460297455     A.U. after    8 cycles
 SCF Done:  E(RB3LYP) =  -689.460297683     A.U. after    8 cycles
 SCF Done:  E(RB3LYP) =  -689.460297819     A.U. after    8 cycles
 SCF Done:  E(RB3LYP) =  -689.460297885     A.U. after    7 cycles
 Optimization completed.
    -- Stationary point found.

 1\1\GINC-NODE303\FOpt\RB3LYP\6-31G(d)\C8H14O5\VSC10255\09-Dec-2020\0\\
 # opt freq B3LYP/6-31G(d) empiricaldispersion=gd3bj scf=xqc\\CID_18408
 238_JID_3069_neutraal\\0,1\C,0.9030531607,-0.1009135371,-0.14731406\C,
 0.434415631,-1.5429842511,-0.3075604698\C,1.080225602,-2.5767442847,0.
 6317044678\C,0.8318594994,-2.4042083701,2.1158709513\O,0.1193503811,-3
 .1166595556,2.7842556671\O,1.5452387969,-1.3751220415,2.6329501406\O,-
 1.0186937391,-1.6841788937,-0.3094592301\C,-1.7677077328,-1.200866467,
 0.7236816023\O,-1.305528463,-0.6560213495,1.6993614471\C,-3.239821657,

 Normal termination of Gaussian 16 at Wed Dec  9 22:26:02 2020.

 --------------------------------------------------------------------
 #N Geom=AllCheck Guess=TCheck SCRF=Check GenChk RB3LYP/6-31G(d) Freq
 --------------------------------------------------------------------

 Structure from the checkpoint file:  "JID_3069.chk"
 ------------------------------
 CID_18408238_JID_3069_neutraal
 ------------------------------
 Charge =  0 Multiplicity = 1

 SCF Done:  E(RB3LYP) =  -689.460297885     A.U. after    1 cycles

  Exact polarizability: 106.074   2.421  96.597   2.218  -0.510  85.617
 Approx polarizability: 131.833  -0.445 140.798  11.364  -2.246 136.275

                      1                      2                      3
                      A                      A                      A
 Frequencies --     20.1205                42.1602                73.9229
 Red. masses --      6.0898                 5.4305                 4.5013
 Frc consts  --      0.0015                 0.0057                 0.0145
 IR Inten    --      0.5402                 2.5781                 0.9662

                      4                      5                      6
                      A                      A                      A
 Frequencies --     82.1323               109.1710               127.2806
 Red. masses --      5.8112                 4.7363                 8.3163
 Frc consts  --      0.0231                 0.0333                 0.0794
 IR Inten    --      2.7305                 0.8161                 0.3720

                      7                      8                      9
                      A                      A                      A
 Frequencies --    170.1934               183.8643               201.5312
 Red. masses --      3.8071                 3.9604                 3.9000
 Frc consts  --      0.0650                 0.0789                 0.0933
 IR Inten    --      2.3054                 2.9697                 1.5235

                     10                     11                     12
                      A                      A                      A
 Frequencies --    216.9557               249.8652               277.9546
 Red. masses --      1.9113                 1.5106                 2.5938
 Frc consts  --      0.0530                 0.0556                 0.1181
 IR Inten    --      3.8108                 2.8068                 0.7464

                     13                     14                     15
                      A                      A                      A
 Frequencies --    332.4144               402.3186               421.6581
 Red. masses --      2.8076                 3.0332                 3.4946
 Frc consts  --      0.1828                 0.2893                 0.3661
 IR Inten    --      6.4132                 2.4934                 4.2750

                     16                     17                     18
                      A                      A                      A
 Frequencies --    443.9476               495.9074               517.6221
 Red. masses --      2.0394                 2.5366                 2.7826
 Frc consts  --      0.2368                 0.3675                 0.4393
 IR Inten    --      2.9051                11.4213                 3.4862

                     19                     20                     21
                      A                      A                      A
 Frequencies --    546.6350               556.7836               621.8040
 Red. masses --      1.2778                 2.5746                 1.7941
 Frc consts  --      0.2250                 0.4703                 0.4087
 IR Inten    --     71.4971                49.9243                62.4997

                     22                     23                     24
                      A                      A                      A
 Frequencies --    660.5028               736.4991               757.2474
 Red. masses --      2.5682                 3.0379                 2.3241
 Frc consts  --      0.6601                 0.9709                 0.7852
 IR Inten    --     25.1250                62.7843                 8.5030

                     25                     26                     27
                      A                      A                      A
 Frequencies --    783.7650               822.5454               852.9593
 Red. masses --      2.8340                 2.8147                 4.0855
 Frc consts  --      1.0257                 1.1220                 1.7512
 IR Inten    --      6.8914                 5.6791                 8.4189

                     28                     29                     30
                      A                      A                      A
 Frequencies --    866.4569               908.3458               928.3290
 Red. masses --      3.1192                 2.3751                 2.0597
 Frc consts  --      1.3797                 1.1546                 1.0458
 IR Inten    --      4.3546                 3.5646                 8.3218

                     31                     32                     33
                      A                      A                      A
 Frequencies --    957.9191               987.8384              1038.6713
 Red. masses --      2.1875                 2.0911                 1.8731
 Frc consts  --      1.1827                 1.2023                 1.1906
 IR Inten    --     16.9299                15.0614                37.6585

                     34                     35                     36
                      A                      A                      A
 Frequencies --   1084.0630              1092.5476              1099.0550
 Red. masses --      2.1178                 2.2365                 1.6796
 Frc consts  --      1.4663                 1.5729                 1.1953
 IR Inten    --     53.4087                17.7438                24.2917

                     37                     38                     39
                      A                      A                      A
 Frequencies --   1110.7054              1163.8539              1183.6243
 Red. masses --      2.8026                 2.1744                 2.0941
 Frc consts  --      2.0371                 1.7354                 1.7286
 IR Inten    --     60.4803               249.0741                43.2685

                     40                     41                     42
                      A                      A                      A
 Frequencies --   1203.9953              1213.0819              1260.3727
 Red. masses --      2.2318                 1.1715                 1.6737
 Frc consts  --      1.9061                 1.0157                 1.5665
 IR Inten    --    143.1965                22.7803               124.0004

                     43                     44                     45
                      A                      A                      A
 Frequencies --   1282.8012              1309.9646              1343.2735
 Red. masses --      1.2625                 1.2392                 1.5589
 Frc consts  --      1.2240                 1.2528                 1.6573
 IR Inten    --     27.9297                10.4215                16.5224

                     46                     47                     48
                      A                      A                      A
 Frequencies --   1364.4661              1376.9478              1397.8462
 Red. masses --      1.4047                 1.6781                 1.4159
 Frc consts  --      1.5408                 1.8746                 1.6300
 IR Inten    --     24.5214                38.2223                 5.8150

                     49                     50                     51
                      A                      A                      A
 Frequencies --   1419.6796              1426.8736              1435.5761
 Red. masses --      1.4027                 1.2996                 1.3790
 Frc consts  --      1.6657                 1.5589                 1.6745
 IR Inten    --     21.7172                 5.4211                 4.5096

                     52                     53                     54
                      A                      A                      A
 Frequencies --   1443.8086              1450.6281              1494.2539
 Red. masses --      1.2988                 1.2214                 1.1138
 Frc consts  --      1.5952                 1.5143                 1.4652
 IR Inten    --     35.4305                51.0732                 9.4018

                     55                     56                     57
                      A                      A                      A
 Frequencies --   1506.8009              1515.2692              1520.2635
 Red. masses --      1.0841                 1.0538                 1.1149
 Frc consts  --      1.4502                 1.4256                 1.5182
 IR Inten    --      5.3338                 9.7822                11.2954

                     58                     59                     60
                      A                      A                      A
 Frequencies --   1536.2034              1538.7056              1833.7778
 Red. masses --      1.0593                 1.0840                11.0778
 Frc consts  --      1.4729                 1.5121                21.9480
 IR Inten    --      8.9943                 0.7881               203.1248

                     61                     62                     63
                      A                      A                      A
 Frequencies --   1856.5015              2999.3933              3055.6113
 Red. masses --      9.5437                 1.0716                 1.0605
 Frc consts  --     19.3802                 5.6799                 5.8341
 IR Inten    --    256.4638                58.1231                22.5966

                     64                     65                     66
                      A                      A                      A
 Frequencies --   3067.7719              3073.5537              3091.1406
 Red. masses --      1.0432                 1.0659                 1.0832
 Frc consts  --      5.7843                 5.9326                 6.0981
 IR Inten    --     13.3062                 3.3810                28.7204

                     67                     68                     69
                      A                      A                      A
 Frequencies --   3092.8400              3098.9217              3107.6411
 Red. masses --      1.0738                 1.0845                 1.0971
 Frc consts  --      6.0519                 6.1363                 6.2426
 IR Inten    --      1.7395                44.7757                47.8533

                     70                     71                     72
                      A                      A                      A
 Frequencies --   3127.1388              3143.5093              3148.4219
 Red. masses --      1.1018                 1.1004                 1.1068
 Frc consts  --      6.3483                 6.4064                 6.4638
 IR Inten    --     25.1747                 7.2295                 9.2708

                     73                     74                     75
                      A                      A                      A
 Frequencies --   3210.7407              3688.9838              3712.9918
 Red. masses --      1.0967                 1.0639                 1.0655
 Frc consts  --      6.6613                 8.5306                 8.6545
 IR Inten    --      2.1088                54.5977                88.3878

 - Thermochemistry -
 -------------------
 Temperature   298.150 Kelvin.  Pressure   1.00000 Atm.
 Atom     1 has atomic number  6 and mass  12.00000

 Molecular mass:   190.08412 amu.
 Principal axes and moments of inertia in atomic units:
                           1         2         3
     Eigenvalues --  1224.159653810.375444227.84080
           X            0.99972   0.02302  -0.00476
           Y           -0.02292   0.99952   0.02092
           Z            0.00524  -0.02081   0.99977
 This molecule is an asymmetric top.
 Rotational symmetry number  1.
 Warning -- assumption of classical behavior for rotation
           may cause significant error
 Rotational temperatures (Kelvin)      0.07075     0.02273     0.02049
 Rotational constants (GHZ):           1.47427     0.47364     0.42687
 Zero-point vibrational energy     595016.1 (Joules/Mol)
                                  142.21226 (Kcal/Mol)
 Warning -- explicit consideration of  20 degrees of freedom as
           vibrations may cause significant error
 Vibrational temperatures:     28.95    60.66   106.36   118.17   157.07
          (Kelvin)            183.13   244.87   264.54   289.96   312.15
                              359.50   399.91   478.27   578.85   606.67
                              638.74   713.50   744.74   786.49   801.09
                              894.64   950.32  1059.66  1089.51  1127.66
                             1183.46  1227.22  1246.64  1306.91  1335.66
                             1378.23  1421.28  1494.42  1559.72  1571.93
                             1581.30  1598.06  1674.53  1702.97  1732.28
                             1745.35  1813.40  1845.66  1884.75  1932.67
                             1963.16  1981.12  2011.19  2042.60  2052.95
                             2065.47  2077.32  2087.13  2149.90  2167.95
                             2180.13  2187.32  2210.25  2213.85  2638.40
                             2671.09  4315.46  4396.34  4413.84  4422.16
                             4447.46  4449.91  4458.66  4471.20  4499.26
                             4522.81  4529.88  4619.54  5307.62  5342.17

 Zero-point correction=                           0.226630 (Hartree/Particle)
 Thermal correction to Energy=                    0.240720
 Thermal correction to Enthalpy=                  0.241664
 Thermal correction to Gibbs Free Energy=         0.184361
 Sum of electronic and zero-point Energies=           -689.233668
 Sum of electronic and thermal Energies=              -689.219578
 Sum of electronic and thermal Enthalpies=            -689.218633
 Sum of electronic and thermal Free Energies=         -689.275936

                     E (Thermal)             CV                S
                      KCal/Mol        Cal/Mol-Kelvin    Cal/Mol-Kelvin
 Total                  151.054             50.947            120.604
 Electronic               0.000              0.000              0.000
 Translational            0.889              2.981             41.633
 Rotational               0.889              2.981             31.356
 Vibrational            149.277             44.985             47.616
 Vibration     1          0.593              1.986              6.622
 Vibration     2          0.595              1.980              5.155
 Vibration     3          0.599              1.966              4.046
 Vibration     4          0.600              1.961              3.839
 Vibration     5          0.606              1.942              3.284
 Vibration     6          0.611              1.926              2.987
 Vibration     7          0.625              1.879              2.433
 Vibration     8          0.631              1.862              2.289
 Vibration     9          0.638              1.838              2.119
 Vibration    10          0.646              1.815              1.984
 Vibration    11          0.663              1.763              1.732
 Vibration    12          0.679              1.714              1.546
 Vibration    13          0.714              1.611              1.248
 Vibration    14          0.768              1.465              0.954
 Vibration    15          0.784              1.423              0.886
 Vibration    16          0.803              1.374              0.814
 Vibration    17          0.851              1.259              0.668
 Vibration    18          0.873              1.211              0.615
 Vibration    19          0.902              1.147              0.551
 Vibration    20          0.912              1.125              0.530

                           ! Non-Optimized Parameters !

 1\1\GINC-NODE303\Freq\RB3LYP\6-31G(d)\C8H14O5\VSC10255\09-Dec-2020\0\\
 #N Geom=AllCheck Guess=TCheck SCRF=Check GenChk RB3LYP/6-31G(d) Freq\\
 CID_18408238_JID_3069_neutraal\\0,1\C,0.9030531607,-0.1009135371,-0.14
 731406\C,0.434415631,-1.5429842511,-0.3075604698\C,1.080225602,-2.5767
 442847,0.6317044678\C,0.8318594994,-2.4042083701,2.1158709513\O,0.1193
 503811,-3.1166595556,2.7842556671\O,1.5452387969,-1.3751220415,2.63295
 01406\O,-1.0186937391,-1.6841788937,-0.3094592301\C,-1.7677077328,-1.2
 00866467,0.7236816023\O,-1.305528463,-0.6560213495,1.6993614471\C,-3.2

 Normal termination of Gaussian 16 at Wed Dec  9 22:32:58 2020.

 ----------------------------------------------------------------------
 # B3LYP/6-311++G(d,p) empiricaldispersion=gd3bj scf=xqc pop=npa geom=c
 heck
 ----------------------------------------------------------------------

 --------------------------------------
 CID_18408238_JID_3069_Energie_neutraal
 --------------------------------------
 Structure from the checkpoint file:  "JID_3069.chk"
 Charge =  0 Multiplicity = 1

 SCF Done:  E(RB3LYP) =  -689.684822499     A.U. after   13 cycles
 Normal termination of Gaussian 16 at Wed Dec  9 22:35:08 2020.

 ----------------------------------------------------------------------
 # B3LYP/6-311++G(d,p) empiricaldispersion=gd3bj scf=xqc pop=npa geom=c
 heck
 ----------------------------------------------------------------------

 ------------------------------------
 CID_18408238_JID_3069_Energie_kation
 ------------------------------------
 Structure from the checkpoint file:  "JID_3069.chk"
 Charge =  1 Multiplicity = 2

 SCF Done:  E(UB3LYP) =  -689.338120499     A.U. after   24 cycles
 Normal termination of Gaussian 16 at Wed Dec  9 22:40:26 2020.
 Gaussian 16:  ES64L-G16RevA.03 25-Dec-2016

 -----------------------------------
 CID_18408238_JID_3069_Energie_anion
 -----------------------------------
 Structure from the checkpoint file:  "JID_3069.chk"
 Charge = -1 Multiplicity = 2

                         Standard orientation:
 ---------------------------------------------------------------------
 Center     Atomic      Atomic             Coordinates (Angstroms)
 Number     Number       Type             X           Y           Z
 ---------------------------------------------------------------------
      1          6           0        0.764281    1.824423    1.092631
      2          6           0        0.730597    1.359204   -0.359026
      3          6           0        2.061852    0.854444   -0.942916
      4          6           0        2.665685   -0.380145   -0.306221
      5          8           0        2.704594   -1.473688   -0.820655
      6          8           0        3.210526   -0.111141    0.904599
      7          8           0       -0.347456    0.416033   -0.641328
      8          6           0       -0.475646   -0.733624    0.082446
      9          8           0        0.277408   -1.064154    0.969056
     10          6           0       -1.713488   -1.488468   -0.343866
     11          6           0       -2.952224   -1.071090    0.479512
     12          6           0       -3.218026    0.440029    0.457956
     13          8           0       -3.230326    0.982940   -0.853006
     14          1           0        1.108337    1.044046    1.767441
     15          1           0       -0.234643    2.153863    1.396499
     16          1           0        1.441734    2.681778    1.170189
     17          1           0        0.434831    2.207564   -0.982727
     18          1           0        1.914969    0.627572   -2.001063
     19          1           0        2.782089    1.676582   -0.859191
     20          1           0        3.509211   -0.969442    1.259545
     21          1           0       -1.904982   -1.304028   -1.403976
     22          1           0       -1.515425   -2.553622   -0.202435
     23          1           0       -3.817696   -1.600628    0.065843
     24          1           0       -2.830252   -1.397917    1.519741
     25          1           0       -4.203571    0.643501    0.888793
     26          1           0       -2.478181    0.956113    1.090787
     27          1           0       -2.302564    1.006057   -1.141863
 ---------------------------------------------------------------------

 SCF Done:  E(UB3LYP) =  -689.674431153     A.U. after   33 cycles
 SCF Done:  E(UB3LYP) =  -689.674431152     a.u. after    1 cycles

 The electronic state is 2-A.
 Alpha  occ. eigenvalues --  -19.07277 -19.06727 -19.01922 -19.01700 -19.00879
 Alpha  occ. eigenvalues --  -10.20753 -10.20031 -10.14446 -10.12068 -10.08957
 Alpha  occ. eigenvalues --  -10.08479 -10.08349 -10.05996  -1.01073  -1.00475
 Alpha  occ. eigenvalues --   -0.92909  -0.92209  -0.91743  -0.71952  -0.69424
 Alpha  occ. eigenvalues --   -0.62958  -0.61101  -0.56364  -0.52034  -0.49878
 Alpha  occ. eigenvalues --   -0.44117  -0.43002  -0.40506  -0.39895  -0.38759
 Alpha  occ. eigenvalues --   -0.38421  -0.36945  -0.36235  -0.35798  -0.33582
 Alpha  occ. eigenvalues --   -0.32818  -0.32015  -0.31286  -0.29454  -0.29282
 Alpha  occ. eigenvalues --   -0.28559  -0.27295  -0.26566  -0.25840  -0.24567
 Alpha  occ. eigenvalues --   -0.23212  -0.22550  -0.21031  -0.18532  -0.17871
 Alpha  occ. eigenvalues --   -0.17445   0.04461
 Alpha virt. eigenvalues --    0.06271   0.07549   0.07782   0.09140   0.09235
 Alpha virt. eigenvalues --    0.09480   0.09764   0.10328   0.10804   0.11450
 Alpha virt. eigenvalues --    0.12247   0.12646   0.13690   0.14124   0.15404

  Beta  occ. eigenvalues --  -19.07268 -19.06706 -19.01908 -19.01675 -19.00842
  Beta  occ. eigenvalues --  -10.20728 -10.19980 -10.14415 -10.12049 -10.08949
  Beta  occ. eigenvalues --  -10.08458 -10.08312 -10.05966  -1.01029  -1.00419
  Beta  occ. eigenvalues --   -0.92874  -0.92181  -0.91681  -0.71891  -0.69367
  Beta  occ. eigenvalues --   -0.62874  -0.61048  -0.56299  -0.51951  -0.49816
  Beta  occ. eigenvalues --   -0.44044  -0.42942  -0.40448  -0.39804  -0.38696
  Beta  occ. eigenvalues --   -0.38346  -0.36877  -0.36182  -0.35746  -0.33529
  Beta  occ. eigenvalues --   -0.32735  -0.31934  -0.31223  -0.29405  -0.29234
  Beta  occ. eigenvalues --   -0.28522  -0.27256  -0.26507  -0.25790  -0.24510
  Beta  occ. eigenvalues --   -0.23192  -0.22445  -0.20937  -0.18493  -0.17832
  Beta  occ. eigenvalues --   -0.17401
  Beta virt. eigenvalues --    0.06606   0.07431   0.08014   0.08303   0.09418
  Beta virt. eigenvalues --    0.09704   0.09839   0.10298   0.10980   0.11485
  Beta virt. eigenvalues --    0.11645   0.12583   0.13058   0.14079   0.14137

 Mulliken charges and spin densities:
               1          2
     1  C    0.851438  -1.422354
     2  C   -0.998969   1.325855
     3  C    2.249555  -2.784119
     4  C   -0.593022   0.504302
     5  O   -0.270904   0.033600
     6  O   -0.131400   0.002362
     7  O    0.028742  -0.024720
     8  C    0.381864  -0.430302
     9  O   -0.193220   0.014190
    10  C   -0.314976  -0.220606
    11  C   -0.025686  -0.052587
    12  C    0.095754  -0.531841
    13  O   -0.247614  -0.001692
    14  H    0.155007   0.056637
    15  H   -0.157238   0.273008
    16  H   -0.363863   0.530506
    17  H   -1.088449   1.336734
    18  H   -0.064451   0.283994
    19  H   -0.514611   0.727126
    20  H    0.062992   0.221206
    21  H    0.083383   0.134062
    22  H    0.038398   0.138679
    23  H   -0.210365   0.392788
    24  H    0.017208   0.120634
    25  H   -0.277174   0.445655
    26  H    0.246348  -0.116368
    27  H    0.241254   0.043252
 Sum of Mulliken charges =  -1.00000   1.00000

 Dipole moment (field-independent basis, Debye):
    X=             -1.3713    Y=             -4.4325    Z=              2.7180  Tot=              5.3773
 Quadrupole moment (field-independent basis, Debye-Ang):
   XX=           -140.4877   YY=           -126.3163   ZZ=           -106.6855
   XY=             -5.1119   XZ=              2.4481   YZ=              4.9322

 Summary of Natural Population Analysis:

                                       Natural Population
                Natural  -----------------------------------------------
    Atom  No    Charge         Core      Valence    Rydberg      Total
 -----------------------------------------------------------------------
      C    1   -0.30168      0.99963     2.29534    0.00671     3.30168
      C    2    0.06692      0.99953     1.91686    0.01669     2.93308
      C    3   -0.24947      0.99954     2.23945    0.01048     3.24947
      C    4    0.41458      0.99972     1.55926    0.02644     2.58542
      O    5   -0.30529      0.99986     3.29956    0.00587     4.30529
      O    6   -0.34575      0.99987     3.33925    0.00662     4.34575
      O    7   -0.30298      0.99986     3.29198    0.01114     4.30298
      C    8    0.41764      0.99967     1.55679    0.02589     2.58236
      O    9   -0.30000      0.99987     3.29425    0.00589     4.30000
      C   10   -0.23829      0.99958     2.23050    0.00821     3.23829
      C   11   -0.19729      0.99963     2.18859    0.00907     3.19729
      C   12   -0.01233      0.99960     2.00096    0.01177     3.01233
      O   13   -0.37531      0.99990     3.36844    0.00698     4.37531
      H   14    0.11440      0.00000     0.38419    0.00140     0.38560
      H   15    0.10020      0.00000     0.39849    0.00131     0.39980
      H   16    0.10852      0.00000     0.38993    0.00155     0.39148
      H   17    0.10287      0.00000     0.39146    0.00567     0.39713
      H   18    0.11579      0.00000     0.38268    0.00153     0.38421
      H   19    0.12314      0.00000     0.37171    0.00515     0.37686
      H   20    0.23910      0.00000     0.25765    0.00325     0.26090
      H   21    0.11112      0.00000     0.38732    0.00155     0.38888
      H   22    0.11242      0.00000     0.38648    0.00110     0.38758
      H   23    0.10021      0.00000     0.39842    0.00136     0.39979
      H   24    0.10020      0.00000     0.39858    0.00121     0.39980
      H   25    0.08629      0.00000     0.41238    0.00133     0.41371
      H   26    0.07692      0.00000     0.42151    0.00157     0.42308
      H   27    0.23805      0.00000     0.25853    0.00343     0.26195
 =======================================================================
   * Total *   -0.00000     12.99625    37.82056    0.18319    51.00000

 Normal termination of Gaussian 16 at Wed Dec  9 22:48:05 2020.
