 Gaussian 16, Revision A.03,

 -----------------------------------------------------------
 # opt freq B3LYP/6-31G(d) empiricaldispersion=gd3bj scf=xqc
 -----------------------------------------------------------

 ------------------------------
 CID_43214884_JID_9639_neutraal
 ------------------------------
 Symbolic Z-matrix:
 Charge =  0 Multiplicity = 1

 SCF Done:  E(RB3LYP) =  -1254.41111316     A.U. after   16 cycles
 SCF Done:  E(RB3LYP) =  -1254.41572359     A.U. after   14 cycles
 SCF Done:  E(RB3LYP) =  -1254.41087616     A.U. after   15 cycles
 SCF Done:  E(RB3LYP) =  -1254.41570972     A.U. after   13 cycles
 SCF Done:  E(RB3LYP) =  -1254.41761503     A.U. after   11 cycles
 SCF Done:  E(RB3LYP) =  -1254.41856588     A.U. after   13 cycles
 SCF Done:  E(RB3LYP) =  -1254.41940699     A.U. after   14 cycles
 SCF Done:  E(RB3LYP) =  -1254.41977661     A.U. after   14 cycles
 SCF Done:  E(RB3LYP) =  -1254.42007984     A.U. after   12 cycles
 SCF Done:  E(RB3LYP) =  -1254.42028237     A.U. after   13 cycles
 SCF Done:  E(RB3LYP) =  -1254.42469570     A.U. after    8 cycles
 SCF Done:  E(RB3LYP) =  -1254.42469577     A.U. after    8 cycles
 SCF Done:  E(RB3LYP) =  -1254.42469582     A.U. after    8 cycles
 SCF Done:  E(RB3LYP) =  -1254.42469587     A.U. after    8 cycles
 SCF Done:  E(RB3LYP) =  -1254.42469590     A.U. after    7 cycles
 Optimization completed.
    -- Stationary point found.
 Normal termination of Gaussian 16 at Sun Dec 13 16:48:25 2020.

 --------------------------------------------------------------------
 #N Geom=AllCheck Guess=TCheck SCRF=Check GenChk RB3LYP/6-31G(d) Freq
 --------------------------------------------------------------------

 Structure from the checkpoint file:  "JID_9639.chk"
 ------------------------------
 CID_43214884_JID_9639_neutraal
 ------------------------------
 Charge =  0 Multiplicity = 1

 SCF Done:  E(RB3LYP) =  -1254.42469590     A.U. after    1 cycles

  Exact polarizability: 193.249 -14.043 175.713  -7.658 -13.801 122.318
 Approx polarizability: 276.830 -35.521 292.005 -15.964 -36.745 204.979

                      1                      2                      3
                      A                      A                      A
 Frequencies --     20.5512                27.4858                36.3871
 Red. masses --      5.5568                 6.4452                 5.2811
 Frc consts  --      0.0014                 0.0029                 0.0041
 IR Inten    --      1.4713                 2.0840                 2.0821

                      4                      5                      6
                      A                      A                      A
 Frequencies --     65.9900                73.6357                76.8278
 Red. masses --      6.4125                 6.5679                 4.7502
 Frc consts  --      0.0165                 0.0210                 0.0165
 IR Inten    --      1.5800                 5.8103                 0.7173

                      7                      8                      9
                      A                      A                      A
 Frequencies --     89.3773               110.0480               138.9535
 Red. masses --      1.7681                 2.3168                 5.4207
 Frc consts  --      0.0083                 0.0165                 0.0617
 IR Inten    --      0.4159                 1.3598                 2.4439

                     10                     11                     12
                      A                      A                      A
 Frequencies --    142.1388               164.4068               200.4000
 Red. masses --      5.6098                 1.3706                 4.9484
 Frc consts  --      0.0668                 0.0218                 0.1171
 IR Inten    --     13.2027                 0.6345                 2.3100

                     13                     14                     15
                      A                      A                      A
 Frequencies --    213.2544               233.7314               242.5709
 Red. masses --      3.3249                 6.2468                 6.2471
 Frc consts  --      0.0891                 0.2011                 0.2166
 IR Inten    --      1.5378                 3.1445                 1.5228

                     16                     17                     18
                      A                      A                      A
 Frequencies --    269.8698               277.2311               340.4570
 Red. masses --      1.6902                 7.1709                 3.3626
 Frc consts  --      0.0725                 0.3247                 0.2296
 IR Inten    --     10.0081                 1.7273                 4.8602

                     19                     20                     21
                      A                      A                      A
 Frequencies --    365.3615               378.1414               395.5412
 Red. masses --      3.6584                 2.3782                 4.5581
 Frc consts  --      0.2877                 0.2004                 0.4202
 IR Inten    --      8.6092                 1.7760                 1.0166

                     22                     23                     24
                      A                      A                      A
 Frequencies --    416.2795               449.3803               458.8930
 Red. masses --      2.4885                 3.6950                 3.5843
 Frc consts  --      0.2541                 0.4396                 0.4447
 IR Inten    --      3.1785                 3.8843                 3.7144

                     25                     26                     27
                      A                      A                      A
 Frequencies --    479.1287               487.5603               540.9261
 Red. masses --      5.2531                 8.4908                 5.3545
 Frc consts  --      0.7105                 1.1892                 0.9231
 IR Inten    --     13.0067                21.6730                28.6612

                     28                     29                     30
                      A                      A                      A
 Frequencies --    576.3856               579.2520               591.2323
 Red. masses --      5.2911                 4.4680                 4.2723
 Frc consts  --      1.0357                 0.8833                 0.8799
 IR Inten    --      7.7256                24.7247                67.9057

                     31                     32                     33
                      A                      A                      A
 Frequencies --    617.1939               627.2475               707.9959
 Red. masses --      4.9097                 4.5870                 3.4088
 Frc consts  --      1.1019                 1.0633                 1.0067
 IR Inten    --     10.7444                11.9844                 2.7672

                     34                     35                     36
                      A                      A                      A
 Frequencies --    723.1737               750.7050               770.5799
 Red. masses --      3.3412                 4.7505                 4.3086
 Frc consts  --      1.0295                 1.5774                 1.5074
 IR Inten    --      6.2077                 0.8797                24.5611

                     37                     38                     39
                      A                      A                      A
 Frequencies --    778.4458               784.8081               830.0512
 Red. masses --      2.9444                 1.5787                 3.0348
 Frc consts  --      1.0512                 0.5729                 1.2320
 IR Inten    --     10.3644                19.3433               149.7355

                     40                     41                     42
                      A                      A                      A
 Frequencies --    854.8981               902.3266               929.1134
 Red. masses --      4.3106                 1.4590                 1.8500
 Frc consts  --      1.8562                 0.6999                 0.9409
 IR Inten    --      0.7652                 1.9922                18.1947

                     43                     44                     45
                      A                      A                      A
 Frequencies --    966.2801               996.5580              1002.3700
 Red. masses --      1.3629                 2.8952                 1.2955
 Frc consts  --      0.7497                 1.6941                 0.7669
 IR Inten    --      2.1878                 7.4443                 0.0852

                     46                     47                     48
                      A                      A                      A
 Frequencies --   1029.5680              1073.1694              1077.4374
 Red. masses --      1.8630                 2.6610                 3.4885
 Frc consts  --      1.1635                 1.8057                 2.3860
 IR Inten    --     55.9633                28.4154                67.8729

                     49                     50                     51
                      A                      A                      A
 Frequencies --   1095.0778              1109.1094              1128.0388
 Red. masses --      1.3767                 3.2036                 3.5416
 Frc consts  --      0.9727                 2.3219                 2.6552
 IR Inten    --      8.0526                62.2137                78.6469

                     52                     53                     54
                      A                      A                      A
 Frequencies --   1141.1350              1186.6777              1188.8556
 Red. masses --      1.2196                 1.3592                 1.4057
 Frc consts  --      0.9357                 1.1277                 1.1706
 IR Inten    --      1.5392                28.4733                10.1097

                     55                     56                     57
                      A                      A                      A
 Frequencies --   1190.5842              1202.5078              1219.1393
 Red. masses --      1.4889                 1.1058                 2.3715
 Frc consts  --      1.2435                 0.9421                 2.0768
 IR Inten    --     34.2181                 0.3859                 1.6650

                     58                     59                     60
                      A                      A                      A
 Frequencies --   1251.8027              1263.5746              1294.5331
 Red. masses --      2.6918                 1.3233                 2.8015
 Frc consts  --      2.4852                 1.2448                 2.7661
 IR Inten    --      3.2702                 9.7202                73.6341

                     61                     62                     63
                      A                      A                      A
 Frequencies --   1295.4395              1323.4554              1335.1601
 Red. masses --      2.5183                 1.6687                 3.4399
 Frc consts  --      2.4900                 1.7221                 3.6130
 IR Inten    --     14.5596                 7.9329               126.6137

                     64                     65                     66
                      A                      A                      A
 Frequencies --   1361.4949              1376.7576              1445.7050
 Red. masses --      4.0286                 1.3252                 1.6050
 Frc consts  --      4.3998                 1.4799                 1.9764
 IR Inten    --      4.2072                 3.2478                95.9211

                     67                     68                     69
                      A                      A                      A
 Frequencies --   1451.5430              1460.0008              1487.1942
 Red. masses --      1.2502                 1.7115                 1.1374
 Frc consts  --      1.5520                 2.1494                 1.4822
 IR Inten    --     26.5816                44.6748                 6.5142

                     70                     71                     72
                      A                      A                      A
 Frequencies --   1497.4860              1500.3808              1520.6493
 Red. masses --      2.2118                 1.1794                 1.0564
 Frc consts  --      2.9222                 1.5643                 1.4393
 IR Inten    --      6.6434                24.3097                 5.5070

                     73                     74                     75
                      A                      A                      A
 Frequencies --   1525.0617              1534.6378              1537.9037
 Red. masses --      1.0542                 1.0536                 2.5112
 Frc consts  --      1.4446                 1.4620                 3.4994
 IR Inten    --      4.7925                20.7086                13.9061

                     76                     77                     78
                      A                      A                      A
 Frequencies --   1542.6937              1567.9385              1631.1190
 Red. masses --      1.1063                 1.2344                 5.9201
 Frc consts  --      1.5513                 1.7880                 9.2801
 IR Inten    --      6.1841                44.0028                 0.2994

                     79                     80                     81
                      A                      A                      A
 Frequencies --   1659.7309              1768.2446              2353.5883
 Red. masses --      5.6600                 9.4692                12.6799
 Frc consts  --      9.1864                17.4441                41.3836
 IR Inten    --      1.6056               302.9608                13.7092

                     82                     83                     84
                      A                      A                      A
 Frequencies --   3017.6768              3034.6216              3075.7501
 Red. masses --      1.0495                 1.0417                 1.0934
 Frc consts  --      5.6312                 5.6517                 6.0946
 IR Inten    --     52.3610                62.7578                62.5012

                     85                     86                     87
                      A                      A                      A
 Frequencies --   3083.3345              3103.6645              3106.9439
 Red. masses --      1.1030                 1.0604                 1.0597
 Frc consts  --      6.1781                 6.0183                 6.0268
 IR Inten    --     26.0394                16.9461                 2.3146

                     88                     89                     90
                      A                      A                      A
 Frequencies --   3159.8881              3171.9701              3195.1285
 Red. masses --      1.1058                 1.1069                 1.0963
 Frc consts  --      6.5053                 6.5616                 6.5943
 IR Inten    --      4.8273                 0.7963                 0.8903

                     91                     92                     93
                      A                      A                      A
 Frequencies --   3199.6490              3200.1661              3211.6520
 Red. masses --      1.0940                 1.0865                 1.0899
 Frc consts  --      6.5991                 6.5559                 6.6237
 IR Inten    --      1.6181                 0.5860                 6.8936

                     94                     95                     96
                      A                      A                      A
 Frequencies --   3219.9894              3228.5994              3554.8607
 Red. masses --      1.0943                 1.0967                 1.0753
 Frc consts  --      6.6847                 6.7354                 8.0065
 IR Inten    --      9.4907                 6.5695                25.0772

 - Thermochemistry -
 -------------------
 Temperature   298.150 Kelvin.  Pressure   1.00000 Atm.
 Atom     1 has atomic number  6 and mass  12.00000

 Molecular mass:   281.08341 amu.
 Principal axes and moments of inertia in atomic units:
                           1         2         3
     Eigenvalues --  3270.267047857.474789590.91957
           X            0.99988   0.00389  -0.01486
           Y           -0.00388   0.99999   0.00058
           Z            0.01486  -0.00052   0.99989
 This molecule is an asymmetric top.
 Rotational symmetry number  1.
 Warning -- assumption of classical behavior for rotation
           may cause significant error
 Rotational temperatures (Kelvin)      0.02649     0.01102     0.00903
 Rotational constants (GHZ):           0.55186     0.22968     0.18817
 Zero-point vibrational energy     705045.7 (Joules/Mol)
                                  168.50997 (Kcal/Mol)
 Warning -- explicit consideration of  31 degrees of freedom as
           vibrations may cause significant error
 Vibrational temperatures:     29.57    39.55    52.35    94.94   105.95
          (Kelvin)            110.54   128.59   158.33   199.92   204.51
                              236.54   288.33   306.83   336.29   349.01
                              388.28   398.87   489.84   525.67   544.06
                              569.10   598.93   646.56   660.24   689.36
                              701.49   778.27   829.29   833.41   850.65
                              888.00   902.47  1018.65  1040.49  1080.10
                             1108.69  1120.01  1129.16  1194.26  1230.01
                             1298.25  1336.79  1390.26  1433.82  1442.19
                             1481.32  1544.05  1550.19  1575.57  1595.76
                             1623.00  1641.84  1707.36  1710.50  1712.99
                             1730.14  1754.07  1801.06  1818.00  1862.54
                             1863.85  1904.16  1921.00  1958.89  1980.85
                             2080.05  2088.45  2100.62  2139.74  2154.55
                             2158.71  2187.88  2194.22  2208.00  2212.70
                             2219.59  2255.91  2346.82  2387.98  2544.11
                             3386.29  4341.76  4366.14  4425.32  4436.23
                             4465.48  4470.20  4546.37  4563.76  4597.08
                             4603.58  4604.33  4620.85  4632.85  4645.23
                             5114.65

 Zero-point correction=                           0.268538 (Hartree/Particle)
 Thermal correction to Energy=                    0.287790
 Thermal correction to Enthalpy=                  0.288735
 Thermal correction to Gibbs Free Energy=         0.218684
 Sum of electronic and zero-point Energies=          -1254.156158
 Sum of electronic and thermal Energies=             -1254.136905
 Sum of electronic and thermal Enthalpies=           -1254.135961
 Sum of electronic and thermal Free Energies=        -1254.206011

                     E (Thermal)             CV                S
                      KCal/Mol        Cal/Mol-Kelvin    Cal/Mol-Kelvin
 Total                  180.591             70.171            147.433
 Electronic               0.000              0.000              0.000
 Translational            0.889              2.981             42.799
 Rotational               0.889              2.981             33.865
 Vibrational            178.814             64.210             70.769
 Vibration     1          0.593              1.986              6.580
 Vibration     2          0.593              1.984              6.003
 Vibration     3          0.594              1.982              5.447
 Vibration     4          0.597              1.970              4.270
 Vibration     5          0.599              1.966              4.054
 Vibration     6          0.599              1.965              3.970
 Vibration     7          0.602              1.957              3.674
 Vibration     8          0.606              1.941              3.268
 Vibration     9          0.615              1.914              2.818
 Vibration    10          0.616              1.911              2.775
 Vibration    11          0.623              1.886              2.498
 Vibration    12          0.638              1.839              2.129
 Vibration    13          0.644              1.821              2.016
 Vibration    14          0.654              1.789              1.850
 Vibration    15          0.659              1.775              1.784
 Vibration    16          0.674              1.729              1.597
 Vibration    17          0.678              1.716              1.551
 Vibration    18          0.720              1.595              1.210
 Vibration    19          0.739              1.544              1.099
 Vibration    20          0.748              1.517              1.047
 Vibration    21          0.762              1.480              0.979
 Vibration    22          0.779              1.435              0.905
 Vibration    23          0.808              1.362              0.798
 Vibration    24          0.817              1.341              0.769
 Vibration    25          0.836              1.296              0.712
 Vibration    26          0.844              1.278              0.690
 Vibration    27          0.896              1.160              0.563
 Vibration    28          0.933              1.082              0.492
 Vibration    29          0.936              1.076              0.487
 Vibration    30          0.949              1.050              0.465
 Vibration    31          0.977              0.996              0.421

                           ! Non-Optimized Parameters !
 Normal termination of Gaussian 16 at Sun Dec 13 17:07:19 2020.

 ----------------------------------------------------------------------
 # B3LYP/6-311++G(d,p) empiricaldispersion=gd3bj scf=xqc pop=npa geom=c
 heck
 ----------------------------------------------------------------------

 --------------------------------------
 CID_43214884_JID_9639_Energie_neutraal
 --------------------------------------
 Structure from the checkpoint file:  "JID_9639.chk"
 Charge =  0 Multiplicity = 1

 SCF Done:  E(RB3LYP) =  -1254.69436244     A.U. after   17 cycles
 Normal termination of Gaussian 16 at Sun Dec 13 17:16:12 2020.

 ----------------------------------------------------------------------
 # B3LYP/6-311++G(d,p) empiricaldispersion=gd3bj scf=xqc pop=npa geom=c
 heck
 ----------------------------------------------------------------------

 ------------------------------------
 CID_43214884_JID_9639_Energie_kation
 ------------------------------------
 Structure from the checkpoint file:  "JID_9639.chk"
 Charge =  1 Multiplicity = 2

 SCF Done:  E(UB3LYP) =  -1254.36750221     A.U. after   33 cycles
 SCF Done:  E(UB3LYP) =  -1254.36750221     a.u. after    2 cycles
 Normal termination of Gaussian 16 at Sun Dec 13 18:06:16 2020.
 Gaussian 16:  ES64L-G16RevA.03 25-Dec-2016

 ----------------------------------------------------------------------
 # B3LYP/6-311++G(d,p) empiricaldispersion=gd3bj scf=xqc pop=npa geom=c
 heck
 ----------------------------------------------------------------------

 -----------------------------------
 CID_43214884_JID_9639_Energie_anion
 -----------------------------------
 Structure from the checkpoint file:  "JID_9639.chk"
 Charge = -1 Multiplicity = 2

                         Standard orientation:
 ---------------------------------------------------------------------
 Center     Atomic      Atomic             Coordinates (Angstroms)
 Number     Number       Type             X           Y           Z
 ---------------------------------------------------------------------
      1          6           0       -4.241929    1.675510    0.903693
      2          7           0       -3.408873    0.526599    0.582868
      3          6           0       -2.752127   -0.102065    1.714732
      4          6           0       -3.258783    0.166503   -0.730217
      5          8           0       -3.840418    0.736273   -1.648160
      6          6           0       -2.294379   -0.981175   -1.047758
      7          7           0       -0.909928   -0.544437   -0.804554
      8         16           0        0.212775   -1.654096   -0.196265
      9          8           0       -0.554568   -2.707566    0.478870
     10          8           0        1.214635   -1.953864   -1.220836
     11          6           0        1.027489   -0.664366    1.106538
     12          6           0        1.690027    0.559692    0.551583
     13          6           0        0.960271    1.738021    0.370747
     14          6           0        1.551577    2.868138   -0.191866
     15          6           0        2.890564    2.836695   -0.585686
     16          6           0        3.637592    1.676179   -0.410650
     17          6           0        3.043431    0.537334    0.153372
     18          6           0        3.835603   -0.640123    0.350552
     19          7           0        4.485951   -1.584611    0.542876
     20          1           0       -5.047355    1.382479    1.588528
     21          1           0       -4.669058    2.059548   -0.021142
     22          1           0       -3.644894    2.459457    1.388777
     23          1           0       -2.270181   -1.038055    1.440704
     24          1           0       -1.995187    0.567618    2.149025
     25          1           0       -3.492816   -0.317587    2.494540
     26          1           0       -2.485688   -1.871319   -0.446323
     27          1           0       -2.453568   -1.236350   -2.097948
     28          1           0       -0.502947   -0.043174   -1.589553
     29          1           0        0.241474   -0.425043    1.824102
     30          1           0        1.737675   -1.358656    1.563553
     31          1           0       -0.085201    1.757666    0.661106
     32          1           0        0.966143    3.773041   -0.323167
     33          1           0        3.353353    3.715162   -1.024071
     34          1           0        4.680588    1.637081   -0.705456
 ---------------------------------------------------------------------

 SCF Done:  E(UB3LYP) =  -1254.71475578     A.U. after   31 cycles

 The electronic state is 2-A.
 Alpha  occ. eigenvalues --  -88.95194 -19.01891 -19.01161 -19.01045 -14.27198
 Alpha  occ. eigenvalues --  -14.25063 -14.15422 -10.19460 -10.13431 -10.13051
 Alpha  occ. eigenvalues --  -10.12607 -10.09934 -10.05611 -10.05390 -10.05272
 Alpha  occ. eigenvalues --  -10.05250 -10.05063 -10.04215 -10.03410  -8.01519
 Alpha  occ. eigenvalues --   -5.97827  -5.97754  -5.97519  -1.01623  -0.96336
 Alpha  occ. eigenvalues --   -0.90837  -0.86414  -0.83349  -0.76234  -0.73620
 Alpha  occ. eigenvalues --   -0.68519  -0.66314  -0.64561  -0.63367  -0.61267
 Alpha  occ. eigenvalues --   -0.59470  -0.52280  -0.50535  -0.47864  -0.47394
 Alpha  occ. eigenvalues --   -0.45164  -0.42421  -0.41701  -0.41074  -0.39952
 Alpha  occ. eigenvalues --   -0.38901  -0.38606  -0.36799  -0.35531  -0.34453
 Alpha  occ. eigenvalues --   -0.33398  -0.33304  -0.33154  -0.32924  -0.31434
 Alpha  occ. eigenvalues --   -0.31101  -0.30312  -0.29574  -0.29294  -0.26378
 Alpha  occ. eigenvalues --   -0.25353  -0.24296  -0.23509  -0.22693  -0.21718
 Alpha  occ. eigenvalues --   -0.21434  -0.21122  -0.20259  -0.19706  -0.18733
 Alpha  occ. eigenvalues --   -0.17351  -0.16730  -0.13496  -0.12874   0.03581
 Alpha virt. eigenvalues --    0.05109   0.07449   0.07710   0.08360   0.08657
 Alpha virt. eigenvalues --    0.09323   0.09964   0.10345   0.10546   0.11036
 Alpha virt. eigenvalues --    0.11506   0.11810   0.12030   0.12998   0.13910

  Beta  occ. eigenvalues --  -88.95155 -19.01852 -19.01142 -19.01041 -14.27198
  Beta  occ. eigenvalues --  -14.25059 -14.15097 -10.19458 -10.13428 -10.13046
  Beta  occ. eigenvalues --  -10.12598 -10.09940 -10.05632 -10.05392 -10.05085
  Beta  occ. eigenvalues --  -10.05062 -10.04884 -10.04109 -10.03057  -8.01473
  Beta  occ. eigenvalues --   -5.97794  -5.97723  -5.97451  -1.01525  -0.96330
  Beta  occ. eigenvalues --   -0.90756  -0.86410  -0.83323  -0.75731  -0.73153
  Beta  occ. eigenvalues --   -0.68294  -0.66213  -0.64502  -0.62779  -0.61123
  Beta  occ. eigenvalues --   -0.59266  -0.52090  -0.49923  -0.47685  -0.47340
  Beta  occ. eigenvalues --   -0.45093  -0.42281  -0.41684  -0.40960  -0.39890
  Beta  occ. eigenvalues --   -0.38840  -0.38480  -0.36610  -0.35291  -0.34325
  Beta  occ. eigenvalues --   -0.33376  -0.33281  -0.33135  -0.32895  -0.31256
  Beta  occ. eigenvalues --   -0.31075  -0.30203  -0.29497  -0.29234  -0.25353
  Beta  occ. eigenvalues --   -0.25216  -0.23908  -0.23275  -0.22624  -0.21276
  Beta  occ. eigenvalues --   -0.20979  -0.20789  -0.19874  -0.19254  -0.18547
  Beta  occ. eigenvalues --   -0.17333  -0.16692  -0.12586  -0.10696
  Beta virt. eigenvalues --    0.05146   0.07414   0.07639   0.08206   0.08609
  Beta virt. eigenvalues --    0.09355   0.09664   0.10111   0.10276   0.10493
  Beta virt. eigenvalues --    0.10966   0.11431   0.11719   0.11981   0.12950

 Mulliken charges and spin densities:
               1          2
     1  C   -0.080530  -0.194133
     2  N   -0.022436   0.019345
     3  C   -0.303384  -0.064132
     4  C   -0.108953   0.044349
     5  O   -0.333538  -0.000945
     6  C   -0.269012  -0.082796
     7  N   -0.337688   0.023055
     8  S    0.227697   0.023386
     9  O   -0.177971   0.008824
    10  O   -0.129839   0.004202
    11  C   -0.678343  -0.061255
    12  C    0.953256   0.251596
    13  C   -0.124631  -0.108531
    14  C   -0.520943   0.290852
    15  C   -0.246827   0.073514
    16  C   -0.452501   0.029722
    17  C    1.183226   0.302461
    18  C   -1.496872  -0.091368
    19  N   -0.288554   0.170346
    20  H    0.046619   0.090893
    21  H    0.151103   0.026569
    22  H    0.074265   0.063330
    23  H    0.114040   0.022077
    24  H    0.159849   0.020539
    25  H    0.065441   0.077908
    26  H    0.183520   0.031397
    27  H    0.180396   0.022638
    28  H    0.317194   0.013485
    29  H    0.161739   0.020597
    30  H    0.304166   0.001233
    31  H    0.087101  -0.019956
    32  H    0.109376  -0.003992
    33  H    0.115147  -0.008419
    34  H    0.137888   0.003208
 Sum of Mulliken charges =  -1.00000   1.00000

 Dipole moment (field-independent basis, Debye):
    X=             -9.1690    Y=              2.6980    Z=              2.2457  Tot=              9.8180
 Quadrupole moment (field-independent basis, Debye-Ang):
   XX=           -191.4536   YY=           -155.5170   ZZ=           -133.3400
   XY=             14.2285   XZ=            -12.7346   YZ=              2.4689

 Summary of Natural Population Analysis:

                                       Natural Population
                Natural  -----------------------------------------------
    Atom  No    Charge         Core      Valence    Rydberg      Total
 -----------------------------------------------------------------------
      C    1   -0.17948      0.99965     2.17367    0.00617     3.17948
      N    2   -0.24978      0.99964     2.74128    0.00885     3.74978
      C    3   -0.17861      0.99964     2.17238    0.00658     3.17861
      C    4    0.34097      0.99964     1.63617    0.02322     2.65903
      O    5   -0.32614      0.99988     3.32052    0.00574     4.32614
      C    6   -0.13258      0.99958     2.12191    0.01109     3.13258
      N    7   -0.44501      0.99975     2.93327    0.01200     3.94501
      S    8    1.10032      4.99931     1.80246    0.09791     6.89968
      O    9   -0.47462      0.99991     3.46866    0.00605     4.47462
      O   10   -0.44952      0.99991     3.44353    0.00609     4.44952
      C   11   -0.28249      0.99954     2.27106    0.01189     3.28249
      C   12    0.02033      0.99948     1.96922    0.01097     2.97967
      C   13   -0.12388      0.99952     2.11577    0.00859     3.12388
      C   14   -0.04019      0.99958     2.03119    0.00942     3.04019
      C   15   -0.09010      0.99957     2.08155    0.00898     3.09010
      C   16   -0.07597      0.99955     2.06863    0.00779     3.07597
      C   17   -0.02661      0.99938     2.01623    0.01100     3.02661
      C   18    0.14001      0.99965     1.84132    0.01902     2.85999
      N   19   -0.15443      0.99979     2.64346    0.01118     3.65443
      H   20    0.08985      0.00000     0.40879    0.00136     0.41015
      H   21    0.11627      0.00000     0.38244    0.00128     0.38373
      H   22    0.09272      0.00000     0.40600    0.00128     0.40728
      H   23    0.11183      0.00000     0.38675    0.00142     0.38817
      H   24    0.09459      0.00000     0.40410    0.00131     0.40541
      H   25    0.09135      0.00000     0.40749    0.00116     0.40865
      H   26    0.11707      0.00000     0.38119    0.00174     0.38293
      H   27    0.10396      0.00000     0.39451    0.00153     0.39604
      H   28    0.20378      0.00000     0.29433    0.00188     0.29622
      H   29    0.11061      0.00000     0.38819    0.00119     0.38939
      H   30    0.12558      0.00000     0.37348    0.00095     0.37442
      H   31    0.09416      0.00000     0.40373    0.00211     0.40584
      H   32    0.08774      0.00000     0.41079    0.00147     0.41226
      H   33    0.09096      0.00000     0.40801    0.00104     0.40904
      H   34    0.09731      0.00000     0.40180    0.00090     0.40269
 =======================================================================
   * Total *   -0.00000     22.99294    50.70387    0.30319    74.00000

 Normal termination of Gaussian 16 at Sun Dec 13 18:29:06 2020.
