 Gaussian 16, Revision A.03,

 -----------------------------------------------------------
 # opt freq B3LYP/6-31G(d) empiricaldispersion=gd3bj scf=xqc
 -----------------------------------------------------------

 ------------------------------
 CID_139992013_JID_714_neutraal
 ------------------------------
 Symbolic Z-matrix:
 Charge =  0 Multiplicity = 1

 SCF Done:  E(RB3LYP) =  -478.535297480     A.U. after   15 cycles
 SCF Done:  E(RB3LYP) =  -478.539347112     A.U. after   14 cycles
 SCF Done:  E(RB3LYP) =  -478.540656671     A.U. after   14 cycles
 SCF Done:  E(RB3LYP) =  -478.541484168     A.U. after   14 cycles
 SCF Done:  E(RB3LYP) =  -478.542036916     A.U. after   12 cycles
 SCF Done:  E(RB3LYP) =  -478.542181070     A.U. after   13 cycles
 SCF Done:  E(RB3LYP) =  -478.542211225     A.U. after   11 cycles
 SCF Done:  E(RB3LYP) =  -478.542222020     A.U. after   10 cycles
 SCF Done:  E(RB3LYP) =  -478.542224014     A.U. after    9 cycles
 SCF Done:  E(RB3LYP) =  -478.542224150     A.U. after    7 cycles
 Optimization completed.
    -- Stationary point found.
 Normal termination of Gaussian 16 at Tue Dec  8 12:25:10 2020.

 --------------------------------------------------------------------
 #N Geom=AllCheck Guess=TCheck SCRF=Check GenChk RB3LYP/6-31G(d) Freq
 --------------------------------------------------------------------

 Structure from the checkpoint file:  "JID_714.chk"
 ------------------------------
 CID_139992013_JID_714_neutraal
 ------------------------------
 Charge =  0 Multiplicity = 1

 SCF Done:  E(RB3LYP) =  -478.542224150     A.U. after    2 cycles

  Exact polarizability: 103.408   4.478  80.913   5.603   0.779  65.077
 Approx polarizability: 137.616  24.678 146.920  16.571  12.347  96.744

                      1                      2                      3
                      A                      A                      A
 Frequencies --     70.9632                73.4382               125.9611
 Red. masses --      2.4332                 4.1730                 3.3849
 Frc consts  --      0.0072                 0.0133                 0.0316
 IR Inten    --      0.2425                 5.1861                 1.3860

                      4                      5                      6
                      A                      A                      A
 Frequencies --    181.8453               213.9435               222.4701
 Red. masses --      3.4932                 1.2284                 1.0585
 Frc consts  --      0.0681                 0.0331                 0.0309
 IR Inten    --      0.4354                 1.0539                 0.3783

                      7                      8                      9
                      A                      A                      A
 Frequencies --    308.3032               323.8611               351.5912
 Red. masses --      2.0857                 4.6907                 2.1184
 Frc consts  --      0.1168                 0.2899                 0.1543
 IR Inten    --      4.3166                11.4073                 1.1514

                     10                     11                     12
                      A                      A                      A
 Frequencies --    396.1204               434.2411               487.5487
 Red. masses --      5.8492                 4.0303                 3.7352
 Frc consts  --      0.5408                 0.4478                 0.5231
 IR Inten    --     12.9719                 0.2776                 3.9253

                     13                     14                     15
                      A                      A                      A
 Frequencies --    521.8303               586.0878               653.2101
 Red. masses --      5.4401                 3.9996                 3.9657
 Frc consts  --      0.8728                 0.8095                 0.9970
 IR Inten    --      9.0543                 1.0727                 2.6519

                     16                     17                     18
                      A                      A                      A
 Frequencies --    695.1766               786.8243               788.3632
 Red. masses --      3.7195                 1.4305                 2.7270
 Frc consts  --      1.0591                 0.5218                 0.9986
 IR Inten    --     12.9886                 1.9776                 0.5110

                     19                     20                     21
                      A                      A                      A
 Frequencies --    842.4276               898.5948               934.8974
 Red. masses --      2.9737                 2.6543                 2.1640
 Frc consts  --      1.2434                 1.2628                 1.1144
 IR Inten    --      7.0797                14.7363                38.1131

                     22                     23                     24
                      A                      A                      A
 Frequencies --    971.3331               983.2630              1022.3774
 Red. masses --      2.1390                 3.4063                 2.0447
 Frc consts  --      1.1890                 1.9403                 1.2592
 IR Inten    --     29.6849                72.6862                10.5015

                     25                     26                     27
                      A                      A                      A
 Frequencies --   1085.0915              1107.4061              1114.7631
 Red. masses --      1.9753                 1.6321                 1.6120
 Frc consts  --      1.3703                 1.1792                 1.1803
 IR Inten    --     29.4497                 2.3307                19.5745

                     28                     29                     30
                      A                      A                      A
 Frequencies --   1143.9928              1168.8390              1235.4917
 Red. masses --      1.9305                 2.7626                 1.3146
 Frc consts  --      1.4886                 2.2237                 1.1823
 IR Inten    --      4.9007                60.9987                 5.5197

                     31                     32                     33
                      A                      A                      A
 Frequencies --   1298.3153              1334.5090              1344.7441
 Red. masses --      1.3509                 2.0336                 2.0194
 Frc consts  --      1.3416                 2.1338                 2.1516
 IR Inten    --      3.0296                 7.6948                10.1312

                     34                     35                     36
                      A                      A                      A
 Frequencies --   1373.5435              1382.9704              1402.8254
 Red. masses --      1.4156                 1.4051                 1.8404
 Frc consts  --      1.5736                 1.5833                 2.1338
 IR Inten    --      0.9809                 9.4907                15.8939

                     37                     38                     39
                      A                      A                      A
 Frequencies --   1432.5456              1439.6191              1478.8268
 Red. masses --      1.2259                 1.2733                 1.0945
 Frc consts  --      1.4823                 1.5548                 1.4103
 IR Inten    --      3.0807                14.9401                 8.2928

                     40                     41                     42
                      A                      A                      A
 Frequencies --   1500.5648              1517.8009              1528.6665
 Red. masses --      1.0870                 1.0535                 1.0447
 Frc consts  --      1.4421                 1.4300                 1.4383
 IR Inten    --      3.9551                 4.4782                 5.2843

                     43                     44                     45
                      A                      A                      A
 Frequencies --   1528.8047              1540.3342              1628.3632
 Red. masses --      1.0498                 1.0551                 9.1521
 Frc consts  --      1.4456                 1.4749                14.2979
 IR Inten    --      5.5969                 5.5010                25.4400

                     46                     47                     48
                      A                      A                      A
 Frequencies --   1793.9185              3046.6820              3058.5900
 Red. masses --     12.0997                 1.0667                 1.0357
 Frc consts  --     22.9419                 5.8338                 5.7086
 IR Inten    --    154.3198                 6.9191                27.6980

                     49                     50                     51
                      A                      A                      A
 Frequencies --   3064.1749              3069.4630              3099.0586
 Red. masses --      1.0363                 1.0611                 1.0885
 Frc consts  --      5.7325                 5.8904                 6.1593
 IR Inten    --      8.6501                13.0614                17.8995

                     52                     53                     54
                      A                      A                      A
 Frequencies --   3116.7082              3125.6336              3126.7875
 Red. masses --      1.1014                 1.0970                 1.1034
 Frc consts  --      6.3037                 6.3143                 6.3558
 IR Inten    --      4.3876                 3.7571                29.9051

                     55                     56                     57
                      A                      A                      A
 Frequencies --   3133.1945              3145.1662              3149.6911
 Red. masses --      1.1006                 1.1029                 1.1031
 Frc consts  --      6.3656                 6.4282                 6.4476
 IR Inten    --     27.9164                24.6823                16.4889

 - Thermochemistry -
 -------------------
 Temperature   298.150 Kelvin.  Pressure   1.00000 Atm.
 Atom     1 has atomic number  6 and mass  12.00000

 Molecular mass:   141.07898 amu.
 Principal axes and moments of inertia in atomic units:
                           1         2         3
     Eigenvalues --   782.718771736.756402130.61174
           X            0.99937  -0.03354  -0.01168
           Y            0.03312   0.99885  -0.03464
           Z            0.01282   0.03423   0.99933
 This molecule is an asymmetric top.
 Rotational symmetry number  1.
 Warning -- assumption of classical behavior for rotation
           may cause significant error
 Rotational temperatures (Kelvin)      0.11066     0.04987     0.04065
 Rotational constants (GHZ):           2.30573     1.03914     0.84705
 Zero-point vibrational energy     462905.5 (Joules/Mol)
                                  110.63707 (Kcal/Mol)
 Warning -- explicit consideration of  14 degrees of freedom as
           vibrations may cause significant error
 Vibrational temperatures:    102.10   105.66   181.23   261.63   307.82
          (Kelvin)            320.08   443.58   465.96   505.86   569.93
                              624.78   701.47   750.80   843.25   939.82
                             1000.20  1132.06  1134.28  1212.07  1292.88
                             1345.11  1397.53  1414.70  1470.97  1561.20
                             1593.31  1603.90  1645.95  1681.70  1777.60
                             1867.99  1920.06  1934.79  1976.22  1989.79
                             2018.35  2061.11  2071.29  2127.70  2158.98
                             2183.78  2199.41  2199.61  2216.20  2342.85
                             2581.05  4383.50  4400.63  4408.66  4416.27
                             4458.85  4484.25  4497.09  4498.75  4507.97
                             4525.19  4531.70

 Zero-point correction=                           0.176311 (Hartree/Particle)
 Thermal correction to Energy=                    0.186347
 Thermal correction to Enthalpy=                  0.187291
 Thermal correction to Gibbs Free Energy=         0.140986
 Sum of electronic and zero-point Energies=           -478.365913
 Sum of electronic and thermal Energies=              -478.355877
 Sum of electronic and thermal Enthalpies=            -478.354933
 Sum of electronic and thermal Free Energies=         -478.401238

                     E (Thermal)             CV                S
                      KCal/Mol        Cal/Mol-Kelvin    Cal/Mol-Kelvin
 Total                  116.934             37.305             97.457
 Electronic               0.000              0.000              0.000
 Translational            0.889              2.981             40.744
 Rotational               0.889              2.981             29.450
 Vibrational            115.157             31.343             27.263
 Vibration     1          0.598              1.968              4.126
 Vibration     2          0.599              1.967              4.059
 Vibration     3          0.611              1.927              3.007
 Vibration     4          0.630              1.864              2.309
 Vibration     5          0.644              1.820              2.010
 Vibration     6          0.648              1.807              1.939
 Vibration     7          0.698              1.658              1.371
 Vibration     8          0.708              1.628              1.291
 Vibration     9          0.728              1.572              1.159
 Vibration    10          0.763              1.478              0.977
 Vibration    11          0.795              1.396              0.845
 Vibration    12          0.843              1.278              0.690
 Vibration    13          0.877              1.202              0.606
 Vibration    14          0.943              1.061              0.474

 Optimization completed.
    -- Stationary point found.
 Normal termination of Gaussian 16 at Tue Dec  8 12:29:38 2020.

 ----------------------------------------------------------------------
 # B3LYP/6-311++G(d,p) empiricaldispersion=gd3bj scf=xqc pop=npa geom=c
 heck
 ----------------------------------------------------------------------

 --------------------------------------
 CID_139992013_JID_714_Energie_neutraal
 --------------------------------------
 Structure from the checkpoint file:  "JID_714.chk"
 Charge =  0 Multiplicity = 1

 SCF Done:  E(RB3LYP) =  -478.677616325     A.U. after   15 cycles
 Normal termination of Gaussian 16 at Tue Dec  8 12:32:31 2020.

 ----------------------------------------------------------------------
 # B3LYP/6-311++G(d,p) empiricaldispersion=gd3bj scf=xqc pop=npa geom=c
 heck
 ----------------------------------------------------------------------

 ------------------------------------
 CID_139992013_JID_714_Energie_kation
 ------------------------------------
 Structure from the checkpoint file:  "JID_714.chk"
 Charge =  1 Multiplicity = 2

 SCF Done:  E(UB3LYP) =  -478.341270169     A.U. after   25 cycles
 Normal termination of Gaussian 16 at Tue Dec  8 12:44:08 2020.
 Gaussian 16:  ES64L-G16RevA.03 25-Dec-2016

 ----------------------------------------------------------------------
 # B3LYP/6-311++G(d,p) empiricaldispersion=gd3bj scf=xqc pop=npa geom=c
 heck
 ----------------------------------------------------------------------

 -----------------------------------
 CID_139992013_JID_714_Energie_anion
 -----------------------------------
 Structure from the checkpoint file:  "JID_714.chk"
 Charge = -1 Multiplicity = 2

                         Standard orientation:
 ---------------------------------------------------------------------
 Center     Atomic      Atomic             Coordinates (Angstroms)
 Number     Number       Type             X           Y           Z
 ---------------------------------------------------------------------
      1          6           0        3.140268   -0.239871   -0.355792
      2          6           0        2.071489   -0.579313    0.695192
      3          6           0        0.669645   -0.390529    0.175177
      4          7           0       -0.002731   -1.459636   -0.106537
      5          8           0       -1.294362   -1.357432   -0.579454
      6          6           0       -2.009140   -0.105072   -0.386897
      7          6           0       -1.132976    1.065278   -0.818697
      8          6           0        0.175657    0.996034   -0.067002
      9          8           0        0.817485    1.974990    0.275009
     10          6           0       -2.499561   -0.007120    1.055791
     11          1           0        3.033154   -0.880548   -1.237752
     12          1           0        4.142964   -0.393202    0.056889
     13          1           0        3.059331    0.804418   -0.670528
     14          1           0        2.174471   -1.618252    1.021089
     15          1           0        2.204167    0.067377    1.569963
     16          1           0       -2.863802   -0.212638   -1.060320
     17          1           0       -0.907984    0.984855   -1.891492
     18          1           0       -1.615959    2.030882   -0.644777
     19          1           0       -3.114958    0.890467    1.181528
     20          1           0       -3.102040   -0.884296    1.305671
     21          1           0       -1.667503    0.051491    1.764415
 ---------------------------------------------------------------------

 SCF Done:  E(UB3LYP) =  -478.694725701     A.U. after   25 cycles

 The electronic state is 2-A.
 Alpha  occ. eigenvalues --  -18.99471 -18.90095 -14.16056 -10.08395 -10.04173
 Alpha  occ. eigenvalues --  -10.03249 -10.02134 -10.01958 -10.01935 -10.01296
 Alpha  occ. eigenvalues --   -0.92082  -0.84426  -0.70004  -0.64959  -0.60811
 Alpha  occ. eigenvalues --   -0.56894  -0.50317  -0.45828  -0.44495  -0.35819
 Alpha  occ. eigenvalues --   -0.34778  -0.31576  -0.30848  -0.29978  -0.28403
 Alpha  occ. eigenvalues --   -0.26768  -0.25204  -0.24293  -0.23782  -0.23348
 Alpha  occ. eigenvalues --   -0.21876  -0.20555  -0.19958  -0.18251  -0.17429
 Alpha  occ. eigenvalues --   -0.11923  -0.08614  -0.05585   0.05244
 Alpha virt. eigenvalues --    0.08966   0.09859   0.10903   0.12005   0.12486
 Alpha virt. eigenvalues --    0.12799   0.13602   0.14430   0.14925   0.15946
 Alpha virt. eigenvalues --    0.16216   0.17746   0.18554   0.19487   0.20089

  Beta  occ. eigenvalues --  -18.99355 -18.89426 -14.15259 -10.08376 -10.03777
  Beta  occ. eigenvalues --  -10.03231 -10.02133 -10.01973 -10.01962 -10.01277
  Beta  occ. eigenvalues --   -0.91558  -0.83224  -0.69328  -0.64721  -0.60608
  Beta  occ. eigenvalues --   -0.56694  -0.50105  -0.45567  -0.43549  -0.35555
  Beta  occ. eigenvalues --   -0.34466  -0.31188  -0.30676  -0.29750  -0.28177
  Beta  occ. eigenvalues --   -0.26439  -0.24846  -0.23738  -0.23480  -0.22787
  Beta  occ. eigenvalues --   -0.21610  -0.19806  -0.19227  -0.17671  -0.15314
  Beta  occ. eigenvalues --   -0.10866  -0.06814  -0.04898
  Beta virt. eigenvalues --    0.08878   0.09764   0.10841   0.11909   0.12272
  Beta virt. eigenvalues --    0.12753   0.13513   0.13995   0.14442   0.14946
  Beta virt. eigenvalues --    0.15906   0.16160   0.17681   0.18554   0.19448

 Mulliken charges and spin densities:
               1          2
     1  C   -0.577571  -0.014728
     2  C   -0.245478   0.046470
     3  C    0.459848  -0.128568
     4  N   -0.506870   0.384748
     5  O    0.121300   0.009572
     6  C    0.098371   0.069597
     7  C   -0.447528  -0.083877
     8  C   -0.162452   0.301970
     9  O   -0.458194   0.235387
    10  C   -0.480000  -0.122699
    11  H    0.121367  -0.008189
    12  H    0.054232   0.046314
    13  H    0.180239  -0.010439
    14  H    0.113155   0.013242
    15  H    0.126113   0.013874
    16  H    0.033453   0.147184
    17  H    0.092744   0.053555
    18  H    0.131370  -0.009228
    19  H    0.073206   0.016429
    20  H    0.122863   0.019589
    21  H    0.149831   0.019796
 Sum of Mulliken charges =  -1.00000   1.00000

 Dipole moment (field-independent basis, Debye):
    X=             -1.6912    Y=             -0.1220    Z=              0.0170  Tot=              1.6956
 Quadrupole moment (field-independent basis, Debye-Ang):
   XX=            -77.2687   YY=            -87.3411   ZZ=            -68.4196
   XY=             -5.9285   XZ=             -1.4188   YZ=             -2.9535

 Summary of Natural Population Analysis:

                                       Natural Population
                Natural  -----------------------------------------------
    Atom  No    Charge         Core      Valence    Rydberg      Total
 -----------------------------------------------------------------------
      C    1   -0.28228      0.99966     2.27869    0.00392     3.28228
      C    2   -0.19889      0.99961     2.18921    0.01008     3.19889
      C    3    0.02665      0.99955     1.95639    0.01741     2.97335
      N    4    0.04567      0.99959     2.43949    0.01525     3.45433
      O    5   -0.21829      0.99989     3.20593    0.01247     4.21829
      C    6    0.06002      0.99958     1.92324    0.01716     2.93998
      C    7   -0.24329      0.99958     2.23438    0.00933     3.24329
      C    8    0.29698      0.99960     1.68119    0.02224     2.70302
      O    9   -0.24583      0.99988     3.23915    0.00681     4.24583
      C   10   -0.29696      0.99964     2.29203    0.00529     3.29696
      H   11    0.09219      0.00000     0.40681    0.00100     0.40781
      H   12    0.08353      0.00000     0.41465    0.00182     0.41647
      H   13    0.10519      0.00000     0.39371    0.00110     0.39481
      H   14    0.09300      0.00000     0.40376    0.00324     0.40700
      H   15    0.09857      0.00000     0.39973    0.00170     0.40143
      H   16    0.08400      0.00000     0.41424    0.00176     0.41600
      H   17    0.10605      0.00000     0.39188    0.00207     0.39395
      H   18    0.09847      0.00000     0.39816    0.00337     0.40153
      H   19    0.09158      0.00000     0.40703    0.00139     0.40842
      H   20    0.09617      0.00000     0.40247    0.00136     0.40383
      H   21    0.10747      0.00000     0.39154    0.00099     0.39253
 =======================================================================
   * Total *   -0.00000      9.99658    27.86366    0.13976    38.00000

 Normal termination of Gaussian 16 at Tue Dec  8 13:04:47 2020.
