 Gaussian 16, Revision A.03,

 -----------------------------------------------------------
 # opt freq B3LYP/6-31G(d) empiricaldispersion=gd3bj scf=xqc
 -----------------------------------------------------------

 ------------------------------
 CID_67562659_JID_9007_neutraal
 ------------------------------
 Symbolic Z-matrix:
 Charge =  0 Multiplicity = 1

 SCF Done:  E(RB3LYP) =  -808.896942659     A.U. after   15 cycles
 SCF Done:  E(RB3LYP) =  -808.905412537     A.U. after   12 cycles
 SCF Done:  E(RB3LYP) =  -808.907404281     A.U. after   12 cycles
 SCF Done:  E(RB3LYP) =  -808.908789643     A.U. after   12 cycles
 SCF Done:  E(RB3LYP) =  -808.909866259     A.U. after   12 cycles
 SCF Done:  E(RB3LYP) =  -808.911808141     A.U. after   12 cycles
 SCF Done:  E(RB3LYP) =  -808.916080003     A.U. after   13 cycles
 SCF Done:  E(RB3LYP) =  -808.917288511     A.U. after   12 cycles
 SCF Done:  E(RB3LYP) =  -808.918013428     A.U. after   12 cycles
 SCF Done:  E(RB3LYP) =  -808.918171184     A.U. after   11 cycles
 SCF Done:  E(RB3LYP) =  -808.918269408     A.U. after    9 cycles
 SCF Done:  E(RB3LYP) =  -808.918271048     A.U. after    9 cycles
 SCF Done:  E(RB3LYP) =  -808.918271966     A.U. after    9 cycles
 SCF Done:  E(RB3LYP) =  -808.918272332     A.U. after    8 cycles
 SCF Done:  E(RB3LYP) =  -808.918272400     A.U. after    7 cycles
 Optimization completed.
    -- Stationary point found.
 Normal termination of Gaussian 16 at Mon Dec 14 13:39:02 2020.

 --------------------------------------------------------------------
 #N Geom=AllCheck Guess=TCheck SCRF=Check GenChk RB3LYP/6-31G(d) Freq
 --------------------------------------------------------------------

 Structure from the checkpoint file:  "JID_9007.chk"
 ------------------------------
 CID_67562659_JID_9007_neutraal
 ------------------------------
 Charge =  0 Multiplicity = 1

 SCF Done:  E(RB3LYP) =  -808.918272400     A.U. after    1 cycles

  Exact polarizability: 231.860  -8.334 173.509  16.073  10.645 144.602
 Approx polarizability: 274.940 -13.954 294.734  27.648  30.007 225.793

                      1                      2                      3
                      A                      A                      A
 Frequencies --     21.9253                27.9588                29.8721
 Red. masses --      4.4122                 2.4242                 2.9677
 Frc consts  --      0.0012                 0.0011                 0.0016
 IR Inten    --      0.0705                 0.1718                 0.2985

                      4                      5                      6
                      A                      A                      A
 Frequencies --     39.5507                55.3748                66.9729
 Red. masses --      2.3185                 4.4258                 3.7311
 Frc consts  --      0.0021                 0.0080                 0.0099
 IR Inten    --      0.0664                 2.0554                 2.1380

                      7                      8                      9
                      A                      A                      A
 Frequencies --    103.1713               131.3222               153.7878
 Red. masses --      3.1518                 3.2044                 1.4340
 Frc consts  --      0.0198                 0.0326                 0.0200
 IR Inten    --      2.6812                 0.4894                 0.3254

                     10                     11                     12
                      A                      A                      A
 Frequencies --    159.8172               170.8310               171.9441
 Red. masses --      3.3320                 2.6037                 1.1822
 Frc consts  --      0.0501                 0.0448                 0.0206
 IR Inten    --      1.0390                 0.9630                 0.0477

                     13                     14                     15
                      A                      A                      A
 Frequencies --    195.0367               227.0811               262.8329
 Red. masses --      2.2746                 2.9209                 3.1424
 Frc consts  --      0.0510                 0.0887                 0.1279
 IR Inten    --      3.4578                 1.1008                 1.0296

                     16                     17                     18
                      A                      A                      A
 Frequencies --    282.0965               297.9425               320.9042
 Red. masses --      2.2764                 3.4068                 3.7987
 Frc consts  --      0.1067                 0.1782                 0.2305
 IR Inten    --      2.9014                 2.0585                16.7217

                     19                     20                     21
                      A                      A                      A
 Frequencies --    342.4206               372.7822               389.0625
 Red. masses --      2.8952                 4.1404                 4.0413
 Frc consts  --      0.2000                 0.3390                 0.3604
 IR Inten    --      2.7263                 0.8435                 2.9183

                     22                     23                     24
                      A                      A                      A
 Frequencies --    416.7930               442.3016               463.1514
 Red. masses --      2.4632                 2.7636                 2.5273
 Frc consts  --      0.2521                 0.3185                 0.3194
 IR Inten    --      3.2762                 3.4906                11.2556

                     25                     26                     27
                      A                      A                      A
 Frequencies --    486.2338               518.4516               562.9677
 Red. masses --      2.7273                 3.2380                 3.8008
 Frc consts  --      0.3799                 0.5128                 0.7097
 IR Inten    --      0.7980                 3.3849                 2.5952

                     28                     29                     30
                      A                      A                      A
 Frequencies --    606.6457               617.5522               627.0338
 Red. masses --      3.5547                 3.1486                 2.6175
 Frc consts  --      0.7708                 0.7075                 0.6064
 IR Inten    --     23.1325                 5.5077                 1.2294

                     31                     32                     33
                      A                      A                      A
 Frequencies --    660.6563               706.3813               745.8166
 Red. masses --      3.7236                 3.7878                 4.4825
 Frc consts  --      0.9576                 1.1136                 1.4690
 IR Inten    --      5.9366                 5.2824                11.1758

                     34                     35                     36
                      A                      A                      A
 Frequencies --    762.9401               781.4696               808.8435
 Red. masses --      2.9525                 1.3153                 1.5221
 Frc consts  --      1.0126                 0.4732                 0.5867
 IR Inten    --      0.1696                 4.8805                11.5454

                     37                     38                     39
                      A                      A                      A
 Frequencies --    815.0545               838.6992               842.5864
 Red. masses --      1.3927                 1.5223                 1.4201
 Frc consts  --      0.5451                 0.6309                 0.5940
 IR Inten    --     32.5451                22.8281                 6.6187

                     40                     41                     42
                      A                      A                      A
 Frequencies --    846.2663               883.9516               900.1930
 Red. masses --      1.7122                 3.2001                 3.0910
 Frc consts  --      0.7225                 1.4732                 1.4758
 IR Inten    --     10.7312                 2.5490                 9.6367

                     43                     44                     45
                      A                      A                      A
 Frequencies --    907.7943               951.1268               952.9874
 Red. masses --      2.3485                 2.0008                 2.6006
 Frc consts  --      1.1403                 1.0665                 1.3915
 IR Inten    --      5.9721                 3.2543                 4.9072

                     46                     47                     48
                      A                      A                      A
 Frequencies --    963.1001               985.3559               995.4454
 Red. masses --      2.0014                 1.5938                 1.2902
 Frc consts  --      1.0938                 0.9117                 0.7533
 IR Inten    --      2.6254                 0.1084                 1.4051

                     49                     50                     51
                      A                      A                      A
 Frequencies --   1003.9863              1021.7886              1034.3998
 Red. masses --      1.3334                 1.8493                 1.6139
 Frc consts  --      0.7919                 1.1376                 1.0174
 IR Inten    --      0.5407                50.8672                 0.4535

                     52                     53                     54
                      A                      A                      A
 Frequencies --   1051.4272              1071.3668              1075.5115
 Red. masses --      2.4998                 2.7276                 2.5155
 Frc consts  --      1.6282                 1.8446                 1.7144
 IR Inten    --      1.2525                10.8317                 1.3783

                     55                     56                     57
                      A                      A                      A
 Frequencies --   1082.8452              1111.9690              1126.5146
 Red. masses --      1.5588                 2.6995                 2.1369
 Frc consts  --      1.0769                 1.9666                 1.5978
 IR Inten    --      5.4796                22.4195                 2.1057

                     58                     59                     60
                      A                      A                      A
 Frequencies --   1135.5441              1156.4178              1165.7198
 Red. masses --      2.0238                 1.3154                 2.9440
 Frc consts  --      1.5375                 1.0364                 2.3571
 IR Inten    --     24.6885                 6.4241                38.1377

                     61                     62                     63
                      A                      A                      A
 Frequencies --   1172.7726              1190.1425              1212.5886
 Red. masses --      2.1764                 2.2107                 1.4576
 Frc consts  --      1.7637                 1.8449                 1.2627
 IR Inten    --     43.2818                 2.5760                 0.5905

                     64                     65                     66
                      A                      A                      A
 Frequencies --   1220.2416              1243.0058              1250.4904
 Red. masses --      1.4409                 1.4066                 1.4018
 Frc consts  --      1.2641                 1.2804                 1.2915
 IR Inten    --      2.1523                33.6165                 2.4693

                     67                     68                     69
                      A                      A                      A
 Frequencies --   1258.9241              1269.4322              1285.4665
 Red. masses --      1.2597                 1.3553                 1.2274
 Frc consts  --      1.1763                 1.2868                 1.1950
 IR Inten    --      2.1508                 4.2311                 1.5372

                     70                     71                     72
                      A                      A                      A
 Frequencies --   1300.0103              1315.0708              1328.3358
 Red. masses --      2.1449                 1.2915                 1.2415
 Frc consts  --      2.1357                 1.3159                 1.2907
 IR Inten    --     20.4421                 0.5551                 2.6271

                     73                     74                     75
                      A                      A                      A
 Frequencies --   1344.6030              1347.0835              1355.6017
 Red. masses --      1.2944                 1.3664                 1.3535
 Frc consts  --      1.3789                 1.4609                 1.4654
 IR Inten    --     10.7919                 1.4232                22.7203

                     76                     77                     78
                      A                      A                      A
 Frequencies --   1359.1427              1368.0021              1375.7497
 Red. masses --      1.4633                 1.3413                 1.7443
 Frc consts  --      1.5926                 1.4789                 1.9451
 IR Inten    --     27.4588                 3.3636               101.9077

                     79                     80                     81
                      A                      A                      A
 Frequencies --   1388.0519              1412.2609              1426.1586
 Red. masses --      1.6266                 2.6677                 1.5377
 Frc consts  --      1.8464                 3.1348                 1.8427
 IR Inten    --      0.2199               108.2922                47.8514

                     82                     83                     84
                      A                      A                      A
 Frequencies --   1440.5622              1488.1876              1499.6256
 Red. masses --      1.2524                 1.2481                 1.6805
 Frc consts  --      1.5313                 1.6286                 2.2266
 IR Inten    --      0.5547                28.7206                 6.6962

                     85                     86                     87
                      A                      A                      A
 Frequencies --   1501.7286              1511.0773              1515.8084
 Red. masses --      1.1005                 1.0748                 1.2066
 Frc consts  --      1.4622                 1.4459                 1.6334
 IR Inten    --      3.7904                 2.3469                11.0804

                     88                     89                     90
                      A                      A                      A
 Frequencies --   1516.5593              1518.1068              1525.5442
 Red. masses --      1.0789                 1.0777                 1.0839
 Frc consts  --      1.4620                 1.4634                 1.4863
 IR Inten    --      0.4532                10.3868                 6.1775

                     91                     92                     93
                      A                      A                      A
 Frequencies --   1526.8418              1528.3969              1532.2646
 Red. masses --      1.1048                 1.0852                 1.0824
 Frc consts  --      1.5175                 1.4936                 1.4973
 IR Inten    --      4.9158                 2.6344                30.2808

                     94                     95                     96
                      A                      A                      A
 Frequencies --   1549.4289              1552.7381              1605.4231
 Red. masses --      1.0878                 1.0973                 7.9757
 Frc consts  --      1.5387                 1.5587                12.1115
 IR Inten    --     18.9707                 7.0003                 2.6621

                     97                     98                     99
                      A                      A                      A
 Frequencies --   1688.4820              1708.9026              1766.4974
 Red. masses --      6.7015                 5.7097                10.9355
 Frc consts  --     11.2567                 9.8242                20.1054
 IR Inten    --     10.2760                 5.5178               212.0692

                    100                    101                    102
                      A                      A                      A
 Frequencies --   2919.2657              3009.0629              3012.7931
 Red. masses --      1.0815                 1.0699                 1.0685
 Frc consts  --      5.4301                 5.7076                 5.7142
 IR Inten    --     65.6261                36.8321                42.4505

                    103                    104                    105
                      A                      A                      A
 Frequencies --   3036.8570              3047.9919              3054.2721
 Red. masses --      1.0381                 1.0633                 1.0611
 Frc consts  --      5.6409                 5.8200                 5.8323
 IR Inten    --     38.2532                24.2328                27.4403

                    106                    107                    108
                      A                      A                      A
 Frequencies --   3057.3567              3072.6674              3073.3921
 Red. masses --      1.0652                 1.0383                 1.0631
 Frc consts  --      5.8667                 5.7758                 5.9166
 IR Inten    --     32.3002                19.0880                58.3544

                    109                    110                    111
                      A                      A                      A
 Frequencies --   3086.9687              3087.9169              3090.4230
 Red. masses --      1.0933                 1.0995                 1.1013
 Frc consts  --      6.1385                 6.1769                 6.1970
 IR Inten    --     13.4540                22.0424                32.2647

                    112                    113                    114
                      A                      A                      A
 Frequencies --   3101.4577              3104.9448              3106.9311
 Red. masses --      1.0976                 1.1043                 1.0926
 Frc consts  --      6.2203                 6.2726                 6.2138
 IR Inten    --     16.2424                21.4114                27.7218

                    115                    116                    117
                      A                      A                      A
 Frequencies --   3120.0406              3126.7411              3141.6712
 Red. masses --      1.1056                 1.1009                 1.1005
 Frc consts  --      6.3410                 6.3416                 6.4000
 IR Inten    --     76.6218                17.5773                19.9815

                    118                    119                    120
                      A                      A                      A
 Frequencies --   3149.2284              3168.1496              3169.4669
 Red. masses --      1.0863                 1.1034                 1.0909
 Frc consts  --      6.3477                 6.5252                 6.4567
 IR Inten    --     19.7831                40.2126                24.9377

                    121                    122                    123
                      A                      A                      A
 Frequencies --   3190.3703              3194.5769              3475.1474
 Red. masses --      1.0903                 1.0910                 1.0739
 Frc consts  --      6.5384                 6.5599                 7.6411
 IR Inten    --     17.9079                14.0182                 0.0470

 - Thermochemistry -
 -------------------
 Temperature   298.150 Kelvin.  Pressure   1.00000 Atm.
 Atom     1 has atomic number  6 and mass  12.00000

 Molecular mass:   260.18886 amu.
 Principal axes and moments of inertia in atomic units:
                           1         2         3
     Eigenvalues --  1801.97442********************
           X            0.99999  -0.00314   0.00297
           Y            0.00321   0.99974  -0.02254
           Z           -0.00290   0.02255   0.99974
 This molecule is an asymmetric top.
 Rotational symmetry number  1.
 Warning -- assumption of classical behavior for rotation
           may cause significant error
 Rotational temperatures (Kelvin)      0.04807     0.00670     0.00652
 Rotational constants (GHZ):           1.00154     0.13966     0.13585
 Zero-point vibrational energy     998564.7 (Joules/Mol)
                                  238.66269 (Kcal/Mol)
 Warning -- explicit consideration of  29 degrees of freedom as
           vibrations may cause significant error
 Vibrational temperatures:     31.55    40.23    42.98    56.90    79.67
          (Kelvin)             96.36   148.44   188.94   221.27   229.94
                              245.79   247.39   280.61   326.72   378.16
                              405.87   428.67   461.71   492.67   536.35
                              559.77   599.67   636.37   666.37   699.58
                              745.94   809.98   872.83   888.52   902.16
                              950.54  1016.33  1073.06  1097.70  1124.36
                             1163.75  1172.68  1206.70  1212.29  1217.59
                             1271.81  1295.18  1306.11  1368.46  1371.14
                             1385.69  1417.71  1432.22  1444.51  1470.13
                             1488.27  1512.77  1541.46  1547.42  1557.97
                             1599.88  1620.80  1633.79  1663.83  1677.21
                             1687.36  1712.35  1744.64  1755.66  1788.41
                             1799.18  1811.31  1826.43  1849.50  1870.42
                             1892.09  1911.18  1934.58  1938.15  1950.41
                             1955.50  1968.25  1979.40  1997.10  2031.93
                             2051.92  2072.65  2141.17  2157.63  2160.65
                             2174.10  2180.91  2181.99  2184.22  2194.92
                             2196.78  2199.02  2204.59  2229.28  2234.04
                             2309.85  2429.35  2458.73  2541.60  4200.17
                             4329.37  4334.74  4369.36  4385.38  4394.42
                             4398.85  4420.88  4421.93  4441.46  4442.82
                             4446.43  4462.31  4467.32  4470.18  4489.04
                             4498.68  4520.16  4531.04  4558.26  4560.16
                             4590.23  4596.28  4999.96

 Zero-point correction=                           0.380333 (Hartree/Particle)
 Thermal correction to Energy=                    0.399789
 Thermal correction to Enthalpy=                  0.400733
 Thermal correction to Gibbs Free Energy=         0.329923
 Sum of electronic and zero-point Energies=           -808.537939
 Sum of electronic and thermal Energies=              -808.518483
 Sum of electronic and thermal Enthalpies=            -808.517539
 Sum of electronic and thermal Free Energies=         -808.588349

                     E (Thermal)             CV                S
                      KCal/Mol        Cal/Mol-Kelvin    Cal/Mol-Kelvin
 Total                  250.872             73.275            149.032
 Electronic               0.000              0.000              0.000
 Translational            0.889              2.981             42.568
 Rotational               0.889              2.981             34.091
 Vibrational            249.094             67.313             72.373
 Vibration     1          0.593              1.985              6.452
 Vibration     2          0.593              1.984              5.969
 Vibration     3          0.594              1.984              5.838
 Vibration     4          0.594              1.981              5.281
 Vibration     5          0.596              1.975              4.616
 Vibration     6          0.598              1.970              4.240
 Vibration     7          0.605              1.947              3.394
 Vibration     8          0.612              1.922              2.927
 Vibration     9          0.619              1.898              2.625
 Vibration    10          0.622              1.892              2.552
 Vibration    11          0.626              1.878              2.426
 Vibration    12          0.626              1.877              2.414
 Vibration    13          0.636              1.847              2.179
 Vibration    14          0.651              1.800              1.902
 Vibration    15          0.670              1.741              1.643
 Vibration    16          0.681              1.707              1.521
 Vibration    17          0.691              1.678              1.428
 Vibration    18          0.706              1.634              1.305
 Vibration    19          0.722              1.591              1.201
 Vibration    20          0.744              1.528              1.068
 Vibration    21          0.757              1.494              1.004
 Vibration    22          0.780              1.434              0.903
 Vibration    23          0.802              1.378              0.819
 Vibration    24          0.821              1.332              0.757
 Vibration    25          0.842              1.281              0.693
 Vibration    26          0.873              1.209              0.614
 Vibration    27          0.919              1.111              0.518
 Vibration    28          0.965              1.018              0.438
 Vibration    29          0.977              0.995              0.420

                           ! Non-Optimized Parameters !
 Normal termination of Gaussian 16 at Mon Dec 14 13:58:53 2020.

 ----------------------------------------------------------------------
 # B3LYP/6-311++G(d,p) empiricaldispersion=gd3bj scf=xqc pop=npa geom=c
 heck
 ----------------------------------------------------------------------

 --------------------------------------
 CID_67562659_JID_9007_Energie_neutraal
 --------------------------------------
 Structure from the checkpoint file:  "JID_9007.chk"
 Charge =  0 Multiplicity = 1

 SCF Done:  E(RB3LYP) =  -809.141671718     A.U. after   16 cycles
 Normal termination of Gaussian 16 at Mon Dec 14 14:10:07 2020.

 ----------------------------------------------------------------------
 # B3LYP/6-311++G(d,p) empiricaldispersion=gd3bj scf=xqc pop=npa geom=c
 heck
 ----------------------------------------------------------------------

 ------------------------------------
 CID_67562659_JID_9007_Energie_kation
 ------------------------------------
 Structure from the checkpoint file:  "JID_9007.chk"
 Charge =  1 Multiplicity = 2

 SCF Done:  E(UB3LYP) =  -808.864540002     A.U. after   29 cycles
 Normal termination of Gaussian 16 at Mon Dec 14 14:37:26 2020.
 Gaussian 16:  ES64L-G16RevA.03 25-Dec-2016

 ----------------------------------------------------------------------
 # B3LYP/6-311++G(d,p) empiricaldispersion=gd3bj scf=xqc pop=npa geom=c
 heck
 ----------------------------------------------------------------------

 -----------------------------------
 CID_67562659_JID_9007_Energie_anion
 -----------------------------------
 Structure from the checkpoint file:  "JID_9007.chk"
 Charge = -1 Multiplicity = 2

                         Standard orientation:
 ---------------------------------------------------------------------
 Center     Atomic      Atomic             Coordinates (Angstroms)
 Number     Number       Type             X           Y           Z
 ---------------------------------------------------------------------
      1          6           0        5.502790   -1.349393    1.246122
      2          6           0        4.664066   -0.318927    0.525183
      3          6           0        4.499186    0.927636    1.017226
      4          6           0        3.758641    1.990784    0.246141
      5          6           0        2.304395    1.611308    0.169163
      6          6           0        1.894701    0.540506   -0.548853
      7          6           0        2.808512   -0.399136   -1.175808
      8          6           0        4.035102   -0.755799   -0.712322
      9          7           0        0.495740    0.328120   -0.781367
     10          6           0       -0.348808    1.507153   -0.986071
     11          6           0       -0.033148   -0.934816   -0.587663
     12          8           0        0.653652   -1.898604   -0.272301
     13          6           0       -1.544730   -1.097510   -0.748482
     14          7           0       -2.237775   -0.441324    0.360904
     15          6           0       -3.691805   -0.572540    0.304309
     16          6           0       -4.355485   -0.055083    1.589966
     17          6           0       -5.813175    0.288335    1.192260
     18          6           0       -5.826221    0.335636   -0.363505
     19          6           0       -4.346155    0.293526   -0.782507
     20          1           0        5.974243   -0.929220    2.139589
     21          1           0        6.297876   -1.731872    0.592147
     22          1           0        4.898309   -2.212895    1.550036
     23          1           0        4.909861    1.180796    1.992878
     24          1           0        3.874994    2.969093    0.720620
     25          1           0        4.174860    2.061099   -0.770265
     26          1           0        1.574682    2.215477    0.701303
     27          1           0        2.421890   -0.927952   -2.042204
     28          1           0        4.543440   -1.556933   -1.248177
     29          1           0       -1.188698    1.267940   -1.639019
     30          1           0       -0.758879    1.891965   -0.047576
     31          1           0        0.258891    2.276474   -1.465686
     32          1           0       -1.891551   -0.655177   -1.688508
     33          1           0       -1.728078   -2.181350   -0.804663
     34          1           0       -1.904694   -0.862905    1.227522
     35          1           0       -3.999108   -1.624195    0.137685
     36          1           0       -4.294557   -0.774403    2.414002
     37          1           0       -3.814997    0.847393    1.900727
     38          1           0       -6.119802    1.244697    1.627215
     39          1           0       -6.516115   -0.464081    1.563859
     40          1           0       -6.344005    1.216543   -0.755201
     41          1           0       -6.348534   -0.541983   -0.761861
     42          1           0       -3.896223    1.293779   -0.735497
     43          1           0       -4.205980   -0.091111   -1.798230
 ---------------------------------------------------------------------

 SCF Done:  E(UB3LYP) =  -809.134513965     A.U. after   33 cycles
 SCF Done:  E(UB3LYP) =  -809.134513966     a.u. after    2 cycles

 The electronic state is 2-A.
 Alpha  occ. eigenvalues --  -18.98197 -14.24341 -14.21207 -10.16563 -10.10596
 Alpha  occ. eigenvalues --  -10.10552 -10.09998 -10.08935 -10.07498 -10.07423
 Alpha  occ. eigenvalues --  -10.07352 -10.07071 -10.06596 -10.06478 -10.06339
 Alpha  occ. eigenvalues --  -10.05298 -10.05148 -10.04943 -10.04838  -0.93542
 Alpha  occ. eigenvalues --   -0.83657  -0.82285  -0.73547  -0.72795  -0.67310
 Alpha  occ. eigenvalues --   -0.65128  -0.63274  -0.62031  -0.60512  -0.59749
 Alpha  occ. eigenvalues --   -0.57388  -0.53568  -0.51096  -0.48355  -0.47545
 Alpha  occ. eigenvalues --   -0.46503  -0.42604  -0.41763  -0.39985  -0.39337
 Alpha  occ. eigenvalues --   -0.38752  -0.38056  -0.35869  -0.35300  -0.34476
 Alpha  occ. eigenvalues --   -0.34021  -0.33603  -0.32486  -0.32425  -0.31661
 Alpha  occ. eigenvalues --   -0.31034  -0.30228  -0.29986  -0.29110  -0.28184
 Alpha  occ. eigenvalues --   -0.26751  -0.26484  -0.26093  -0.25299  -0.24904
 Alpha  occ. eigenvalues --   -0.24525  -0.24126  -0.23650  -0.22852  -0.22704
 Alpha  occ. eigenvalues --   -0.20457  -0.16477  -0.15198  -0.14484  -0.12202
 Alpha  occ. eigenvalues --   -0.10692   0.04085
 Alpha virt. eigenvalues --    0.05308   0.06830   0.07136   0.07230   0.07518
 Alpha virt. eigenvalues --    0.08176   0.08721   0.09396   0.09571   0.09823
 Alpha virt. eigenvalues --    0.10148   0.10262   0.10401   0.10859   0.10995

  Beta  occ. eigenvalues --  -18.98144 -14.24345 -14.21196 -10.16542 -10.10588
  Beta  occ. eigenvalues --  -10.10551 -10.09983 -10.08934 -10.07478 -10.07411
  Beta  occ. eigenvalues --  -10.07329 -10.07053 -10.06579 -10.06497 -10.06381
  Beta  occ. eigenvalues --  -10.05207 -10.04977 -10.04707 -10.04697  -0.93465
  Beta  occ. eigenvalues --   -0.83612  -0.82265  -0.73506  -0.72604  -0.67152
  Beta  occ. eigenvalues --   -0.64879  -0.63222  -0.61991  -0.60452  -0.59638
  Beta  occ. eigenvalues --   -0.57300  -0.53477  -0.50752  -0.48293  -0.47489
  Beta  occ. eigenvalues --   -0.46385  -0.42457  -0.41694  -0.39947  -0.39275
  Beta  occ. eigenvalues --   -0.38707  -0.37912  -0.35803  -0.35226  -0.34413
  Beta  occ. eigenvalues --   -0.33976  -0.33476  -0.32460  -0.32357  -0.31612
  Beta  occ. eigenvalues --   -0.30997  -0.30180  -0.29922  -0.28988  -0.28096
  Beta  occ. eigenvalues --   -0.26646  -0.26407  -0.25941  -0.25257  -0.24861
  Beta  occ. eigenvalues --   -0.24474  -0.24096  -0.23614  -0.22816  -0.22553
  Beta  occ. eigenvalues --   -0.20041  -0.16209  -0.15064  -0.14430  -0.11673
  Beta  occ. eigenvalues --   -0.09850
  Beta virt. eigenvalues --    0.06035   0.06720   0.07210   0.07557   0.07691
  Beta virt. eigenvalues --    0.08031   0.08228   0.08774   0.09512   0.09619
  Beta virt. eigenvalues --    0.10032   0.10325   0.10375   0.10440   0.10920

 Mulliken charges and spin densities:
               1          2
     1  C   -0.370441  -0.306497
     2  C    0.282381   0.140985
     3  C   -0.047473  -0.172399
     4  C   -0.239571  -0.200708
     5  C   -0.132143   0.546214
     6  C   -1.006490  -0.012891
     7  C    0.220708  -0.036599
     8  C   -0.168437   0.231766
     9  N    0.292138   0.019494
    10  C    0.015183  -0.350989
    11  C   -0.562862   0.099892
    12  O   -0.236917   0.017489
    13  C   -0.109391  -0.039403
    14  N    0.100705  -0.007657
    15  C   -0.840611   0.691427
    16  C    0.233707  -0.673209
    17  C    0.085626  -0.461756
    18  C    0.656613  -1.261199
    19  C   -0.054407   0.066202
    20  H    0.038761   0.082211
    21  H    0.091853   0.035611
    22  H    0.136359   0.021572
    23  H    0.024875   0.106300
    24  H    0.062639   0.042204
    25  H    0.144061   0.008960
    26  H    0.097199   0.049831
    27  H    0.115563   0.033917
    28  H    0.120319   0.004260
    29  H   -0.164778   0.305396
    30  H    0.147774   0.059141
    31  H    0.154485   0.005468
    32  H    0.201430  -0.063397
    33  H    0.071121   0.090229
    34  H    0.225368   0.048910
    35  H    0.041991   0.102557
    36  H    0.017999   0.130619
    37  H    0.027124   0.119370
    38  H   -0.036614   0.171024
    39  H   -0.202413   0.350060
    40  H   -0.304082   0.463412
    41  H   -0.078028   0.226261
    42  H    0.171994  -0.060573
    43  H   -0.223321   0.376494
 Sum of Mulliken charges =  -1.00000   1.00000

 Dipole moment (field-independent basis, Debye):
    X=              2.5372    Y=              0.8064    Z=             -0.1214  Tot=              2.6650
 Quadrupole moment (field-independent basis, Debye-Ang):
   XX=           -242.8035   YY=           -145.1517   ZZ=           -141.1440
   XY=              3.3690   XZ=             -2.6015   YZ=              0.9737

 Summary of Natural Population Analysis:

                                       Natural Population
                Natural  -----------------------------------------------
    Atom  No    Charge         Core      Valence    Rydberg      Total
 -----------------------------------------------------------------------
      C    1   -0.28562      0.99964     2.28104    0.00494     3.28562
      C    2   -0.04435      0.99948     2.03625    0.00862     3.04435
      C    3   -0.04864      0.99948     2.03994    0.00922     3.04864
      C    4   -0.22647      0.99962     2.21699    0.00985     3.22647
      C    5   -0.04566      0.99949     2.03784    0.00832     3.04566
      C    6    0.06151      0.99942     1.92605    0.01303     2.93849
      C    7   -0.07989      0.99953     2.07029    0.01006     3.07989
      C    8   -0.08179      0.99952     2.07270    0.00957     3.08179
      N    9   -0.25133      0.99961     2.74071    0.01101     3.75133
      C   10   -0.17348      0.99964     2.16739    0.00646     3.17348
      C   11    0.34305      0.99965     1.63449    0.02281     2.65695
      O   12   -0.30823      0.99988     3.30268    0.00567     4.30823
      C   13   -0.12460      0.99960     2.11579    0.00922     3.12460
      N   14   -0.33619      0.99972     2.82649    0.00998     3.83619
      C   15   -0.00973      0.99958     1.99695    0.01320     3.00973
      C   16   -0.19190      0.99962     2.18528    0.00700     3.19190
      C   17   -0.19138      0.99965     2.18479    0.00693     3.19138
      C   18   -0.19143      0.99965     2.18390    0.00789     3.19143
      C   19   -0.19766      0.99961     2.18767    0.01038     3.19766
      H   20    0.09693      0.00000     0.40188    0.00119     0.40307
      H   21    0.09547      0.00000     0.40306    0.00147     0.40453
      H   22    0.09992      0.00000     0.39870    0.00137     0.40008
      H   23    0.08735      0.00000     0.41140    0.00126     0.41265
      H   24    0.09814      0.00000     0.40064    0.00121     0.40186
      H   25    0.10274      0.00000     0.39559    0.00167     0.39726
      H   26    0.09249      0.00000     0.40611    0.00140     0.40751
      H   27    0.09713      0.00000     0.40119    0.00168     0.40287
      H   28    0.08936      0.00000     0.40889    0.00174     0.41064
      H   29    0.09739      0.00000     0.40147    0.00114     0.40261
      H   30    0.09815      0.00000     0.40020    0.00165     0.40185
      H   31    0.09929      0.00000     0.39958    0.00113     0.40071
      H   32    0.09707      0.00000     0.40131    0.00161     0.40293
      H   33    0.09307      0.00000     0.40533    0.00160     0.40693
      H   34    0.17291      0.00000     0.32388    0.00320     0.32709
      H   35    0.07868      0.00000     0.41973    0.00159     0.42132
      H   36    0.09843      0.00000     0.40046    0.00111     0.40157
      H   37    0.09955      0.00000     0.39873    0.00172     0.40045
      H   38    0.09740      0.00000     0.40130    0.00131     0.40260
      H   39    0.09723      0.00000     0.40122    0.00155     0.40277
      H   40    0.10021      0.00000     0.39859    0.00121     0.39979
      H   41    0.09585      0.00000     0.40268    0.00147     0.40415
      H   42    0.09851      0.00000     0.39997    0.00152     0.40149
      H   43    0.10052      0.00000     0.39826    0.00121     0.39948
 =======================================================================
   * Total *   -0.00000     18.99236    51.78744    0.22019    71.00000

 Normal termination of Gaussian 16 at Mon Dec 14 16:14:09 2020.
