 Gaussian 16, Revision A.03,

 -----------------------------------------------------------
 # opt freq B3LYP/6-31G(d) empiricaldispersion=gd3bj scf=xqc
 -----------------------------------------------------------

 -------------------------------
 CID_149108377_JID_2715_neutraal
 -------------------------------
 Symbolic Z-matrix:
 Charge =  0 Multiplicity = 1

 SCF Done:  E(RB3LYP) =  -532.295656305     A.U. after   14 cycles
 SCF Done:  E(RB3LYP) =  -532.306063239     A.U. after   12 cycles
 SCF Done:  E(RB3LYP) =  -532.307786185     A.U. after   12 cycles
 SCF Done:  E(RB3LYP) =  -532.307761634     A.U. after   12 cycles
 SCF Done:  E(RB3LYP) =  -532.308441917     A.U. after   11 cycles
 SCF Done:  E(RB3LYP) =  -532.308692968     A.U. after   12 cycles
 SCF Done:  E(RB3LYP) =  -532.308792598     A.U. after   12 cycles
 SCF Done:  E(RB3LYP) =  -532.308859115     A.U. after   11 cycles
 SCF Done:  E(RB3LYP) =  -532.308896504     A.U. after   11 cycles
 SCF Done:  E(RB3LYP) =  -532.308909427     A.U. after   10 cycles
 SCF Done:  E(RB3LYP) =  -532.308911490     A.U. after    8 cycles
 SCF Done:  E(RB3LYP) =  -532.308911995     A.U. after    8 cycles
 Optimization completed.
    -- Stationary point found.

 1\1\GINC-NODE308\FOpt\RB3LYP\6-31G(d)\C8H14N4\VSC10255\09-Dec-2020\0\\
 # opt freq B3LYP/6-31G(d) empiricaldispersion=gd3bj scf=xqc\\CID_14910
 8377_JID_2715_neutraal\\0,1\C,-0.7957011665,-1.421485711,-0.4614308213
 \C,-1.5073951963,-0.288022024,-1.2332987499\C,-1.0630509208,1.13397021
 75,-0.776112051\C,0.3367708564,1.0496385322,-0.1670329721\C,1.17353211
 39,0.0377423535,-0.9513388653\C,0.7529178053,-1.3919414955,-0.63124936
 15\N,2.5610048346,0.4709478611,-0.6912779392\C,2.3722611158,1.88852666
 58,-0.3397669276\N,1.1599391322,2.2623885306,-0.1317253023\N,3.4541943

 Normal termination of Gaussian 16 at Wed Dec  9 17:52:03 2020.

 --------------------------------------------------------------------
 #N Geom=AllCheck Guess=TCheck SCRF=Check GenChk RB3LYP/6-31G(d) Freq
 --------------------------------------------------------------------

 Structure from the checkpoint file:  "JID_2715.chk"
 -------------------------------
 CID_149108377_JID_2715_neutraal
 -------------------------------
 Charge =  0 Multiplicity = 1

 SCF Done:  E(RB3LYP) =  -532.308911995     A.U. after    1 cycles

  Exact polarizability: 149.979  11.937  99.076   4.339   5.229  77.296
 Approx polarizability: 189.695  29.913 161.381  10.064  16.104 124.021

                      1                      2                      3
                      A                      A                      A
 Frequencies --     49.0131                86.7151               150.4181
 Red. masses --      5.1634                 3.3168                 2.3033
 Frc consts  --      0.0073                 0.0147                 0.0307
 IR Inten    --      0.5811                 0.5819                 3.0899

                      4                      5                      6
                      A                      A                      A
 Frequencies --    167.8155               192.7659               246.8383
 Red. masses --      3.2078                 3.4885                 1.6491
 Frc consts  --      0.0532                 0.0764                 0.0592
 IR Inten    --     10.7456                28.8079                 4.1995

                      7                      8                      9
                      A                      A                      A
 Frequencies --    260.4757               295.9532               352.5255
 Red. masses --      1.7105                 2.9415                 2.4753
 Frc consts  --      0.0684                 0.1518                 0.1812
 IR Inten    --    107.4520                29.5913                14.3591

                     10                     11                     12
                      A                      A                      A
 Frequencies --    399.9566               427.3233               497.3091
 Red. masses --      4.3902                 2.7829                 2.1553
 Frc consts  --      0.4138                 0.2994                 0.3141
 IR Inten    --     11.3513                22.6087                18.1890

                     13                     14                     15
                      A                      A                      A
 Frequencies --    506.2828               525.3226               602.2547
 Red. masses --      3.0316                 3.2472                 2.2180
 Frc consts  --      0.4578                 0.5280                 0.4740
 IR Inten    --     10.9053                 5.9727                20.4972

                     16                     17                     18
                      A                      A                      A
 Frequencies --    630.1636               674.2744               723.4028
 Red. masses --      3.1180                 2.9613                 3.0314
 Frc consts  --      0.7295                 0.7932                 0.9347
 IR Inten    --     15.5012                 0.5875                 6.3388

                     19                     20                     21
                      A                      A                      A
 Frequencies --    784.6937               788.1693               823.2505
 Red. masses --      1.6345                 1.7824                 4.6280
 Frc consts  --      0.5930                 0.6524                 1.8480
 IR Inten    --     47.9441                 1.2043                22.4654

                     22                     23                     24
                      A                      A                      A
 Frequencies --    850.9805               864.1881               913.6557
 Red. masses --      2.4284                 1.8595                 1.9221
 Frc consts  --      1.0361                 0.8182                 0.9453
 IR Inten    --      4.8574                10.5441                 5.5427

                     25                     26                     27
                      A                      A                      A
 Frequencies --    916.0798               944.1001               993.6924
 Red. masses --      2.1170                 2.0561                 1.8343
 Frc consts  --      1.0467                 1.0798                 1.0672
 IR Inten    --      3.2432                17.7468                 0.2912

                     28                     29                     30
                      A                      A                      A
 Frequencies --   1004.7869              1063.5431              1069.2147
 Red. masses --      1.3619                 3.4780                 2.3583
 Frc consts  --      0.8101                 2.3179                 1.5885
 IR Inten    --      6.8024                 6.0093                10.5266

                     31                     32                     33
                      A                      A                      A
 Frequencies --   1101.2086              1111.5936              1130.6815
 Red. masses --      2.4130                 1.5323                 2.3494
 Frc consts  --      1.7240                 1.1155                 1.7697
 IR Inten    --     78.5544                 1.7778                 7.2646

                     34                     35                     36
                      A                      A                      A
 Frequencies --   1140.4184              1150.6345              1168.0300
 Red. masses --      2.7825                 1.8396                 2.3843
 Frc consts  --      2.1321                 1.4350                 1.9165
 IR Inten    --     34.1367                 6.0391                 0.6349

                     37                     38                     39
                      A                      A                      A
 Frequencies --   1221.7702              1232.9329              1271.4452
 Red. masses --      1.7506                 1.5821                 1.3349
 Frc consts  --      1.5396                 1.4170                 1.2714
 IR Inten    --      5.8020                10.3499                 7.8725

                     40                     41                     42
                      A                      A                      A
 Frequencies --   1284.4759              1297.6108              1335.8036
 Red. masses --      1.2674                 1.4174                 1.5852
 Frc consts  --      1.2320                 1.4061                 1.6665
 IR Inten    --      5.7281                38.5194                42.4721

                     43                     44                     45
                      A                      A                      A
 Frequencies --   1341.9749              1351.5301              1373.7159
 Red. masses --      1.4413                 1.5100                 1.3581
 Frc consts  --      1.5293                 1.6251                 1.5100
 IR Inten    --     29.4231                54.4916                19.1609

                     46                     47                     48
                      A                      A                      A
 Frequencies --   1378.7734              1392.2302              1398.1723
 Red. masses --      1.4034                 1.3052                 1.4093
 Frc consts  --      1.5718                 1.4906                 1.6232
 IR Inten    --     14.2901                10.0643                42.3858

                     49                     50                     51
                      A                      A                      A
 Frequencies --   1416.1933              1444.1013              1468.6740
 Red. masses --      1.5319                 1.3252                 1.4450
 Frc consts  --      1.8102                 1.6282                 1.8364
 IR Inten    --      2.8216                18.1170                23.3604

                     52                     53                     54
                      A                      A                      A
 Frequencies --   1517.4634              1520.8273              1532.6439
 Red. masses --      1.0824                 1.0776                 1.0955
 Frc consts  --      1.4685                 1.4684                 1.5161
 IR Inten    --      2.0466                 1.8134                 6.8712

                     55                     56                     57
                      A                      A                      A
 Frequencies --   1541.9826              1605.1868              1674.1935
 Red. masses --      1.0958                 1.3361                10.4074
 Frc consts  --      1.5351                 2.0284                17.1871
 IR Inten    --      1.6468                23.7593               387.0254

                     58                     59                     60
                      A                      A                      A
 Frequencies --   1728.5521              2955.7828              3017.6057
 Red. masses --      4.1389                 1.0816                 1.0835
 Frc consts  --      7.2862                 5.5675                 5.8133
 IR Inten    --    576.9388                33.9622                13.0202

                     61                     62                     63
                      A                      A                      A
 Frequencies --   3035.7079              3044.8750              3053.0865
 Red. masses --      1.0640                 1.0682                 1.0628
 Frc consts  --      5.7770                 5.8352                 5.8366
 IR Inten    --     34.9548                23.3274                38.7237

                     64                     65                     66
                      A                      A                      A
 Frequencies --   3063.2573              3078.0339              3086.6408
 Red. masses --      1.0620                 1.1006                 1.0973
 Frc consts  --      5.8714                 6.1439                 6.1594
 IR Inten    --     38.5373                10.8087                28.8385

                     67                     68                     69
                      A                      A                      A
 Frequencies --   3099.1740              3108.9214              3144.3032
 Red. masses --      1.1023                 1.1054                 1.0896
 Frc consts  --      6.2378                 6.2946                 6.3471
 IR Inten    --     63.9833                68.7200                46.1411

                     70                     71                     72
                      A                      A                      A
 Frequencies --   3434.9647              3470.7235              3685.4263
 Red. masses --      1.0736                 1.0558                 1.0945
 Frc consts  --      7.4631                 7.4934                 8.7584
 IR Inten    --      1.7674               106.0645                78.4337

 - Thermochemistry -
 -------------------
 Temperature   298.150 Kelvin.  Pressure   1.00000 Atm.
 Atom     1 has atomic number  6 and mass  12.00000

 Molecular mass:   166.12185 amu.
 Principal axes and moments of inertia in atomic units:
                           1         2         3
     Eigenvalues --   782.213063287.745323772.97225
           X            0.99996   0.00876   0.00141
           Y           -0.00874   0.99982  -0.01690
           Z           -0.00156   0.01689   0.99986
 This molecule is an asymmetric top.
 Rotational symmetry number  1.
 Warning -- assumption of classical behavior for rotation
           may cause significant error
 Rotational temperatures (Kelvin)      0.11073     0.02634     0.02296
 Rotational constants (GHZ):           2.30722     0.54893     0.47833
 Zero-point vibrational energy     599427.7 (Joules/Mol)
                                  143.26666 (Kcal/Mol)
 Warning -- explicit consideration of  15 degrees of freedom as
           vibrations may cause significant error
 Vibrational temperatures:     70.52   124.76   216.42   241.45   277.35
          (Kelvin)            355.15   374.77   425.81   507.21   575.45
                              614.82   715.52   728.43   755.82   866.51
                              906.66   970.13  1040.82  1129.00  1134.00
                             1184.47  1224.37  1243.37  1314.55  1318.03
                             1358.35  1429.70  1445.66  1530.20  1538.36
                             1584.39  1599.34  1626.80  1640.81  1655.51
                             1680.53  1757.85  1773.92  1829.33  1848.07
                             1866.97  1921.92  1930.80  1944.55  1976.47
                             1983.75  2003.11  2011.66  2037.59  2077.74
                             2113.09  2183.29  2188.13  2205.13  2218.57
                             2309.51  2408.79  2487.00  4252.71  4341.66
                             4367.71  4380.90  4392.71  4407.34  4428.60
                             4440.99  4459.02  4473.04  4523.95  4942.15
                             4993.60  5302.51

 Zero-point correction=                           0.228310 (Hartree/Particle)
 Thermal correction to Energy=                    0.239031
 Thermal correction to Enthalpy=                  0.239976
 Thermal correction to Gibbs Free Energy=         0.191792
 Sum of electronic and zero-point Energies=           -532.080602
 Sum of electronic and thermal Energies=              -532.069881
 Sum of electronic and thermal Enthalpies=            -532.068936
 Sum of electronic and thermal Free Energies=         -532.117120

                     E (Thermal)             CV                S
                      KCal/Mol        Cal/Mol-Kelvin    Cal/Mol-Kelvin
 Total                  149.994             42.246            101.411
 Electronic               0.000              0.000              0.000
 Translational            0.889              2.981             41.231
 Rotational               0.889              2.981             30.651
 Vibrational            148.217             36.284             29.529
 Vibration     1          0.595              1.978              4.857
 Vibration     2          0.601              1.958              3.733
 Vibration     3          0.618              1.902              2.667
 Vibration     4          0.625              1.882              2.460
 Vibration     5          0.635              1.850              2.201
 Vibration     6          0.661              1.768              1.753
 Vibration     7          0.669              1.745              1.659
 Vibration     8          0.690              1.681              1.440
 Vibration     9          0.729              1.570              1.155
 Vibration    10          0.766              1.470              0.963
 Vibration    11          0.789              1.411              0.867
 Vibration    12          0.853              1.256              0.665
 Vibration    13          0.862              1.236              0.643
 Vibration    14          0.880              1.194              0.598
 Vibration    15          0.961              1.027              0.446

                           ! Non-Optimized Parameters !

 1\1\GINC-NODE308\Freq\RB3LYP\6-31G(d)\C8H14N4\VSC10255\09-Dec-2020\0\\
 #N Geom=AllCheck Guess=TCheck SCRF=Check GenChk RB3LYP/6-31G(d) Freq\\
 CID_149108377_JID_2715_neutraal\\0,1\C,-0.7957011665,-1.421485711,-0.4
 614308213\C,-1.5073951963,-0.288022024,-1.2332987499\C,-1.0630509208,1
 .1339702175,-0.776112051\C,0.3367708564,1.0496385322,-0.1670329721\C,1
 .1735321139,0.0377423535,-0.9513388653\C,0.7529178053,-1.3919414955,-0
 .6312493615\N,2.5610048346,0.4709478611,-0.6912779392\C,2.3722611158,1
 .8885266658,-0.3397669276\N,1.1599391322,2.2623885306,-0.1317253023\N,

 Normal termination of Gaussian 16 at Wed Dec  9 17:58:27 2020.

 ----------------------------------------------------------------------
 # B3LYP/6-311++G(d,p) empiricaldispersion=gd3bj scf=xqc pop=npa geom=c
 heck
 ----------------------------------------------------------------------

 ---------------------------------------
 CID_149108377_JID_2715_Energie_neutraal
 ---------------------------------------
 Structure from the checkpoint file:  "JID_2715.chk"
 Charge =  0 Multiplicity = 1

 SCF Done:  E(RB3LYP) =  -532.462765953     A.U. after   15 cycles
 Normal termination of Gaussian 16 at Wed Dec  9 18:00:55 2020.

 ----------------------------------------------------------------------
 # B3LYP/6-311++G(d,p) empiricaldispersion=gd3bj scf=xqc pop=npa geom=c
 heck
 ----------------------------------------------------------------------

 -------------------------------------
 CID_149108377_JID_2715_Energie_kation
 -------------------------------------
 Structure from the checkpoint file:  "JID_2715.chk"
 Charge =  1 Multiplicity = 2

 SCF Done:  E(UB3LYP) =  -532.164641247     A.U. after   24 cycles
 Normal termination of Gaussian 16 at Wed Dec  9 18:06:02 2020.
 Gaussian 16:  ES64L-G16RevA.03 25-Dec-2016

 ------------------------------------
 CID_149108377_JID_2715_Energie_anion
 ------------------------------------
 Structure from the checkpoint file:  "JID_2715.chk"
 Charge = -1 Multiplicity = 2

                         Standard orientation:
 ---------------------------------------------------------------------
 Center     Atomic      Atomic             Coordinates (Angstroms)
 Number     Number       Type             X           Y           Z
 ---------------------------------------------------------------------
      1          6           0       -3.036282    0.884327   -0.342966
      2          6           0       -3.118125   -0.240692    0.712810
      3          6           0       -2.090929   -1.386066    0.464797
      4          6           0       -0.911011   -0.835791   -0.336815
      5          6           0       -0.599448    0.587845    0.127329
      6          6           0       -1.640551    1.575709   -0.386090
      7          7           0        0.820590    0.760725   -0.238707
      8          6           0        1.287797   -0.634627   -0.297221
      9          7           0        0.373890   -1.538218   -0.264424
     10          7           0        2.632825   -0.925130   -0.404228
     11          6           0        3.538851   -0.118736    0.045094
     12          7           0        3.394940    1.045795    0.723752
     13          1           0       -3.816576    1.629029   -0.151814
     14          1           0       -3.256876    0.456253   -1.328494
     15          1           0       -2.948231    0.197276    1.704550
     16          1           0       -4.135875   -0.645338    0.732846
     17          1           0       -2.555659   -2.221961   -0.068575
     18          1           0       -1.727436   -1.780151    1.420585
     19          1           0       -1.198572   -0.813827   -1.403214
     20          1           0       -0.622848    0.585904    1.226413
     21          1           0       -1.408538    1.870295   -1.418656
     22          1           0       -1.637358    2.491784    0.215427
     23          1           0        0.928622    1.198932   -1.157240
     24          1           0        4.577904   -0.421197   -0.100726
     25          1           0        4.203946    1.610233    0.932067
     26          1           0        2.459969    1.448740    0.760455
 ---------------------------------------------------------------------

 SCF Done:  E(UB3LYP) =  -532.452325786     A.U. after   32 cycles

 The electronic state is 2-A.
 Alpha  occ. eigenvalues --  -14.22544 -14.21806 -14.18707 -14.18060 -10.15125
 Alpha  occ. eigenvalues --  -10.14904 -10.09895 -10.09171 -10.07643 -10.07597
 Alpha  occ. eigenvalues --  -10.07509 -10.07118  -0.88878  -0.84258  -0.77250
 Alpha  occ. eigenvalues --   -0.75094  -0.72560  -0.64123  -0.63063  -0.55337
 Alpha  occ. eigenvalues --   -0.52349  -0.50896  -0.46267  -0.44933  -0.44382
 Alpha  occ. eigenvalues --   -0.41286  -0.39611  -0.38569  -0.35343  -0.33385
 Alpha  occ. eigenvalues --   -0.32600  -0.32075  -0.30476  -0.29059  -0.28142
 Alpha  occ. eigenvalues --   -0.27221  -0.26625  -0.24318  -0.23383  -0.22140
 Alpha  occ. eigenvalues --   -0.21492  -0.15989  -0.15792  -0.15040  -0.12660
 Alpha  occ. eigenvalues --    0.04274
 Alpha virt. eigenvalues --    0.05873   0.07454   0.07542   0.07635   0.08696
 Alpha virt. eigenvalues --    0.09441   0.09995   0.10698   0.11182   0.11711
 Alpha virt. eigenvalues --    0.11980   0.13482   0.13912   0.14715   0.15529

  Beta  occ. eigenvalues --  -14.22465 -14.21784 -14.18713 -14.18061 -10.15116
  Beta  occ. eigenvalues --  -10.14874 -10.09889 -10.09164 -10.07630 -10.07578
  Beta  occ. eigenvalues --  -10.07483 -10.07114  -0.88855  -0.84197  -0.77190
  Beta  occ. eigenvalues --   -0.75064  -0.72531  -0.64091  -0.63025  -0.55268
  Beta  occ. eigenvalues --   -0.52309  -0.50840  -0.46218  -0.44880  -0.44251
  Beta  occ. eigenvalues --   -0.41229  -0.39584  -0.38519  -0.35317  -0.33347
  Beta  occ. eigenvalues --   -0.32554  -0.32038  -0.30439  -0.29024  -0.28099
  Beta  occ. eigenvalues --   -0.27192  -0.26595  -0.24276  -0.23355  -0.22112
  Beta  occ. eigenvalues --   -0.21453  -0.15973  -0.15780  -0.15012  -0.12632
  Beta virt. eigenvalues --    0.06442   0.07587   0.07653   0.07843   0.08256
  Beta virt. eigenvalues --    0.09198   0.10274   0.10388   0.10818   0.11387
  Beta virt. eigenvalues --    0.12042   0.12388   0.13675   0.14019   0.15287

 Mulliken charges and spin densities:
               1          2
     1  C   -0.330468   0.116852
     2  C    0.223908  -0.570728
     3  C   -0.242479  -0.100642
     4  C   -0.293249  -0.060554
     5  C   -0.349981   0.138160
     6  C    0.720510  -1.265497
     7  N   -0.169058   0.015480
     8  C    0.187468  -0.343457
     9  N   -0.025348   0.004783
    10  N   -0.174154   0.061418
    11  C    0.696478  -0.610513
    12  N   -0.025490  -0.354202
    13  H   -0.489292   0.668760
    14  H    0.183892  -0.064925
    15  H    0.113581   0.002560
    16  H   -0.155756   0.331939
    17  H    0.131260   0.015819
    18  H    0.104974   0.059889
    19  H    0.083625   0.115937
    20  H    0.151840   0.093188
    21  H   -0.208487   0.343751
    22  H   -0.265171   0.438632
    23  H    0.073908   0.198996
    24  H   -0.372626   0.561349
    25  H   -0.733881   1.037348
    26  H    0.163994   0.165657
 Sum of Mulliken charges =  -1.00000   1.00000

 Dipole moment (field-independent basis, Debye):
    X=             -5.9742    Y=             -3.3218    Z=             -1.1076  Tot=              6.9248
 Quadrupole moment (field-independent basis, Debye-Ang):
   XX=           -157.5787   YY=           -120.3416   ZZ=            -96.4241
   XY=             -4.0376   XZ=             -5.0847   YZ=             -4.8986

 Summary of Natural Population Analysis:

                                       Natural Population
                Natural  -----------------------------------------------
    Atom  No    Charge         Core      Valence    Rydberg      Total
 -----------------------------------------------------------------------
      C    1   -0.19045      0.99963     2.18252    0.00830     3.19045
      C    2   -0.19329      0.99963     2.18541    0.00824     3.19329
      C    3   -0.18998      0.99961     2.18178    0.00859     3.18998
      C    4   -0.02352      0.99953     2.01113    0.01286     3.02352
      C    5   -0.01538      0.99954     2.00218    0.01365     3.01538
      C    6   -0.19153      0.99961     2.18241    0.00951     3.19153
      N    7   -0.36516      0.99972     2.85309    0.01236     3.86516
      C    8    0.29341      0.99958     1.68646    0.02056     2.70659
      N    9   -0.25585      0.99966     2.74648    0.00970     3.75585
      N   10   -0.29790      0.99964     2.78672    0.01153     3.79790
      C   11    0.17413      0.99965     1.80660    0.01962     2.82587
      N   12   -0.38939      0.99973     2.88088    0.00877     3.88939
      H   13    0.10235      0.00000     0.39621    0.00144     0.39765
      H   14    0.09319      0.00000     0.40567    0.00114     0.40681
      H   15    0.09468      0.00000     0.40417    0.00114     0.40532
      H   16    0.09955      0.00000     0.39947    0.00098     0.40045
      H   17    0.09621      0.00000     0.40261    0.00117     0.40379
      H   18    0.10103      0.00000     0.39768    0.00130     0.39897
      H   19    0.08710      0.00000     0.41112    0.00179     0.41290
      H   20    0.08918      0.00000     0.40866    0.00216     0.41082
      H   21    0.09831      0.00000     0.40025    0.00144     0.40169
      H   22    0.10173      0.00000     0.39681    0.00146     0.39827
      H   23    0.18583      0.00000     0.31217    0.00200     0.31417
      H   24    0.08270      0.00000     0.41568    0.00162     0.41730
      H   25    0.20267      0.00000     0.26909    0.02824     0.29733
      H   26    0.21036      0.00000     0.28660    0.00304     0.28964
 =======================================================================
   * Total *    0.00000     11.99554    32.81186    0.19261    45.00000

 Normal termination of Gaussian 16 at Wed Dec  9 18:13:22 2020.
