 Gaussian 16, Revision A.03,

 -----------------------------------------------------------
 # opt freq B3LYP/6-31G(d) empiricaldispersion=gd3bj scf=xqc
 -----------------------------------------------------------

 ------------------------------
 CID_79265342_JID_6547_neutraal
 ------------------------------
 Symbolic Z-matrix:
 Charge =  0 Multiplicity = 1

 SCF Done:  E(RB3LYP) =  -820.967244215     A.U. after   15 cycles
 SCF Done:  E(RB3LYP) =  -820.973634388     A.U. after   13 cycles
 SCF Done:  E(RB3LYP) =  -820.974074098     A.U. after   13 cycles
 SCF Done:  E(RB3LYP) =  -820.974608611     A.U. after   12 cycles
 SCF Done:  E(RB3LYP) =  -820.974834211     A.U. after   12 cycles
 SCF Done:  E(RB3LYP) =  -820.974948023     A.U. after   12 cycles
 SCF Done:  E(RB3LYP) =  -820.975041194     A.U. after   11 cycles
 SCF Done:  E(RB3LYP) =  -820.975052563     A.U. after   10 cycles
 SCF Done:  E(RB3LYP) =  -820.975074833     A.U. after    9 cycles
 SCF Done:  E(RB3LYP) =  -820.975094655     A.U. after   11 cycles
 SCF Done:  E(RB3LYP) =  -820.975107486     A.U. after    7 cycles
 SCF Done:  E(RB3LYP) =  -820.975107507     A.U. after    7 cycles
 SCF Done:  E(RB3LYP) =  -820.975107518     A.U. after    7 cycles
 SCF Done:  E(RB3LYP) =  -820.975107519     A.U. after    7 cycles
 SCF Done:  E(RB3LYP) =  -820.975107517     A.U. after    7 cycles
 Optimization completed.
    -- Stationary point found.
 Normal termination of Gaussian 16 at Thu Dec 10 23:36:53 2020.

 --------------------------------------------------------------------
 #N Geom=AllCheck Guess=TCheck SCRF=Check GenChk RB3LYP/6-31G(d) Freq
 --------------------------------------------------------------------

 Structure from the checkpoint file:  "JID_6547.chk"
 ------------------------------
 CID_79265342_JID_6547_neutraal
 ------------------------------
 Charge =  0 Multiplicity = 1

 SCF Done:  E(RB3LYP) =  -820.975107517     A.U. after    1 cycles

  Exact polarizability: 131.768   9.894 126.696 -12.110  -5.162 104.349
 Approx polarizability: 172.698  25.803 180.945 -29.065 -17.075 166.634

                      1                      2                      3
                      A                      A                      A
 Frequencies --     21.6932                26.7590                42.4669
 Red. masses --      9.7886                 3.6678                 5.8179
 Frc consts  --      0.0027                 0.0015                 0.0062
 IR Inten    --      2.1359                 0.5856                 0.3549

                      4                      5                      6
                      A                      A                      A
 Frequencies --     43.7431                56.6234                69.0773
 Red. masses --      3.9190                 4.9019                 4.8680
 Frc consts  --      0.0044                 0.0093                 0.0137
 IR Inten    --      0.2094                 0.5185                 0.7649

                      7                      8                      9
                      A                      A                      A
 Frequencies --    100.6740               126.6387               174.4982
 Red. masses --      3.6783                 3.8626                 3.7356
 Frc consts  --      0.0220                 0.0365                 0.0670
 IR Inten    --      0.5061                 0.8553                 3.8705

                     10                     11                     12
                      A                      A                      A
 Frequencies --    227.4589               256.0142               279.4231
 Red. masses --      3.2663                 4.2066                 2.4646
 Frc consts  --      0.0996                 0.1624                 0.1134
 IR Inten    --      0.8148                 5.1179                 3.4101

                     13                     14                     15
                      A                      A                      A
 Frequencies --    330.8331               350.9806               369.0857
 Red. masses --      4.6498                 2.9510                 4.1144
 Frc consts  --      0.2998                 0.2142                 0.3302
 IR Inten    --      7.8868                 5.8059                 8.9002

                     16                     17                     18
                      A                      A                      A
 Frequencies --    391.3078               416.2030               446.2329
 Red. masses --      3.3500                 2.3687                 7.2519
 Frc consts  --      0.3022                 0.2418                 0.8508
 IR Inten    --      0.8930                 3.1973                 0.5654

                     19                     20                     21
                      A                      A                      A
 Frequencies --    457.7028               495.3984               514.3210
 Red. masses --      2.7043                 1.8533                 2.3457
 Frc consts  --      0.3338                 0.2680                 0.3656
 IR Inten    --      2.2871                 7.3575                12.2606

                     22                     23                     24
                      A                      A                      A
 Frequencies --    534.0521               592.9122               622.5919
 Red. masses --      2.7828                 3.5456                 2.6736
 Frc consts  --      0.4676                 0.7344                 0.6106
 IR Inten    --      4.1890                73.6483                 8.5312

                     25                     26                     27
                      A                      A                      A
 Frequencies --    683.0371               690.5776               712.9305
 Red. masses --      3.9024                 1.6255                 2.1132
 Frc consts  --      1.0727                 0.4567                 0.6328
 IR Inten    --     21.8684                81.4905                33.7449

                     28                     29                     30
                      A                      A                      A
 Frequencies --    770.5920               843.9936               853.2692
 Red. masses --      4.5018                 3.0970                 3.5489
 Frc consts  --      1.5750                 1.2998                 1.5223
 IR Inten    --     14.8715                 5.3745                 1.4827

                     31                     32                     33
                      A                      A                      A
 Frequencies --    861.5042               898.7380               904.4566
 Red. masses --      3.5983                 3.0817                 2.1430
 Frc consts  --      1.5735                 1.4666                 1.0329
 IR Inten    --      5.4670                46.7798                 1.1229

                     34                     35                     36
                      A                      A                      A
 Frequencies --    922.1191               955.5071               960.2999
 Red. masses --      1.9498                 1.4010                 2.2873
 Frc consts  --      0.9768                 0.7536                 1.2428
 IR Inten    --     19.0985                45.2166                 2.1022

                     37                     38                     39
                      A                      A                      A
 Frequencies --    973.7547              1015.0291              1023.3714
 Red. masses --      2.4395                 2.5619                 1.1018
 Frc consts  --      1.3629                 1.5552                 0.6798
 IR Inten    --     31.7888                 1.6390                18.2605

                     40                     41                     42
                      A                      A                      A
 Frequencies --   1029.2938              1046.0642              1102.6550
 Red. masses --      2.5589                 2.5987                 2.3966
 Frc consts  --      1.5973                 1.6754                 1.7168
 IR Inten    --     27.7890                 1.2065                 5.1416

                     43                     44                     45
                      A                      A                      A
 Frequencies --   1146.0441              1151.5640              1160.8605
 Red. masses --      2.1336                 2.0937                 6.1322
 Frc consts  --      1.6511                 1.6358                 4.8688
 IR Inten    --     70.0553                 2.0508               149.6787

                     46                     47                     48
                      A                      A                      A
 Frequencies --   1179.8745              1192.4980              1227.8031
 Red. masses --      3.5704                 2.2790                 1.9295
 Frc consts  --      2.9284                 1.9095                 1.7138
 IR Inten    --    104.1146               173.9661                79.1797

                     49                     50                     51
                      A                      A                      A
 Frequencies --   1253.7549              1268.9853              1302.2690
 Red. masses --      1.8751                 1.1728                 1.1889
 Frc consts  --      1.7366                 1.1127                 1.1880
 IR Inten    --     43.2344                 7.7504                 5.5084

                     52                     53                     54
                      A                      A                      A
 Frequencies --   1316.0577              1331.3386              1336.1691
 Red. masses --      1.3989                 1.5402                 1.2644
 Frc consts  --      1.4275                 1.6084                 1.3300
 IR Inten    --      9.8563                37.5728                 4.6480

                     55                     56                     57
                      A                      A                      A
 Frequencies --   1352.5103              1378.3327              1381.4248
 Red. masses --      1.2301                 1.3764                 2.2671
 Frc consts  --      1.3257                 1.5407                 2.5491
 IR Inten    --      6.5411                42.1635                32.5654

                     58                     59                     60
                      A                      A                      A
 Frequencies --   1389.7801              1398.5540              1405.5315
 Red. masses --      1.2216                 1.3303                 1.3648
 Frc consts  --      1.3902                 1.5331                 1.5885
 IR Inten    --     11.6807                12.9825                23.5742

                     61                     62                     63
                      A                      A                      A
 Frequencies --   1428.3810              1440.2160              1461.6147
 Red. masses --      1.3892                 1.3283                 1.8229
 Frc consts  --      1.6699                 1.6233                 2.2944
 IR Inten    --      7.6652                 4.7530                61.2641

                     64                     65                     66
                      A                      A                      A
 Frequencies --   1474.7870              1496.3301              1506.4615
 Red. masses --      1.2281                 1.1019                 1.0856
 Frc consts  --      1.5738                 1.4535                 1.4516
 IR Inten    --     15.9909                11.1101                 0.7856

                     67                     68                     69
                      A                      A                      A
 Frequencies --   1517.4738              1520.1599              1523.8689
 Red. masses --      1.1540                 1.1193                 1.1027
 Frc consts  --      1.5657                 1.5240                 1.5087
 IR Inten    --     18.2699                11.7875                 6.8136

                     70                     71                     72
                      A                      A                      A
 Frequencies --   1737.0257              1772.5849              1853.8466
 Red. masses --      4.5021                10.6471                10.3249
 Frc consts  --      8.0035                19.7104                20.9067
 IR Inten    --      3.4176               213.4510               312.2419

                     73                     74                     75
                      A                      A                      A
 Frequencies --   2988.2987              2995.7476              3058.7268
 Red. masses --      1.0706                 1.0707                 1.0691
 Frc consts  --      5.6328                 5.6613                 5.8932
 IR Inten    --     23.2751               100.7113                31.6913

                     76                     77                     78
                      A                      A                      A
 Frequencies --   3081.4474              3087.0613              3096.9082
 Red. masses --      1.0817                 1.0624                 1.0667
 Frc consts  --      6.0514                 5.9652                 6.0278
 IR Inten    --     31.5510                36.6152                19.9096

                     79                     80                     81
                      A                      A                      A
 Frequencies --   3114.0549              3116.9733              3140.6864
 Red. masses --      1.0929                 1.0942                 1.0978
 Frc consts  --      6.2441                 6.2632                 6.3801
 IR Inten    --     55.4096                23.2575                 6.1293

                     82                     83                     84
                      A                      A                      A
 Frequencies --   3141.7103              3148.4269              3157.4994
 Red. masses --      1.0861                 1.1065                 1.0889
 Frc consts  --      6.3159                 6.4624                 6.3965
 IR Inten    --      8.4538                13.2079                12.6740

                     85                     86                     87
                      A                      A                      A
 Frequencies --   3168.1220              3247.6146              3685.5652
 Red. masses --      1.0700                 1.1169                 1.0641
 Frc consts  --      6.3277                 6.9407                 8.5164
 IR Inten    --      5.9472                13.7942                67.9131

 - Thermochemistry -
 -------------------
 Temperature   298.150 Kelvin.  Pressure   1.00000 Atm.
 Atom     1 has atomic number  6 and mass  12.00000

 Molecular mass:   229.09502 amu.
 Principal axes and moments of inertia in atomic units:
                           1         2         3
     Eigenvalues --  2803.484514501.611036021.48458
           X            0.99927  -0.03828  -0.00044
           Y            0.03828   0.99926  -0.00229
           Z            0.00052   0.00227   1.00000
 This molecule is an asymmetric top.
 Rotational symmetry number  1.
 Warning -- assumption of classical behavior for rotation
           may cause significant error
 Rotational temperatures (Kelvin)      0.03090     0.01924     0.01438
 Rotational constants (GHZ):           0.64375     0.40091     0.29972
 Zero-point vibrational energy     671875.6 (Joules/Mol)
                                  160.58212 (Kcal/Mol)
 Warning -- explicit consideration of  23 degrees of freedom as
           vibrations may cause significant error
 Vibrational temperatures:     31.21    38.50    61.10    62.94    81.47
          (Kelvin)             99.39   144.85   182.20   251.06   327.26
                              368.35   402.03   475.99   504.98   531.03
                              563.00   598.82   642.03   658.53   712.77
                              739.99   768.38   853.07   895.77   982.74
                              993.59  1025.75  1108.71  1214.32  1227.66
                             1239.51  1293.08  1301.31  1326.72  1374.76
                             1381.66  1401.02  1460.40  1472.40  1480.92
                             1505.05  1586.47  1648.90  1656.84  1670.22
                             1697.58  1715.74  1766.53  1803.87  1825.79
                             1873.67  1893.51  1915.50  1922.45  1945.96
                             1983.11  1987.56  1999.58  2012.21  2022.25
                             2055.12  2072.15  2102.94  2121.89  2152.89
                             2167.46  2183.31  2187.17  2192.51  2499.19
                             2550.35  2667.27  4299.50  4310.21  4400.83
                             4433.52  4441.59  4455.76  4480.43  4484.63
                             4518.75  4520.22  4529.88  4542.94  4558.22
                             4672.59  5302.71

 Zero-point correction=                           0.255904 (Hartree/Particle)
 Thermal correction to Energy=                    0.271812
 Thermal correction to Enthalpy=                  0.272757
 Thermal correction to Gibbs Free Energy=         0.209306
 Sum of electronic and zero-point Energies=           -820.719204
 Sum of electronic and thermal Energies=              -820.703295
 Sum of electronic and thermal Enthalpies=            -820.702351
 Sum of electronic and thermal Free Energies=         -820.765801

                     E (Thermal)             CV                S
                      KCal/Mol        Cal/Mol-Kelvin    Cal/Mol-Kelvin
 Total                  170.565             57.885            133.543
 Electronic               0.000              0.000              0.000
 Translational            0.889              2.981             42.189
 Rotational               0.889              2.981             32.696
 Vibrational            168.787             51.923             58.658
 Vibration     1          0.593              1.985              6.473
 Vibration     2          0.593              1.984              6.056
 Vibration     3          0.595              1.980              5.141
 Vibration     4          0.595              1.980              5.082
 Vibration     5          0.596              1.975              4.572
 Vibration     6          0.598              1.969              4.179
 Vibration     7          0.604              1.949              3.441
 Vibration     8          0.611              1.926              2.996
 Vibration     9          0.627              1.874              2.386
 Vibration    10          0.651              1.799              1.899
 Vibration    11          0.666              1.753              1.689
 Vibration    12          0.680              1.712              1.537
 Vibration    13          0.713              1.614              1.256
 Vibration    14          0.728              1.573              1.162
 Vibration    15          0.741              1.536              1.084
 Vibration    16          0.759              1.489              0.995
 Vibration    17          0.779              1.435              0.905
 Vibration    18          0.805              1.369              0.807
 Vibration    19          0.816              1.344              0.773
 Vibration    20          0.851              1.260              0.670
 Vibration    21          0.869              1.218              0.623
 Vibration    22          0.889              1.175              0.578
 Vibration    23          0.950              1.047              0.462

 Optimization completed.
    -- Stationary point found.
 Normal termination of Gaussian 16 at Thu Dec 10 23:46:56 2020.

 ----------------------------------------------------------------------
 # B3LYP/6-311++G(d,p) empiricaldispersion=gd3bj scf=xqc pop=npa geom=c
 heck
 ----------------------------------------------------------------------

 --------------------------------------
 CID_79265342_JID_6547_Energie_neutraal
 --------------------------------------
 Structure from the checkpoint file:  "JID_6547.chk"
 Charge =  0 Multiplicity = 1

 SCF Done:  E(RB3LYP) =  -821.226770695     A.U. after   15 cycles
 Normal termination of Gaussian 16 at Thu Dec 10 23:50:56 2020.

 ----------------------------------------------------------------------
 # B3LYP/6-311++G(d,p) empiricaldispersion=gd3bj scf=xqc pop=npa geom=c
 heck
 ----------------------------------------------------------------------

 ------------------------------------
 CID_79265342_JID_6547_Energie_kation
 ------------------------------------
 Structure from the checkpoint file:  "JID_6547.chk"
 Charge =  1 Multiplicity = 2

 SCF Done:  E(UB3LYP) =  -820.919458213     A.U. after   27 cycles
 Normal termination of Gaussian 16 at Fri Dec 11 00:00:44 2020.
 Gaussian 16:  ES64L-G16RevA.03 25-Dec-2016

 ----------------------------------------------------------------------
 # B3LYP/6-311++G(d,p) empiricaldispersion=gd3bj scf=xqc pop=npa geom=c
 heck
 ----------------------------------------------------------------------

 -----------------------------------
 CID_79265342_JID_6547_Energie_anion
 -----------------------------------
 Structure from the checkpoint file:  "JID_6547.chk"
 Charge = -1 Multiplicity = 2

                         Standard orientation:
 ---------------------------------------------------------------------
 Center     Atomic      Atomic             Coordinates (Angstroms)
 Number     Number       Type             X           Y           Z
 ---------------------------------------------------------------------
      1          6           0       -1.039241    3.851514    0.065799
      2          6           0       -1.676098    2.758586    0.481820
      3          6           0       -1.882360    1.542120   -0.380233
      4          7           0       -1.065961    0.404977    0.080170
      5          6           0       -1.727371   -0.592358    0.889001
      6          6           0       -2.516740   -1.658348    0.128156
      7          8           0       -3.278676   -2.429834    0.662857
      8          8           0       -2.245966   -1.661481   -1.193581
      9          6           0        0.176344    0.254368   -0.500904
     10          8           0        0.591098    1.057253   -1.324336
     11          6           0        1.022219   -0.952253   -0.042885
     12          6           0        1.635107   -0.729959    1.354271
     13          8           0        2.666301    0.235501    1.311544
     14          6           0        3.699738   -0.185933    0.423165
     15          6           0        3.143977   -0.351656   -0.980825
     16          8           0        2.036398   -1.264610   -0.979028
     17          1           0       -0.634114    3.916919   -0.940673
     18          1           0       -0.888424    4.709562    0.715119
     19          1           0       -2.051426    2.700051    1.504015
     20          1           0       -2.930782    1.221343   -0.368802
     21          1           0       -1.602392    1.755438   -1.412379
     22          1           0       -1.025611   -1.124951    1.534496
     23          1           0       -2.431874   -0.104749    1.569314
     24          1           0       -2.772629   -2.385881   -1.581632
     25          1           0        0.389515   -1.845377   -0.018672
     26          1           0        2.029585   -1.694516    1.715566
     27          1           0        0.897363   -0.358273    2.070795
     28          1           0        4.472731    0.587503    0.452443
     29          1           0        4.129320   -1.135980    0.782279
     30          1           0        3.888976   -0.799907   -1.645298
     31          1           0        2.824799    0.612847   -1.381602
 ---------------------------------------------------------------------

 SCF Done:  E(UB3LYP) =  -821.218051765     A.U. after   33 cycles
 SCF Done:  E(UB3LYP) =  -821.218051765     a.u. after    1 cycles

 The electronic state is 2-A.
 Alpha  occ. eigenvalues --  -19.07671 -19.04362 -19.03905 -19.02250 -18.99764
 Alpha  occ. eigenvalues --  -14.25514 -10.21541 -10.18011 -10.14217 -10.13383
 Alpha  occ. eigenvalues --  -10.13366 -10.13313 -10.12358 -10.11434 -10.08672
 Alpha  occ. eigenvalues --  -10.07809  -1.01830  -0.97714  -0.95104  -0.93174
 Alpha  occ. eigenvalues --   -0.92990  -0.85206  -0.71048  -0.69695  -0.65638
 Alpha  occ. eigenvalues --   -0.62801  -0.59702  -0.58266  -0.53568  -0.51057
 Alpha  occ. eigenvalues --   -0.47691  -0.46728  -0.42831  -0.42200  -0.41323
 Alpha  occ. eigenvalues --   -0.40595  -0.39746  -0.39341  -0.37772  -0.37566
 Alpha  occ. eigenvalues --   -0.37026  -0.36391  -0.34621  -0.33991  -0.32176
 Alpha  occ. eigenvalues --   -0.31043  -0.30922  -0.29582  -0.28954  -0.28550
 Alpha  occ. eigenvalues --   -0.28164  -0.27734  -0.26157  -0.23237  -0.22287
 Alpha  occ. eigenvalues --   -0.20552  -0.20425  -0.18553  -0.17434  -0.15570
 Alpha  occ. eigenvalues --   -0.14576   0.04171
 Alpha virt. eigenvalues --    0.06339   0.06749   0.07242   0.08104   0.08278
 Alpha virt. eigenvalues --    0.08789   0.09210   0.09450   0.09661   0.10365
 Alpha virt. eigenvalues --    0.11021   0.11495   0.11740   0.12336   0.12495

  Beta  occ. eigenvalues --  -19.07599 -19.04358 -19.03904 -19.02230 -18.99762
  Beta  occ. eigenvalues --  -14.25513 -10.21539 -10.18010 -10.14202 -10.13335
  Beta  occ. eigenvalues --  -10.13327 -10.13304 -10.12354 -10.11417 -10.08651
  Beta  occ. eigenvalues --  -10.07803  -1.01731  -0.97704  -0.95098  -0.93165
  Beta  occ. eigenvalues --   -0.92918  -0.85191  -0.71015  -0.69659  -0.65556
  Beta  occ. eigenvalues --   -0.62780  -0.59665  -0.58235  -0.53456  -0.51014
  Beta  occ. eigenvalues --   -0.47648  -0.46657  -0.42785  -0.42170  -0.41292
  Beta  occ. eigenvalues --   -0.40559  -0.39718  -0.39304  -0.37723  -0.37516
  Beta  occ. eigenvalues --   -0.36990  -0.36343  -0.34598  -0.33973  -0.32141
  Beta  occ. eigenvalues --   -0.30985  -0.30858  -0.29557  -0.28927  -0.28526
  Beta  occ. eigenvalues --   -0.28148  -0.27711  -0.26127  -0.23189  -0.22267
  Beta  occ. eigenvalues --   -0.20514  -0.20389  -0.18522  -0.17411  -0.15539
  Beta  occ. eigenvalues --   -0.14557
  Beta virt. eigenvalues --    0.06366   0.06998   0.07630   0.07998   0.08261
  Beta virt. eigenvalues --    0.08574   0.09149   0.09367   0.09770   0.09942
  Beta virt. eigenvalues --    0.10504   0.11324   0.11878   0.12154   0.12591

 Mulliken charges and spin densities:
               1          2
     1  C    0.244555  -0.759121
     2  C   -0.035093   0.375669
     3  C    0.161335  -0.624782
     4  N    0.503689  -0.143261
     5  C   -0.285769  -0.140646
     6  C    1.256413  -1.281189
     7  O   -0.297730   0.077286
     8  O   -0.239492   0.080919
     9  C    0.168874  -0.492352
    10  O   -0.275574  -0.008439
    11  C   -1.385798   1.001756
    12  C    1.549679  -1.755849
    13  O   -0.088466   0.029155
    14  C    0.084834  -0.281737
    15  C   -0.128446  -0.069142
    16  O   -0.040689  -0.015012
    17  H    0.112838   0.015564
    18  H    0.014256   0.102733
    19  H   -0.441618   0.604656
    20  H   -0.178769   0.366953
    21  H    0.059771   0.134432
    22  H   -0.305270   0.524216
    23  H   -0.556036   0.795752
    24  H   -0.378480   0.717674
    25  H   -0.456655   0.719229
    26  H   -0.262652   0.411180
    27  H   -0.079224   0.295951
    28  H    0.054449   0.086477
    29  H    0.017629   0.120283
    30  H   -0.004471   0.129978
    31  H    0.211909  -0.018333
 Sum of Mulliken charges =  -1.00000   1.00000

 Dipole moment (field-independent basis, Debye):
    X=              5.6897    Y=              3.8170    Z=             -1.2861  Tot=              6.9710
 Quadrupole moment (field-independent basis, Debye-Ang):
   XX=           -148.7528   YY=           -143.4999   ZZ=           -136.3716
   XY=             -8.0821   XZ=             -0.4992   YZ=             -4.0016

 Summary of Natural Population Analysis:

                                       Natural Population
                Natural  -----------------------------------------------
    Atom  No    Charge         Core      Valence    Rydberg      Total
 -----------------------------------------------------------------------
      C    1   -0.18281      0.99956     2.17561    0.00764     3.18281
      C    2   -0.08773      0.99955     2.07833    0.00984     3.08773
      C    3   -0.10284      0.99958     2.09029    0.01297     3.10284
      N    4   -0.25793      0.99964     2.74424    0.01405     3.75793
      C    5   -0.13772      0.99955     2.12513    0.01305     3.13772
      C    6    0.40054      0.99972     1.57489    0.02484     2.59946
      O    7   -0.30114      0.99987     3.29438    0.00689     4.30114
      O    8   -0.33947      0.99987     3.33253    0.00706     4.33947
      C    9    0.34749      0.99963     1.62826    0.02462     2.65251
      O   10   -0.31894      0.99987     3.31382    0.00525     4.31894
      C   11    0.01314      0.99951     1.97122    0.01613     2.98686
      C   12   -0.02165      0.99957     2.00735    0.01474     3.02165
      O   13   -0.29419      0.99989     3.28493    0.00937     4.29419
      C   14   -0.02403      0.99958     2.01377    0.01067     3.02403
      C   15   -0.02917      0.99956     2.01881    0.01080     3.02917
      O   16   -0.29350      0.99989     3.28408    0.00953     4.29350
      H   17    0.09457      0.00000     0.40441    0.00102     0.40543
      H   18    0.09202      0.00000     0.40720    0.00078     0.40798
      H   19    0.09444      0.00000     0.40398    0.00159     0.40556
      H   20    0.10137      0.00000     0.39704    0.00159     0.39863
      H   21    0.11203      0.00000     0.38628    0.00169     0.38797
      H   22    0.11900      0.00000     0.37859    0.00242     0.38100
      H   23    0.11997      0.00000     0.37758    0.00244     0.38003
      H   24    0.24934      0.00000     0.22980    0.02086     0.25066
      H   25    0.10670      0.00000     0.39061    0.00269     0.39330
      H   26    0.08369      0.00000     0.41433    0.00199     0.41631
      H   27    0.09798      0.00000     0.40005    0.00196     0.40202
      H   28    0.09137      0.00000     0.40748    0.00116     0.40863
      H   29    0.07835      0.00000     0.41995    0.00171     0.42165
      H   30    0.08880      0.00000     0.41000    0.00120     0.41120
      H   31    0.10034      0.00000     0.39818    0.00148     0.39966
 =======================================================================
   * Total *    0.00000     15.99486    44.76313    0.24201    61.00000

 Normal termination of Gaussian 16 at Fri Dec 11 00:12:40 2020.
