 Gaussian 16, Revision A.03,

 -----------------------------------------------------------
 # opt freq B3LYP/6-31G(d) empiricaldispersion=gd3bj scf=xqc
 -----------------------------------------------------------

 ------------------------------
 CID_77074005_JID_5797_neutraal
 ------------------------------
 Symbolic Z-matrix:
 Charge =  0 Multiplicity = 1

 SCF Done:  E(RB3LYP) =  -673.894386941     A.U. after   15 cycles
 SCF Done:  E(RB3LYP) =  -673.897320626     A.U. after   14 cycles
 SCF Done:  E(RB3LYP) =  -673.895543186     A.U. after   13 cycles
 SCF Done:  E(RB3LYP) =  -673.898254437     A.U. after   13 cycles
 SCF Done:  E(RB3LYP) =  -673.898858331     A.U. after   14 cycles
 SCF Done:  E(RB3LYP) =  -673.899911387     A.U. after   13 cycles
 SCF Done:  E(RB3LYP) =  -673.900239999     A.U. after   11 cycles
 SCF Done:  E(RB3LYP) =  -673.900458897     A.U. after   12 cycles
 SCF Done:  E(RB3LYP) =  -673.900491806     A.U. after   10 cycles
 SCF Done:  E(RB3LYP) =  -673.900512391     A.U. after   10 cycles
 SCF Done:  E(RB3LYP) =  -673.900521665     A.U. after   10 cycles
 SCF Done:  E(RB3LYP) =  -673.900522461     A.U. after    9 cycles
 SCF Done:  E(RB3LYP) =  -673.900522703     A.U. after    7 cycles
 SCF Done:  E(RB3LYP) =  -673.900522763     A.U. after    7 cycles
 SCF Done:  E(RB3LYP) =  -673.900522784     A.U. after    6 cycles
 Optimization completed.
    -- Stationary point found.
 Normal termination of Gaussian 16 at Thu Dec 10 17:19:06 2020.

 --------------------------------------------------------------------
 #N Geom=AllCheck Guess=TCheck SCRF=Check GenChk RB3LYP/6-31G(d) Freq
 --------------------------------------------------------------------

 Structure from the checkpoint file:  "JID_5797.chk"
 ------------------------------
 CID_77074005_JID_5797_neutraal
 ------------------------------
 Charge =  0 Multiplicity = 1

 SCF Done:  E(RB3LYP) =  -673.900522783     A.U. after    1 cycles

  Exact polarizability: 175.759   0.243 134.188  -9.898   1.748 102.776
 Approx polarizability: 246.261 -12.892 189.632 -23.133   9.689 159.855

                      1                      2                      3
                      A                      A                      A
 Frequencies --     29.8357                45.8880                50.5294
 Red. masses --      4.0751                 3.4485                 4.9425
 Frc consts  --      0.0021                 0.0043                 0.0074
 IR Inten    --      0.0624                 0.0471                 1.5137

                      4                      5                      6
                      A                      A                      A
 Frequencies --     57.3015                90.1893               102.6643
 Red. masses --      3.6807                 3.2710                 2.4787
 Frc consts  --      0.0071                 0.0157                 0.0154
 IR Inten    --      1.8649                 0.0885                 0.1617

                      7                      8                      9
                      A                      A                      A
 Frequencies --    110.4356               119.0907               136.1737
 Red. masses --      2.6250                 3.5078                 1.3585
 Frc consts  --      0.0189                 0.0293                 0.0148
 IR Inten    --      0.2121                 2.0246                 1.9746

                     10                     11                     12
                      A                      A                      A
 Frequencies --    154.4696               169.6365               194.7019
 Red. masses --      1.9524                 1.0983                 3.7606
 Frc consts  --      0.0274                 0.0186                 0.0840
 IR Inten    --      1.0637                 0.2320                 3.4666

                     13                     14                     15
                      A                      A                      A
 Frequencies --    216.8261               232.5051               287.9448
 Red. masses --      2.4012                 3.2730                 2.2241
 Frc consts  --      0.0665                 0.1042                 0.1087
 IR Inten    --      1.6288                 2.9680                 0.7519

                     16                     17                     18
                      A                      A                      A
 Frequencies --    304.9249               332.6408               348.6262
 Red. masses --      2.8519                 2.7108                 3.6641
 Frc consts  --      0.1562                 0.1767                 0.2624
 IR Inten    --      0.5378                 3.1391                10.7896

                     19                     20                     21
                      A                      A                      A
 Frequencies --    367.3732               389.8177               426.5243
 Red. masses --      3.4035                 2.7118                 2.7748
 Frc consts  --      0.2706                 0.2428                 0.2974
 IR Inten    --      4.1063                 2.5231                 6.1222

                     22                     23                     24
                      A                      A                      A
 Frequencies --    437.6093               476.6527               507.2081
 Red. masses --      2.5029                 1.7719                 2.1193
 Frc consts  --      0.2824                 0.2372                 0.3212
 IR Inten    --      3.0699                 0.3536                 8.3988

                     25                     26                     27
                      A                      A                      A
 Frequencies --    580.1919               620.9110               667.9643
 Red. masses --      3.6974                 2.7168                 1.7618
 Frc consts  --      0.7333                 0.6171                 0.4632
 IR Inten    --      0.1076                 5.1380                 8.5275

                     28                     29                     30
                      A                      A                      A
 Frequencies --    684.3682               767.6128               845.5593
 Red. masses --      2.4241                 4.5941                 4.0439
 Frc consts  --      0.6689                 1.5949                 1.7035
 IR Inten    --      6.6677                23.4020                10.1646

                     31                     32                     33
                      A                      A                      A
 Frequencies --    850.9738               895.7611               923.0168
 Red. masses --      2.3833                 1.6670                 1.7084
 Frc consts  --      1.0169                 0.7881                 0.8576
 IR Inten    --      8.4016                 5.9912                 2.7788

                     34                     35                     36
                      A                      A                      A
 Frequencies --    927.6998               942.5431               947.9773
 Red. masses --      1.6187                 1.4222                 1.8262
 Frc consts  --      0.8208                 0.7444                 0.9669
 IR Inten    --      7.0452                34.7625                35.9882

                     37                     38                     39
                      A                      A                      A
 Frequencies --    960.2088               968.7138               980.3814
 Red. masses --      1.4658                 2.0721                 2.2577
 Frc consts  --      0.7963                 1.1456                 1.2785
 IR Inten    --     21.6796                17.4991                10.3681

                     40                     41                     42
                      A                      A                      A
 Frequencies --   1020.6940              1038.2952              1050.7500
 Red. masses --      3.4414                 1.1694                 1.1861
 Frc consts  --      2.1124                 0.7428                 0.7715
 IR Inten    --     32.0115                19.2986                13.2050

                     43                     44                     45
                      A                      A                      A
 Frequencies --   1051.7552              1086.1865              1096.8450
 Red. masses --      1.5541                 1.4965                 2.5729
 Frc consts  --      1.0129                 1.0402                 1.8237
 IR Inten    --     16.3633                 3.8599                25.2612

                     46                     47                     48
                      A                      A                      A
 Frequencies --   1117.0167              1124.0025              1171.7475
 Red. masses --      2.3214                 2.6085                 2.4731
 Frc consts  --      1.7065                 1.9417                 2.0006
 IR Inten    --     13.8301                26.4583                93.3592

                     49                     50                     51
                      A                      A                      A
 Frequencies --   1183.9581              1192.8152              1210.7815
 Red. masses --      1.2971                 2.4531                 2.3137
 Frc consts  --      1.0712                 2.0564                 1.9984
 IR Inten    --      0.9477                18.2528                21.1175

                     52                     53                     54
                      A                      A                      A
 Frequencies --   1223.6946              1259.5820              1289.1915
 Red. masses --      1.6165                 1.7002                 1.3901
 Frc consts  --      1.4262                 1.5893                 1.3612
 IR Inten    --     20.8649               109.5296                37.5070

                     55                     56                     57
                      A                      A                      A
 Frequencies --   1330.3752              1331.4189              1357.4459
 Red. masses --      1.2564                 1.2729                 1.4718
 Frc consts  --      1.3102                 1.3295                 1.5979
 IR Inten    --      0.6495                 2.0745                43.2870

                     58                     59                     60
                      A                      A                      A
 Frequencies --   1379.9507              1383.5848              1391.3893
 Red. masses --      1.3474                 1.2738                 1.2849
 Frc consts  --      1.5117                 1.4367                 1.4657
 IR Inten    --      5.8465                37.8769                29.5364

                     61                     62                     63
                      A                      A                      A
 Frequencies --   1399.8179              1422.2493              1440.9557
 Red. masses --      1.6263                 1.4309                 1.2474
 Frc consts  --      1.8775                 1.7054                 1.5260
 IR Inten    --     33.6296                 8.2233                 2.9664

                     64                     65                     66
                      A                      A                      A
 Frequencies --   1474.8371              1477.1725              1490.4857
 Red. masses --      1.1679                 1.1860                 1.2336
 Frc consts  --      1.4968                 1.5248                 1.6146
 IR Inten    --      6.3413                 3.5778                15.8218

                     67                     68                     69
                      A                      A                      A
 Frequencies --   1493.8322              1503.5623              1504.0001
 Red. masses --      1.1068                 1.0978                 1.0476
 Frc consts  --      1.4552                 1.4622                 1.3962
 IR Inten    --     12.1305                 8.1671                 9.5411

                     70                     71                     72
                      A                      A                      A
 Frequencies --   1512.2521              1522.6136              1524.2478
 Red. masses --      1.0500                 1.0490                 1.0622
 Frc consts  --      1.4148                 1.4328                 1.4540
 IR Inten    --      3.9377                 7.5357                10.4630

                     73                     74                     75
                      A                      A                      A
 Frequencies --   1524.7241              1723.9781              1726.6290
 Red. masses --      1.0777                 4.3175                 4.4888
 Frc consts  --      1.4762                 7.5604                 7.8847
 IR Inten    --      1.6192                 2.2798                 2.7151

                     76                     77                     78
                      A                      A                      A
 Frequencies --   1728.9398              1789.3204              3016.7144
 Red. masses --      6.9498                11.2224                 1.0633
 Frc consts  --     12.2399                21.1695                 5.7015
 IR Inten    --      6.6873               220.7325                35.4728

                     79                     80                     81
                      A                      A                      A
 Frequencies --   3031.8139              3041.1904              3052.2704
 Red. masses --      1.0668                 1.0606                 1.0386
 Frc consts  --      5.7777                 5.7793                 5.7008
 IR Inten    --     45.1953                27.4252                26.4347

                     82                     83                     84
                      A                      A                      A
 Frequencies --   3069.5216              3077.7230              3083.6029
 Red. masses --      1.0993                 1.0290                 1.1041
 Frc consts  --      6.1024                 5.7430                 6.1855
 IR Inten    --     25.4216                29.4834                28.5743

                     85                     86                     87
                      A                      A                      A
 Frequencies --   3103.8801              3110.5013              3141.8925
 Red. masses --      1.0916                 1.0968                 1.1025
 Frc consts  --      6.1959                 6.2524                 6.4121
 IR Inten    --      5.7317                13.2913                 5.9912

                     88                     89                     90
                      A                      A                      A
 Frequencies --   3147.7999              3151.6597              3154.5029
 Red. masses --      1.0645                 1.0882                 1.1035
 Frc consts  --      6.2143                 6.3687                 6.4697
 IR Inten    --     23.8144                27.1228                21.8231

                     91                     92                     93
                      A                      A                      A
 Frequencies --   3156.2870              3157.0293              3182.0018
 Red. masses --      1.0623                 1.0860                 1.1075
 Frc consts  --      6.2354                 6.3773                 6.6066
 IR Inten    --      7.0359                 5.5699                14.9682

                     94                     95                     96
                      A                      A                      A
 Frequencies --   3184.8578              3231.3772              3234.9307
 Red. masses --      1.0919                 1.1154                 1.1151
 Frc consts  --      6.5254                 6.8620                 6.8755
 IR Inten    --      7.9079                17.6469                18.1114

 - Thermochemistry -
 -------------------
 Temperature   298.150 Kelvin.  Pressure   1.00000 Atm.
 Atom     1 has atomic number  6 and mass  12.00000

 Molecular mass:   209.14158 amu.
 Principal axes and moments of inertia in atomic units:
                           1         2         3
     Eigenvalues --  1986.177644961.289585510.21763
           X            0.99994   0.01080  -0.00144
           Y           -0.01083   0.99972  -0.02117
           Z            0.00121   0.02118   0.99977
 This molecule is an asymmetric top.
 Rotational symmetry number  1.
 Warning -- assumption of classical behavior for rotation
           may cause significant error
 Rotational temperatures (Kelvin)      0.04361     0.01746     0.01572
 Rotational constants (GHZ):           0.90865     0.36376     0.32753
 Zero-point vibrational energy     771795.4 (Joules/Mol)
                                  184.46352 (Kcal/Mol)
 Warning -- explicit consideration of  25 degrees of freedom as
           vibrations may cause significant error
 Vibrational temperatures:     42.93    66.02    72.70    82.44   129.76
          (Kelvin)            147.71   158.89   171.34   195.92   222.25
                              244.07   280.13   311.96   334.52   414.29
                              438.72   478.60   501.60   528.57   560.86
                              613.67   629.62   685.80   729.76   834.77
                              893.35   961.05   984.65  1104.42  1216.57
                             1224.36  1288.80  1328.02  1334.75  1356.11
                             1363.93  1381.53  1393.76  1410.55  1468.55
                             1493.88  1511.79  1513.24  1562.78  1578.12
                             1607.14  1617.19  1685.88  1703.45  1716.19
                             1742.04  1760.62  1812.26  1854.86  1914.11
                             1915.61  1953.06  1985.44  1990.67  2001.90
                             2014.03  2046.30  2073.21  2121.96  2125.32
                             2144.48  2149.29  2163.29  2163.92  2175.79
                             2190.70  2193.05  2193.74  2480.42  2484.23
                             2487.56  2574.43  4340.38  4362.10  4375.59
                             4391.54  4416.36  4428.16  4436.62  4465.79
                             4475.32  4520.48  4528.98  4534.54  4538.63
                             4541.19  4542.26  4578.19  4582.30  4649.23
                             4654.34

 Zero-point correction=                           0.293961 (Hartree/Particle)
 Thermal correction to Energy=                    0.311484
 Thermal correction to Enthalpy=                  0.312428
 Thermal correction to Gibbs Free Energy=         0.247565
 Sum of electronic and zero-point Energies=           -673.606561
 Sum of electronic and thermal Energies=              -673.589039
 Sum of electronic and thermal Enthalpies=            -673.588095
 Sum of electronic and thermal Free Energies=         -673.652958

                     E (Thermal)             CV                S
                      KCal/Mol        Cal/Mol-Kelvin    Cal/Mol-Kelvin
 Total                  195.459             62.635            136.516
 Electronic               0.000              0.000              0.000
 Translational            0.889              2.981             41.917
 Rotational               0.889              2.981             32.362
 Vibrational            193.682             56.673             62.236
 Vibration     1          0.594              1.984              5.840
 Vibration     2          0.595              1.979              4.987
 Vibration     3          0.595              1.977              4.797
 Vibration     4          0.596              1.975              4.548
 Vibration     5          0.602              1.956              3.656
 Vibration     6          0.605              1.947              3.403
 Vibration     7          0.606              1.941              3.261
 Vibration     8          0.609              1.933              3.115
 Vibration     9          0.614              1.917              2.857
 Vibration    10          0.620              1.898              2.616
 Vibration    11          0.625              1.880              2.440
 Vibration    12          0.635              1.847              2.183
 Vibration    13          0.646              1.815              1.985
 Vibration    14          0.653              1.791              1.860
 Vibration    15          0.685              1.696              1.486
 Vibration    16          0.696              1.664              1.390
 Vibration    17          0.715              1.610              1.247
 Vibration    18          0.726              1.578              1.172
 Vibration    19          0.740              1.539              1.091
 Vibration    20          0.758              1.492              1.001
 Vibration    21          0.788              1.413              0.870
 Vibration    22          0.798              1.388              0.834
 Vibration    23          0.833              1.302              0.719
 Vibration    24          0.862              1.234              0.640
 Vibration    25          0.937              1.074              0.485

 Optimization completed.
    -- Stationary point found.
 Normal termination of Gaussian 16 at Thu Dec 10 17:31:46 2020.

 ----------------------------------------------------------------------
 # B3LYP/6-311++G(d,p) empiricaldispersion=gd3bj scf=xqc pop=npa geom=c
 heck
 ----------------------------------------------------------------------

 --------------------------------------
 CID_77074005_JID_5797_Energie_neutraal
 --------------------------------------
 Structure from the checkpoint file:  "JID_5797.chk"
 Charge =  0 Multiplicity = 1

 SCF Done:  E(RB3LYP) =  -674.094836307     A.U. after   15 cycles
 Normal termination of Gaussian 16 at Thu Dec 10 17:37:41 2020.

 ----------------------------------------------------------------------
 # B3LYP/6-311++G(d,p) empiricaldispersion=gd3bj scf=xqc pop=npa geom=c
 heck
 ----------------------------------------------------------------------

 ------------------------------------
 CID_77074005_JID_5797_Energie_kation
 ------------------------------------
 Structure from the checkpoint file:  "JID_5797.chk"
 Charge =  1 Multiplicity = 2

 SCF Done:  E(UB3LYP) =  -673.808133434     A.U. after   23 cycles
 Normal termination of Gaussian 16 at Thu Dec 10 17:49:30 2020.
 Gaussian 16:  ES64L-G16RevA.03 25-Dec-2016

 ----------------------------------------------------------------------
 # B3LYP/6-311++G(d,p) empiricaldispersion=gd3bj scf=xqc pop=npa geom=c
 heck
 ----------------------------------------------------------------------

 -----------------------------------
 CID_77074005_JID_5797_Energie_anion
 -----------------------------------
 Structure from the checkpoint file:  "JID_5797.chk"
 Charge = -1 Multiplicity = 2

                         Standard orientation:
 ---------------------------------------------------------------------
 Center     Atomic      Atomic             Coordinates (Angstroms)
 Number     Number       Type             X           Y           Z
 ---------------------------------------------------------------------
      1          6           0       -3.073504   -2.065760    0.184907
      2          6           0       -1.979064   -1.126406   -0.258840
      3          6           0       -0.751297   -1.567351   -0.579395
      4          6           0        0.491971   -0.800350   -0.939425
      5          7           0        1.582657   -1.202942   -0.047114
      6          6           0        2.921725   -0.971978   -0.586932
      7          6           0        3.346072    0.464009   -0.797066
      8          6           0        4.460773    0.998281   -0.297712
      9          6           0        1.381176   -0.782310    1.347271
     10          6           0        1.156445    0.695537    1.577936
     11          6           0        0.012199    1.209296    2.031961
     12          6           0       -2.367571    0.311740   -0.183155
     13          8           0       -3.181494    0.738683    0.614355
     14          8           0       -1.754187    1.100257   -1.094216
     15          6           0       -2.045693    2.501216   -0.974846
     16          1           0       -2.725125   -3.102094    0.180468
     17          1           0       -3.950514   -1.991314   -0.469871
     18          1           0       -3.412869   -1.805330    1.192634
     19          1           0       -0.579929   -2.642062   -0.512405
     20          1           0        0.786502   -1.083489   -1.959862
     21          1           0        0.306129    0.277451   -0.941988
     22          1           0        3.643501   -1.465694    0.076025
     23          1           0        2.966404   -1.498862   -1.551355
     24          1           0        2.684448    1.076830   -1.409929
     25          1           0        4.742237    2.031049   -0.485564
     26          1           0        5.141918    0.414338    0.318997
     27          1           0        0.518926   -1.333258    1.741329
     28          1           0        2.261987   -1.117963    1.909599
     29          1           0        1.987725    1.354601    1.336900
     30          1           0       -0.114604    2.277530    2.190364
     31          1           0       -0.845520    0.584080    2.269218
     32          1           0       -3.120368    2.678274   -1.060128
     33          1           0       -1.695484    2.878969   -0.010762
     34          1           0       -1.507900    2.980480   -1.793205
 ---------------------------------------------------------------------

 SCF Done:  E(UB3LYP) =  -674.084355591     A.U. after   33 cycles
 SCF Done:  E(UB3LYP) =  -674.084355591     a.u. after    1 cycles

 The electronic state is 2-A.
 Alpha  occ. eigenvalues --  -19.03455 -18.96541 -14.19304 -10.14991 -10.10313
 Alpha  occ. eigenvalues --  -10.09546 -10.08482 -10.07291 -10.07013 -10.06163
 Alpha  occ. eigenvalues --  -10.05618 -10.05147 -10.04978 -10.04953 -10.03780
 Alpha  occ. eigenvalues --   -0.97304  -0.88129  -0.81469  -0.69066  -0.68032
 Alpha  occ. eigenvalues --   -0.66347  -0.61181  -0.60587  -0.58556  -0.54585
 Alpha  occ. eigenvalues --   -0.50146  -0.47852  -0.45401  -0.44184  -0.42351
 Alpha  occ. eigenvalues --   -0.38616  -0.37838  -0.36944  -0.35652  -0.35038
 Alpha  occ. eigenvalues --   -0.33574  -0.33371  -0.32955  -0.31220  -0.30928
 Alpha  occ. eigenvalues --   -0.30439  -0.29564  -0.27157  -0.26785  -0.26041
 Alpha  occ. eigenvalues --   -0.25934  -0.25688  -0.25439  -0.23824  -0.23176
 Alpha  occ. eigenvalues --   -0.22139  -0.18081  -0.16744  -0.15355  -0.14714
 Alpha  occ. eigenvalues --   -0.13420  -0.10326   0.05111
 Alpha virt. eigenvalues --    0.06942   0.07708   0.08064   0.08645   0.09043
 Alpha virt. eigenvalues --    0.09393   0.09846   0.10606   0.11116   0.11450
 Alpha virt. eigenvalues --    0.11681   0.11886   0.12177   0.13124   0.13379

  Beta  occ. eigenvalues --  -19.03400 -18.96328 -14.19252 -10.14799 -10.10286
  Beta  occ. eigenvalues --  -10.09542 -10.08478 -10.07306 -10.06990 -10.06113
  Beta  occ. eigenvalues --  -10.05598 -10.05149 -10.04957 -10.04884 -10.03503
  Beta  occ. eigenvalues --   -0.97081  -0.87805  -0.81385  -0.68808  -0.67897
  Beta  occ. eigenvalues --   -0.66266  -0.61000  -0.60479  -0.58510  -0.54433
  Beta  occ. eigenvalues --   -0.49965  -0.47493  -0.45308  -0.44110  -0.42199
  Beta  occ. eigenvalues --   -0.38557  -0.37740  -0.36732  -0.35400  -0.34891
  Beta  occ. eigenvalues --   -0.33507  -0.33291  -0.32800  -0.31116  -0.30851
  Beta  occ. eigenvalues --   -0.30243  -0.29471  -0.26959  -0.26700  -0.25905
  Beta  occ. eigenvalues --   -0.25628  -0.25563  -0.25328  -0.23766  -0.23068
  Beta  occ. eigenvalues --   -0.21963  -0.17451  -0.16574  -0.15204  -0.14446
  Beta  occ. eigenvalues --   -0.12294  -0.10254
  Beta virt. eigenvalues --    0.07335   0.08037   0.08243   0.08711   0.09228
  Beta virt. eigenvalues --    0.09432   0.09716   0.10096   0.10939   0.11113
  Beta virt. eigenvalues --    0.11640   0.11830   0.12019   0.12281   0.13264

 Mulliken charges and spin densities:
               1          2
     1  C   -0.659448  -0.002708
     2  C    1.168641  -0.073146
     3  C   -0.139237   0.176101
     4  C   -0.504815  -0.208467
     5  N    0.309393  -0.012151
     6  C   -0.116886  -0.377706
     7  C   -0.625219   1.037727
     8  C    0.811018  -1.417390
     9  C   -0.491726  -0.099896
    10  C    0.460920  -0.066293
    11  C   -0.618695  -0.072896
    12  C   -1.442426   0.621193
    13  O   -0.253725   0.064559
    14  O    0.021258   0.016492
    15  C    0.246371  -0.472244
    16  H    0.112989   0.009721
    17  H    0.108911   0.025151
    18  H    0.165836  -0.000962
    19  H    0.140709  -0.030266
    20  H    0.047360   0.093580
    21  H    0.491759  -0.400260
    22  H    0.080330   0.048408
    23  H    0.169127  -0.019535
    24  H   -0.077340   0.264216
    25  H   -0.496659   0.626591
    26  H    0.012417   0.087239
    27  H    0.186264  -0.002817
    28  H    0.124174   0.019480
    29  H   -0.047701   0.268133
    30  H   -0.024909   0.138391
    31  H    0.148310  -0.008982
    32  H   -0.023819   0.169016
    33  H    0.051336   0.130354
    34  H   -0.334520   0.469371
 Sum of Mulliken charges =  -1.00000   1.00000

 Dipole moment (field-independent basis, Debye):
    X=             -0.4076    Y=             -5.1113    Z=              0.1008  Tot=              5.1285
 Quadrupole moment (field-independent basis, Debye-Ang):
   XX=           -154.3030   YY=           -129.2820   ZZ=           -115.5226
   XY=            -10.0316   XZ=              1.6502   YZ=              0.6105

 Summary of Natural Population Analysis:

                                       Natural Population
                Natural  -----------------------------------------------
    Atom  No    Charge         Core      Valence    Rydberg      Total
 -----------------------------------------------------------------------
      C    1   -0.28602      0.99964     2.28188    0.00449     3.28602
      C    2   -0.06268      0.99943     2.05261    0.01065     3.06268
      C    3   -0.01902      0.99949     2.00920    0.01033     3.01902
      C    4   -0.11079      0.99959     2.09947    0.01174     3.11079
      N    5   -0.27135      0.99973     2.75914    0.01247     3.77135
      C    6   -0.09716      0.99959     2.08542    0.01215     3.09716
      C    7   -0.09354      0.99956     2.08401    0.00997     3.09354
      C    8   -0.19028      0.99956     2.18237    0.00835     3.19028
      C    9   -0.10311      0.99959     2.09112    0.01240     3.10311
      C   10   -0.10069      0.99956     2.09120    0.00993     3.10069
      C   11   -0.18659      0.99956     2.17857    0.00846     3.18659
      C   12    0.41749      0.99961     1.55693    0.02597     2.58251
      O   13   -0.30418      0.99987     3.29946    0.00485     4.30418
      O   14   -0.27834      0.99986     3.26971    0.00876     4.27834
      C   15   -0.10588      0.99960     2.09671    0.00957     3.10588
      H   16    0.09374      0.00000     0.40548    0.00078     0.40626
      H   17    0.09692      0.00000     0.40179    0.00129     0.40308
      H   18    0.10638      0.00000     0.39269    0.00093     0.39362
      H   19    0.08459      0.00000     0.41396    0.00145     0.41541
      H   20    0.09705      0.00000     0.40179    0.00117     0.40295
      H   21    0.10148      0.00000     0.39612    0.00239     0.39852
      H   22    0.09141      0.00000     0.40747    0.00112     0.40859
      H   23    0.09552      0.00000     0.40330    0.00118     0.40448
      H   24    0.09553      0.00000     0.40312    0.00136     0.40447
      H   25    0.09596      0.00000     0.40254    0.00150     0.40404
      H   26    0.08590      0.00000     0.41291    0.00118     0.41410
      H   27    0.09915      0.00000     0.39961    0.00125     0.40085
      H   28    0.09433      0.00000     0.40471    0.00096     0.40567
      H   29    0.09829      0.00000     0.40016    0.00155     0.40171
      H   30    0.09208      0.00000     0.40692    0.00100     0.40792
      H   31    0.09574      0.00000     0.40310    0.00117     0.40426
      H   32    0.08777      0.00000     0.41127    0.00096     0.41223
      H   33    0.09191      0.00000     0.40688    0.00122     0.40809
      H   34    0.08842      0.00000     0.41038    0.00120     0.41158
 =======================================================================
   * Total *   -0.00000     14.99425    41.82198    0.18377    57.00000

 Normal termination of Gaussian 16 at Thu Dec 10 18:08:29 2020.
