 Gaussian 16, Revision A.03,

 -----------------------------------------------------------
 # opt freq B3LYP/6-31G(d) empiricaldispersion=gd3bj scf=xqc
 -----------------------------------------------------------

 -------------------------------
 CID_44580519_JID_10333_neutraal
 -------------------------------
 Symbolic Z-matrix:
 Charge =  0 Multiplicity = 1

 SCF Done:  E(RB3LYP) =  -1180.05224845     A.U. after   15 cycles
 SCF Done:  E(RB3LYP) =  -1180.05968938     A.U. after   13 cycles
 SCF Done:  E(RB3LYP) =  -1180.06001283     A.U. after   13 cycles
 SCF Done:  E(RB3LYP) =  -1180.06104219     A.U. after   12 cycles
 SCF Done:  E(RB3LYP) =  -1180.06127446     A.U. after   12 cycles
 SCF Done:  E(RB3LYP) =  -1180.06137301     A.U. after   12 cycles
 SCF Done:  E(RB3LYP) =  -1180.06147202     A.U. after   10 cycles
 SCF Done:  E(RB3LYP) =  -1180.06149434     A.U. after   11 cycles
 SCF Done:  E(RB3LYP) =  -1180.06150160     A.U. after   10 cycles
 SCF Done:  E(RB3LYP) =  -1180.06150494     A.U. after    9 cycles
 SCF Done:  E(RB3LYP) =  -1180.06150789     A.U. after    9 cycles
 SCF Done:  E(RB3LYP) =  -1180.06150958     A.U. after    9 cycles
 SCF Done:  E(RB3LYP) =  -1180.06151004     A.U. after    8 cycles
 Optimization completed.
    -- Stationary point found.
 Normal termination of Gaussian 16 at Mon Dec 14 17:39:50 2020.

 --------------------------------------------------------------------
 #N Geom=AllCheck Guess=TCheck SCRF=Check GenChk RB3LYP/6-31G(d) Freq
 --------------------------------------------------------------------

 Structure from the checkpoint file:  "JID_10333.chk"
 -------------------------------
 CID_44580519_JID_10333_neutraal
 -------------------------------
 Charge =  0 Multiplicity = 1

 SCF Done:  E(RB3LYP) =  -1180.06151004     A.U. after    1 cycles

  Exact polarizability: 259.947 -14.210 236.727   2.156  -3.791 111.332
 Approx polarizability: 400.126 -22.182 393.615  10.687  -8.135 200.266

                      1                      2                      3
                      A                      A                      A
 Frequencies --     24.2693                45.1336                50.5526
 Red. masses --      5.6336                 6.9371                 4.9535
 Frc consts  --      0.0020                 0.0083                 0.0075
 IR Inten    --      0.1239                 0.5014                 0.9978

                      4                      5                      6
                      A                      A                      A
 Frequencies --     98.6741               109.6854               133.8948
 Red. masses --      5.7496                 4.1571                 6.3232
 Frc consts  --      0.0330                 0.0295                 0.0668
 IR Inten    --      1.3659                 1.2923                 4.6623

                      7                      8                      9
                      A                      A                      A
 Frequencies --    161.5902               190.5325               235.8375
 Red. masses --      5.0706                 4.6176                 5.2083
 Frc consts  --      0.0780                 0.0988                 0.1707
 IR Inten    --      0.3051                 1.0898                 6.7515

                     10                     11                     12
                      A                      A                      A
 Frequencies --    261.9363               299.8351               327.0533
 Red. masses --      3.3293                 7.7589                 4.2807
 Frc consts  --      0.1346                 0.4110                 0.2698
 IR Inten    --      2.3754                 9.6726                 4.1952

                     13                     14                     15
                      A                      A                      A
 Frequencies --    354.8713               386.6957               401.4860
 Red. masses --      4.4189                 1.1340                 3.9807
 Frc consts  --      0.3279                 0.0999                 0.3781
 IR Inten    --      3.7237                80.8014                 2.2376

                     16                     17                     18
                      A                      A                      A
 Frequencies --    445.1861               458.1098               477.7357
 Red. masses --      5.5174                 3.6992                 5.1299
 Frc consts  --      0.6443                 0.4574                 0.6898
 IR Inten    --      1.6927                 2.4186                 4.2363

                     19                     20                     21
                      A                      A                      A
 Frequencies --    550.7420               552.2742               564.5742
 Red. masses --      3.7823                 4.6065                 4.7679
 Frc consts  --      0.6759                 0.8278                 0.8954
 IR Inten    --     14.9393                 5.5137                 1.5768

                     22                     23                     24
                      A                      A                      A
 Frequencies --    573.8582               582.0909               589.0682
 Red. masses --      4.1788                 4.5672                 4.1420
 Frc consts  --      0.8108                 0.9118                 0.8468
 IR Inten    --      1.5402                 0.5445                 0.8483

                     25                     26                     27
                      A                      A                      A
 Frequencies --    645.0398               661.1105               672.4345
 Red. masses --      6.1650                 6.8857                 6.7810
 Frc consts  --      1.5113                 1.7732                 1.8065
 IR Inten    --      2.1733                 2.2713                 2.3050

                     28                     29                     30
                      A                      A                      A
 Frequencies --    695.8050               707.2737               725.2299
 Red. masses --      4.2689                 1.2350                 5.5787
 Frc consts  --      1.2177                 0.3640                 1.7288
 IR Inten    --     12.1981                50.0210                 2.5705

                     31                     32                     33
                      A                      A                      A
 Frequencies --    754.7210               762.1399               768.2471
 Red. masses --      2.0257                 2.5227                 3.9291
 Frc consts  --      0.6798                 0.8633                 1.3663
 IR Inten    --     25.8113                12.8845                 8.4745

                     34                     35                     36
                      A                      A                      A
 Frequencies --    799.7120               808.4154               823.1504
 Red. masses --      1.4548                 3.0874                 1.5255
 Frc consts  --      0.5482                 1.1888                 0.6090
 IR Inten    --     10.5062                 5.0291                60.1165

                     37                     38                     39
                      A                      A                      A
 Frequencies --    838.8562               846.1286               864.8221
 Red. masses --      1.6829                 2.8276                 1.4789
 Frc consts  --      0.6977                 1.1927                 0.6517
 IR Inten    --     41.4155                 5.2924                 1.1456

                     40                     41                     42
                      A                      A                      A
 Frequencies --    868.5547               884.0571               908.0098
 Red. masses --      4.0315                 5.2486                 1.3112
 Frc consts  --      1.7919                 2.4169                 0.6369
 IR Inten    --     11.9156                 0.2670                 0.6275

                     43                     44                     45
                      A                      A                      A
 Frequencies --    934.4944               954.3203               974.1111
 Red. masses --      1.3412                 1.3425                 1.2620
 Frc consts  --      0.6901                 0.7204                 0.7055
 IR Inten    --      1.0837                 0.8221                 2.7041

                     46                     47                     48
                      A                      A                      A
 Frequencies --    996.2605              1015.4353              1056.2289
 Red. masses --      1.9237                 8.0966                 2.0646
 Frc consts  --      1.1250                 4.9188                 1.3571
 IR Inten    --     42.0023                 9.7861                 0.7258

                     49                     50                     51
                      A                      A                      A
 Frequencies --   1070.5672              1082.6568              1115.1045
 Red. masses --      1.5659                 2.5911                 1.2106
 Frc consts  --      1.0574                 1.7895                 0.8869
 IR Inten    --      7.9490                15.6458                 1.6214

                     52                     53                     54
                      A                      A                      A
 Frequencies --   1128.1860              1132.4270              1151.0625
 Red. masses --      3.5914                 1.8373                 1.6826
 Frc consts  --      2.6933                 1.3882                 1.3135
 IR Inten    --     29.4464                18.5160                12.2742

                     55                     56                     57
                      A                      A                      A
 Frequencies --   1191.6489              1201.7412              1239.8027
 Red. masses --      1.1416                 4.6434                 1.6377
 Frc consts  --      0.9551                 3.9510                 1.4831
 IR Inten    --      5.9667                25.3313                30.6206

                     58                     59                     60
                      A                      A                      A
 Frequencies --   1249.2412              1254.2257              1279.4509
 Red. masses --      1.4636                 1.5807                 1.5760
 Frc consts  --      1.3457                 1.4650                 1.5200
 IR Inten    --      2.0083                 7.3289                22.0146

                     61                     62                     63
                      A                      A                      A
 Frequencies --   1292.1499              1316.1352              1342.5840
 Red. masses --      1.6259                 3.7054                 4.1568
 Frc consts  --      1.5994                 3.7817                 4.4147
 IR Inten    --     55.7279                66.4698                83.2661

                     64                     65                     66
                      A                      A                      A
 Frequencies --   1363.1437              1376.9990              1387.5751
 Red. masses --      2.1404                 1.9285                 3.2209
 Frc consts  --      2.3433                 2.1545                 3.6538
 IR Inten    --     10.6410                17.1459                26.0943

                     67                     68                     69
                      A                      A                      A
 Frequencies --   1415.9716              1448.1559              1463.7884
 Red. masses --      1.9204                 3.4154                 1.8570
 Frc consts  --      2.2686                 4.2200                 2.3443
 IR Inten    --     26.7946                21.1926                 1.1055

                     70                     71                     72
                      A                      A                      A
 Frequencies --   1492.7881              1505.9801              1511.3402
 Red. masses --      2.8129                 5.7276                 2.6701
 Frc consts  --      3.6932                 7.6535                 3.5934
 IR Inten    --    111.7511                 2.7361                 7.5993

                     73                     74                     75
                      A                      A                      A
 Frequencies --   1530.6305              1537.2738              1543.8112
 Red. masses --      1.9665                 1.1879                 2.5524
 Frc consts  --      2.7144                 1.6540                 3.5841
 IR Inten    --     93.8939                 6.5036               116.3367

                     76                     77                     78
                      A                      A                      A
 Frequencies --   1610.9327              1630.5798              1635.0824
 Red. masses --      5.5496                 5.7575                 5.8460
 Frc consts  --      8.4853                 9.0192                 9.2085
 IR Inten    --      0.1910               121.2571                 6.4088

                     79                     80                     81
                      A                      A                      A
 Frequencies --   1661.3686              1678.8300              2998.6546
 Red. masses --      5.7961                 6.7588                 1.0740
 Frc consts  --      9.4258                11.2237                 5.6901
 IR Inten    --    145.4643                 7.9661                49.4714

                     82                     83                     84
                      A                      A                      A
 Frequencies --   3103.1730              3176.1980              3186.8773
 Red. masses --      1.0873                 1.0890                 1.0861
 Frc consts  --      6.1688                 6.4725                 6.4991
 IR Inten    --      4.2419                30.6177                 1.4267

                     85                     86                     87
                      A                      A                      A
 Frequencies --   3197.9055              3210.3645              3210.7748
 Red. masses --      1.0904                 1.0893                 1.0951
 Frc consts  --      6.5702                 6.6147                 6.6516
 IR Inten    --     18.5241                 7.5419                30.5788

                     88                     89                     90
                      A                      A                      A
 Frequencies --   3215.1377              3226.3088              3234.2188
 Red. masses --      1.0942                 1.0945                 1.0924
 Frc consts  --      6.6640                 6.7126                 6.7324
 IR Inten    --     20.5722                11.4581                 2.0958

                     91                     92                     93
                      A                      A                      A
 Frequencies --   3269.1443              3526.0162              3665.6924
 Red. masses --      1.0970                 1.0738                 1.0794
 Frc consts  --      6.9076                 7.8658                 8.5460
 IR Inten    --      2.5202                15.6832                55.9759

 - Thermochemistry -
 -------------------
 Temperature   298.150 Kelvin.  Pressure   1.00000 Atm.
 Atom     1 has atomic number  6 and mass  12.00000

 Molecular mass:   279.08302 amu.
 Principal axes and moments of inertia in atomic units:
                           1         2         3
     Eigenvalues --  3617.335718130.98643**********
           X            0.99999   0.00029  -0.00432
           Y           -0.00030   0.99999  -0.00343
           Z            0.00432   0.00343   0.99998
 This molecule is an asymmetric top.
 Rotational symmetry number  1.
 Warning -- assumption of classical behavior for rotation
           may cause significant error
 Rotational temperatures (Kelvin)      0.02394     0.01065     0.00785
 Rotational constants (GHZ):           0.49891     0.22196     0.16366
 Zero-point vibrational energy     681284.9 (Joules/Mol)
                                  162.83101 (Kcal/Mol)
 Warning -- explicit consideration of  24 degrees of freedom as
           vibrations may cause significant error
 Vibrational temperatures:     34.92    64.94    72.73   141.97   157.81
          (Kelvin)            192.64   232.49   274.13   339.32   376.87
                              431.40   470.56   510.58   556.37   577.65
                              640.52   659.12   687.36   792.39   794.60
                              812.30   825.65   837.50   847.54   928.07
                              951.19   967.48  1001.11  1017.61  1043.44
                             1085.88  1096.55  1105.34  1150.61  1163.13
                             1184.33  1206.93  1217.39  1244.29  1249.66
                             1271.96  1306.42  1344.53  1373.05  1401.53
                             1433.40  1460.98  1519.68  1540.31  1557.70
                             1604.39  1623.21  1629.31  1656.12  1714.52
                             1729.04  1783.80  1797.38  1804.55  1840.84
                             1859.12  1893.62  1931.68  1961.26  1981.19
                             1996.41  2037.27  2083.57  2106.07  2147.79
                             2166.77  2174.48  2202.24  2211.79  2221.20
                             2317.77  2346.04  2352.52  2390.34  2415.46
                             4314.40  4464.77  4569.84  4585.21  4601.07
                             4619.00  4619.59  4625.87  4641.94  4653.32
                             4703.57  5073.15  5274.11

 Zero-point correction=                           0.259488 (Hartree/Particle)
 Thermal correction to Energy=                    0.274980
 Thermal correction to Enthalpy=                  0.275924
 Thermal correction to Gibbs Free Energy=         0.215253
 Sum of electronic and zero-point Energies=          -1179.802022
 Sum of electronic and thermal Energies=             -1179.786530
 Sum of electronic and thermal Enthalpies=           -1179.785586
 Sum of electronic and thermal Free Energies=        -1179.846257

                     E (Thermal)             CV                S
                      KCal/Mol        Cal/Mol-Kelvin    Cal/Mol-Kelvin
 Total                  172.552             62.658            127.692
 Electronic               0.000              0.000              0.000
 Translational            0.889              2.981             42.777
 Rotational               0.889              2.981             34.138
 Vibrational            170.775             56.696             50.776
 Vibration     1          0.593              1.985              6.250
 Vibration     2          0.595              1.979              5.020
 Vibration     3          0.595              1.977              4.796
 Vibration     4          0.604              1.950              3.480
 Vibration     5          0.606              1.941              3.274
 Vibration     6          0.613              1.919              2.889
 Vibration     7          0.622              1.889              2.531
 Vibration     8          0.634              1.853              2.223
 Vibration     9          0.655              1.786              1.834
 Vibration    10          0.669              1.742              1.649
 Vibration    11          0.692              1.674              1.418
 Vibration    12          0.711              1.621              1.275
 Vibration    13          0.731              1.565              1.144
 Vibration    14          0.755              1.499              1.013
 Vibration    15          0.767              1.467              0.957
 Vibration    16          0.805              1.372              0.810
 Vibration    17          0.816              1.343              0.772
 Vibration    18          0.834              1.299              0.716
 Vibration    19          0.906              1.138              0.543
 Vibration    20          0.908              1.135              0.539
 Vibration    21          0.920              1.108              0.515
 Vibration    22          0.930              1.088              0.497
 Vibration    23          0.939              1.070              0.482
 Vibration    24          0.946              1.055              0.469

                           ! Non-Optimized Parameters !
 Normal termination of Gaussian 16 at Mon Dec 14 17:56:56 2020.

 ----------------------------------------------------------------------
 # B3LYP/6-311++G(d,p) empiricaldispersion=gd3bj scf=xqc pop=npa geom=c
 heck
 ----------------------------------------------------------------------

 ---------------------------------------
 CID_44580519_JID_10333_Energie_neutraal
 ---------------------------------------
 Structure from the checkpoint file:  "JID_10333.chk"
 Charge =  0 Multiplicity = 1

 SCF Done:  E(RB3LYP) =  -1180.28885733     A.U. after   17 cycles
 Normal termination of Gaussian 16 at Mon Dec 14 18:04:58 2020.

 ----------------------------------------------------------------------
 # B3LYP/6-311++G(d,p) empiricaldispersion=gd3bj scf=xqc pop=npa geom=c
 heck
 ----------------------------------------------------------------------

 -------------------------------------
 CID_44580519_JID_10333_Energie_kation
 -------------------------------------
 Structure from the checkpoint file:  "JID_10333.chk"
 Charge =  1 Multiplicity = 2

 SCF Done:  E(UB3LYP) =  -1180.01957756     A.U. after   28 cycles
 Normal termination of Gaussian 16 at Mon Dec 14 18:23:17 2020.
 Gaussian 16:  ES64L-G16RevA.03 25-Dec-2016

 ----------------------------------------------------------------------
 # B3LYP/6-311++G(d,p) empiricaldispersion=gd3bj scf=xqc pop=npa geom=c
 heck
 ----------------------------------------------------------------------

 ------------------------------------
 CID_44580519_JID_10333_Energie_anion
 ------------------------------------
 Structure from the checkpoint file:  "JID_10333.chk"
 Charge = -1 Multiplicity = 2

                         Standard orientation:
 ---------------------------------------------------------------------
 Center     Atomic      Atomic             Coordinates (Angstroms)
 Number     Number       Type             X           Y           Z
 ---------------------------------------------------------------------
      1          6           0        0.712635    3.123398   -0.152954
      2          6           0        2.022228    3.583072    0.055806
      3          6           0        3.082703    2.690914    0.203909
      4          6           0        2.793147    1.329351    0.148083
      5          6           0        1.469950    0.839102   -0.034241
      6          6           0        0.427686    1.760817   -0.201815
      7          6           0        1.570285   -0.609397   -0.049087
      8          6           0        2.946282   -0.929466    0.076826
      9          7           0        3.656709    0.241814    0.228415
     10          6           0        3.394900   -2.250271   -0.009908
     11          6           0        2.411342   -3.205497   -0.232421
     12          7           0        1.092063   -2.950990   -0.299891
     13          6           0        0.670714   -1.685904   -0.186233
     14          7           0       -0.714120   -1.489336   -0.250838
     15          6           0       -1.376443   -0.865706    0.900148
     16          6           0       -2.757844   -0.407088    0.543001
     17          6           0       -3.865663   -0.327939    1.343517
     18          6           0       -5.001820    0.231254    0.680930
     19          6           0       -4.740224    0.564207   -0.618720
     20         16           0       -3.101690    0.194097   -1.061439
     21          1           0       -0.091929    3.840511   -0.284607
     22          1           0        2.217055    4.650912    0.092782
     23          1           0        4.099572    3.044858    0.348471
     24          1           0       -0.584902    1.426757   -0.395096
     25          1           0        4.661442    0.304493    0.278947
     26          1           0        4.442946   -2.519733    0.066149
     27          1           0        2.690862   -4.250896   -0.346272
     28          1           0       -1.151231   -2.378352   -0.482151
     29          1           0       -1.438115   -1.549848    1.761560
     30          1           0       -0.764517   -0.017983    1.221887
     31          1           0       -3.868909   -0.657747    2.377369
     32          1           0       -5.969498    0.366413    1.151647
     33          1           0       -5.417577    0.979568   -1.352508
 ---------------------------------------------------------------------

 SCF Done:  E(UB3LYP) =  -1180.28259603     A.U. after   33 cycles
 SCF Done:  E(UB3LYP) =  -1180.28261749     a.u. after    5 cycles

 The electronic state is 2-A.
 Alpha  occ. eigenvalues --  -88.76555 -14.24027 -14.19876 -14.17218 -10.10319
 Alpha  occ. eigenvalues --  -10.09915 -10.09787 -10.09345 -10.09056 -10.08879
 Alpha  occ. eigenvalues --  -10.07281 -10.06720 -10.06705 -10.04826 -10.04709
 Alpha  occ. eigenvalues --  -10.04621 -10.04616 -10.04379 -10.04139 -10.03679
 Alpha  occ. eigenvalues --   -7.85140  -5.81423  -5.81053  -5.80758  -0.86861
 Alpha  occ. eigenvalues --   -0.83761  -0.78412  -0.76504  -0.72145  -0.67359
 Alpha  occ. eigenvalues --   -0.65813  -0.63693  -0.62800  -0.61435  -0.59870
 Alpha  occ. eigenvalues --   -0.56033  -0.52909  -0.50344  -0.48631  -0.46418
 Alpha  occ. eigenvalues --   -0.45236  -0.43535  -0.42587  -0.41322  -0.39892
 Alpha  occ. eigenvalues --   -0.38105  -0.37480  -0.35088  -0.33670  -0.32705
 Alpha  occ. eigenvalues --   -0.32018  -0.31918  -0.30904  -0.30670  -0.29786
 Alpha  occ. eigenvalues --   -0.29663  -0.28081  -0.27186  -0.26525  -0.25509
 Alpha  occ. eigenvalues --   -0.25387  -0.23849  -0.23365  -0.22398  -0.22195
 Alpha  occ. eigenvalues --   -0.18000  -0.16120  -0.14923  -0.14008  -0.13265
 Alpha  occ. eigenvalues --   -0.12350  -0.10316  -0.08814   0.04991
 Alpha virt. eigenvalues --    0.06524   0.07011   0.07888   0.08223   0.08391
 Alpha virt. eigenvalues --    0.08883   0.09368   0.10349   0.10771   0.11337
 Alpha virt. eigenvalues --    0.11685   0.11832   0.12567   0.12825   0.13250

  Beta  occ. eigenvalues --  -88.76546 -14.23996 -14.19853 -14.17317 -10.10095
  Beta  occ. eigenvalues --  -10.09886 -10.09777 -10.09275 -10.09074 -10.08808
  Beta  occ. eigenvalues --  -10.07274 -10.06689 -10.06472 -10.04764 -10.04610
  Beta  occ. eigenvalues --  -10.04567 -10.04564 -10.04454 -10.03927 -10.03458
  Beta  occ. eigenvalues --   -7.85133  -5.81420  -5.81051  -5.80728  -0.86783
  Beta  occ. eigenvalues --   -0.83598  -0.78314  -0.76417  -0.71907  -0.67185
  Beta  occ. eigenvalues --   -0.65574  -0.63523  -0.62736  -0.61184  -0.59577
  Beta  occ. eigenvalues --   -0.55909  -0.52695  -0.50112  -0.48518  -0.46231
  Beta  occ. eigenvalues --   -0.45065  -0.43422  -0.42460  -0.41201  -0.39777
  Beta  occ. eigenvalues --   -0.37946  -0.37351  -0.34979  -0.33565  -0.32543
  Beta  occ. eigenvalues --   -0.31832  -0.31696  -0.30780  -0.30569  -0.29669
  Beta  occ. eigenvalues --   -0.29574  -0.27940  -0.27124  -0.26280  -0.25377
  Beta  occ. eigenvalues --   -0.24999  -0.23741  -0.23274  -0.22149  -0.21748
  Beta  occ. eigenvalues --   -0.17234  -0.15440  -0.14750  -0.14046  -0.12903
  Beta  occ. eigenvalues --   -0.11951  -0.09598  -0.08062
  Beta virt. eigenvalues --    0.06776   0.06961   0.08143   0.08360   0.08459
  Beta virt. eigenvalues --    0.08932   0.09434   0.09502   0.10252   0.11031
  Beta virt. eigenvalues --    0.11291   0.11592   0.11892   0.12675   0.12966

 Mulliken charges and spin densities:
               1          2
     1  C   -0.193121  -0.056555
     2  C   -0.222751   0.169713
     3  C   -0.935422   0.074454
     4  C   -0.555730  -0.020912
     5  C    0.729527  -0.007732
     6  C   -0.165823   0.198297
     7  C    1.452277   0.009560
     8  C   -0.640541   0.013630
     9  N   -0.064835   0.013308
    10  C    0.202268   0.026759
    11  C   -0.395526   0.195521
    12  N   -0.102174  -0.059893
    13  C   -0.797090   0.145666
    14  N    0.035526   0.027274
    15  C   -0.640479  -0.747916
    16  C    0.166324  -0.305779
    17  C    0.375148   1.063776
    18  C   -0.163627  -0.791990
    19  C    0.053371   0.229414
    20  S   -0.163009  -0.023670
    21  H    0.139700   0.004281
    22  H    0.110394  -0.011718
    23  H    0.073617   0.018955
    24  H   -0.029727  -0.027199
    25  H    0.248552   0.021478
    26  H    0.106995   0.001050
    27  H    0.135031  -0.010588
    28  H    0.233196   0.019895
    29  H    0.061085   0.093359
    30  H    0.176887  -0.013113
    31  H   -0.186520   0.363761
    32  H   -0.183306   0.304983
    33  H    0.139783   0.081933
 Sum of Mulliken charges =  -1.00000   1.00000

 Dipole moment (field-independent basis, Debye):
    X=              2.0376    Y=              0.9776    Z=             -0.0073  Tot=              2.2600
 Quadrupole moment (field-independent basis, Debye-Ang):
   XX=           -164.1885   YY=           -162.3117   ZZ=           -140.9962
   XY=             -2.3931   XZ=              8.0789   YZ=             -1.1273

 Summary of Natural Population Analysis:

                                       Natural Population
                Natural  -----------------------------------------------
    Atom  No    Charge         Core      Valence    Rydberg      Total
 -----------------------------------------------------------------------
      C    1   -0.15051      0.99962     2.13403    0.01686     3.15051
      C    2   -0.02589      0.99960     2.02219    0.00409     3.02589
      C    3   -0.13253      0.99957     2.11931    0.01366     3.13253
      C    4    0.08317      0.99948     1.90423    0.01312     2.91683
      C    5   -0.05126      0.99952     2.03647    0.01527     3.05126
      C    6   -0.05753      0.99953     2.04982    0.00818     3.05753
      C    7   -0.01257      0.99942     2.00322    0.00992     3.01257
      C    8    0.09190      0.99954     1.89300    0.01556     2.90810
      N    9   -0.27799      0.99963     2.77097    0.00739     3.77799
      C   10   -0.15845      0.99952     2.15132    0.00761     3.15845
      C   11    0.06369      0.99963     1.91952    0.01717     2.93631
      N   12   -0.27253      0.99968     2.76708    0.00577     3.77253
      C   13    0.22403      0.99957     1.75739    0.01901     2.77597
      N   14   -0.32195      0.99969     2.81056    0.01171     3.82195
      C   15   -0.10138      0.99954     2.08968    0.01215     3.10138
      C   16   -0.08729      0.99950     2.07476    0.01303     3.08729
      C   17   -0.13557      0.99946     2.12555    0.01055     3.13557
      C   18   -0.13165      0.99954     2.12063    0.01148     3.13165
      C   19   -0.19398      0.99955     2.18366    0.01078     3.19398
      S   20    0.21502      4.99941     2.76362    0.02195     7.78498
      H   21    0.09366      0.00000     0.40494    0.00141     0.40634
      H   22    0.08639      0.00000     0.41273    0.00088     0.41361
      H   23    0.09057      0.00000     0.40678    0.00264     0.40943
      H   24    0.10044      0.00000     0.39762    0.00194     0.39956
      H   25    0.19255      0.00000     0.30581    0.00163     0.30745
      H   26    0.09590      0.00000     0.40308    0.00102     0.40410
      H   27    0.07769      0.00000     0.42080    0.00151     0.42231
      H   28    0.18310      0.00000     0.31399    0.00291     0.31690
      H   29    0.09295      0.00000     0.40534    0.00171     0.40705
      H   30    0.11257      0.00000     0.38589    0.00154     0.38743
      H   31    0.10515      0.00000     0.39371    0.00115     0.39485
      H   32    0.10246      0.00000     0.39660    0.00094     0.39754
      H   33    0.10435      0.00000     0.39476    0.00089     0.39565
 =======================================================================
   * Total *    0.00451     23.99100    48.73905    0.26544    72.99549

 Normal termination of Gaussian 16 at Mon Dec 14 21:36:30 2020.
