 Gaussian 16, Revision A.03,

 -----------------------------------------------------------
 # opt freq B3LYP/6-31G(d) empiricaldispersion=gd3bj scf=xqc
 -----------------------------------------------------------

 ---------------------------
 CID_91281_JID_1625_neutraal
 ---------------------------
 Symbolic Z-matrix:
 Charge =  0 Multiplicity = 1

 SCF Done:  E(RB3LYP) =  -517.961634866     A.U. after   14 cycles
 SCF Done:  E(RB3LYP) =  -517.965037666     A.U. after   12 cycles
 SCF Done:  E(RB3LYP) =  -517.965313539     A.U. after   11 cycles
 SCF Done:  E(RB3LYP) =  -517.965311282     A.U. after   10 cycles
 SCF Done:  E(RB3LYP) =  -517.965331516     A.U. after    9 cycles
 SCF Done:  E(RB3LYP) =  -517.965335104     A.U. after    9 cycles
 SCF Done:  E(RB3LYP) =  -517.965336912     A.U. after    9 cycles
 SCF Done:  E(RB3LYP) =  -517.965337169     A.U. after    8 cycles
 SCF Done:  E(RB3LYP) =  -517.965337898     A.U. after    8 cycles
 SCF Done:  E(RB3LYP) =  -517.965339737     A.U. after   10 cycles
 SCF Done:  E(RB3LYP) =  -517.965482070     A.U. after   10 cycles
 SCF Done:  E(RB3LYP) =  -517.965482174     A.U. after    8 cycles
 SCF Done:  E(RB3LYP) =  -517.965480804     A.U. after    8 cycles
 SCF Done:  E(RB3LYP) =  -517.965485107     A.U. after   10 cycles
 SCF Done:  E(RB3LYP) =  -517.965485283     A.U. after    7 cycles
 Optimization completed.
    -- Stationary point found.
 Normal termination of Gaussian 16 at Tue Dec  8 20:42:57 2020.

 --------------------------------------------------------------------
 #N Geom=AllCheck Guess=TCheck SCRF=Check GenChk RB3LYP/6-31G(d) Freq
 --------------------------------------------------------------------

 Structure from the checkpoint file:  "JID_1625.chk"
 ---------------------------
 CID_91281_JID_1625_neutraal
 ---------------------------
 Charge =  0 Multiplicity = 1

 SCF Done:  E(RB3LYP) =  -517.965485283     A.U. after    1 cycles

  Exact polarizability: 102.322   0.872  99.482  -3.015  -0.055  71.779
 Approx polarizability: 128.566   1.648 167.060  -4.777  -0.110 105.718

                      1                      2                      3
                      A                      A                      A
 Frequencies --     75.1204                79.9190               108.3131
 Red. masses --      1.9174                 2.6400                 2.0138
 Frc consts  --      0.0064                 0.0099                 0.0139
 IR Inten    --      1.6440                 2.5508                 0.4924

                      4                      5                      6
                      A                      A                      A
 Frequencies --    134.5790               228.1627               244.9289
 Red. masses --      2.9244                 1.1572                 1.4544
 Frc consts  --      0.0312                 0.0355                 0.0514
 IR Inten    --      4.4037                 0.2050                 0.1680

                      7                      8                      9
                      A                      A                      A
 Frequencies --    257.4375               283.7317               325.9132
 Red. masses --      3.6647                 1.2359                 2.5565
 Frc consts  --      0.1431                 0.0586                 0.1600
 IR Inten    --      1.7757                 0.0787                 1.6644

                     10                     11                     12
                      A                      A                      A
 Frequencies --    339.5025               367.8970               382.6733
 Red. masses --      2.7426                 3.1853                 3.0010
 Frc consts  --      0.1863                 0.2540                 0.2589
 IR Inten    --      5.3626                 6.1004                 7.4755

                     13                     14                     15
                      A                      A                      A
 Frequencies --    421.5702               465.7073               475.7805
 Red. masses --      3.1729                 3.4506                 4.2337
 Frc consts  --      0.3322                 0.4409                 0.5647
 IR Inten    --     13.4063                 2.6692                 5.2826

                     16                     17                     18
                      A                      A                      A
 Frequencies --    578.9340               604.2918               623.4542
 Red. masses --      3.8129                 3.4443                 5.1012
 Frc consts  --      0.7530                 0.7410                 1.1682
 IR Inten    --      6.2323                 5.9597                 5.9531

                     19                     20                     21
                      A                      A                      A
 Frequencies --    646.5887               747.1097               824.9203
 Red. masses --      3.4844                 3.8459                 3.2792
 Frc consts  --      0.8583                 1.2648                 1.3147
 IR Inten    --     19.9257                 1.5069                 2.5996

                     22                     23                     24
                      A                      A                      A
 Frequencies --    921.9108               948.0748               950.6842
 Red. masses --      1.7945                 1.9629                 2.2707
 Frc consts  --      0.8986                 1.0395                 1.2092
 IR Inten    --      0.2372                 3.5021                 4.5368

                     25                     26                     27
                      A                      A                      A
 Frequencies --    966.5342               989.2243              1000.1801
 Red. masses --      1.4464                 1.9061                 2.1852
 Frc consts  --      0.7961                 1.0989                 1.2880
 IR Inten    --      0.3422                 8.1648                 2.2942

                     28                     29                     30
                      A                      A                      A
 Frequencies --   1051.9126              1111.6955              1144.6329
 Red. masses --      1.4037                 3.8393                 2.0678
 Frc consts  --      0.9152                 2.7956                 1.5962
 IR Inten    --      2.8441                 0.3947               119.8634

                     31                     32                     33
                      A                      A                      A
 Frequencies --   1165.1125              1169.7696              1209.5997
 Red. masses --      1.5582                 1.5035                 1.5426
 Frc consts  --      1.2462                 1.2122                 1.3298
 IR Inten    --      5.6497                 1.8613                 3.7640

                     34                     35                     36
                      A                      A                      A
 Frequencies --   1215.1874              1302.7069              1321.4277
 Red. masses --      1.7458                 2.1660                 1.6701
 Frc consts  --      1.5189                 2.1658                 1.7182
 IR Inten    --      6.4484                 0.2724                36.1497

                     37                     38                     39
                      A                      A                      A
 Frequencies --   1332.9700              1350.3732              1378.0602
 Red. masses --      1.8179                 3.4674                 1.9764
 Frc consts  --      1.9030                 3.7253                 2.2114
 IR Inten    --     12.9002               165.1795                19.5322

                     40                     41                     42
                      A                      A                      A
 Frequencies --   1396.0788              1433.4837              1453.6658
 Red. masses --      3.7821                 1.2412                 1.2166
 Frc consts  --      4.3432                 1.5027                 1.5147
 IR Inten    --    123.6331                 6.9310                 4.3810

                     43                     44                     45
                      A                      A                      A
 Frequencies --   1466.9617              1486.1175              1498.7880
 Red. masses --      1.3135                 1.0798                 1.0837
 Frc consts  --      1.6653                 1.4051                 1.4343
 IR Inten    --     68.3418                 2.9364                 1.6267

                     46                     47                     48
                      A                      A                      A
 Frequencies --   1516.6840              1524.3228              1525.3368
 Red. masses --      1.0450                 1.0580                 1.0491
 Frc consts  --      1.4164                 1.4484                 1.4382
 IR Inten    --      0.3888                 9.9490                 5.3471

                     49                     50                     51
                      A                      A                      A
 Frequencies --   1531.7296              1536.5643              1540.8623
 Red. masses --      1.0679                 1.0634                 1.0585
 Frc consts  --      1.4762                 1.4792                 1.4806
 IR Inten    --     17.1172                 2.0888                 5.0716

                     52                     53                     54
                      A                      A                      A
 Frequencies --   1775.6674              1817.8516              3035.0916
 Red. masses --     12.1493                11.1428                 1.0694
 Frc consts  --     22.5697                21.6951                 5.8041
 IR Inten    --    483.5211                74.3438                 4.3844

                     55                     56                     57
                      A                      A                      A
 Frequencies --   3037.3622              3043.5756              3052.9128
 Red. masses --      1.0637                 1.0382                 1.0374
 Frc consts  --      5.7817                 5.6666                 5.6966
 IR Inten    --     16.7284                35.3242                 9.1833

                     58                     59                     60
                      A                      A                      A
 Frequencies --   3090.9206              3111.2638              3113.4832
 Red. masses --      1.0345                 1.1021                 1.1028
 Frc consts  --      5.8233                 6.2856                 6.2986
 IR Inten    --     23.9428                23.1319                 7.1944

                     61                     62                     63
                      A                      A                      A
 Frequencies --   3117.9076              3120.4643              3122.3945
 Red. masses --      1.0966                 1.0974                 1.0993
 Frc consts  --      6.2807                 6.2959                 6.3146
 IR Inten    --      0.4354                 8.3492                36.8990

                     64                     65                     66
                      A                      A                      A
 Frequencies --   3122.9409              3154.3448              3214.7750
 Red. masses --      1.0980                 1.1054                 1.1028
 Frc consts  --      6.3092                 6.4804                 6.7148
 IR Inten    --     45.3666                13.4719                 0.6891

 - Thermochemistry -
 -------------------
 Temperature   298.150 Kelvin.  Pressure   1.00000 Atm.
 Atom     1 has atomic number  6 and mass  12.00000

 Molecular mass:   155.09463 amu.
 Principal axes and moments of inertia in atomic units:
                           1         2         3
     Eigenvalues --  1135.681021789.994102489.89404
           X            0.99999  -0.00025  -0.00427
           Y            0.00025   1.00000  -0.00013
           Z            0.00427   0.00013   0.99999
 This molecule is an asymmetric top.
 Rotational symmetry number  1.
 Warning -- assumption of classical behavior for rotation
           may cause significant error
 Rotational temperatures (Kelvin)      0.07627     0.04839     0.03479
 Rotational constants (GHZ):           1.58913     1.00824     0.72483
 Zero-point vibrational energy     541837.4 (Joules/Mol)
                                  129.50225 (Kcal/Mol)
 Warning -- explicit consideration of  17 degrees of freedom as
           vibrations may cause significant error
 Vibrational temperatures:    108.08   114.99   155.84   193.63   328.28
          (Kelvin)            352.40   370.40   408.23   468.92   488.47
                              529.32   550.58   606.55   670.05   684.54
                              832.96   869.44   897.01   930.30  1074.92
                             1186.88  1326.42  1364.07  1367.82  1390.63
                             1423.27  1439.04  1513.47  1599.48  1646.87
                             1676.34  1683.04  1740.34  1748.38  1874.30
                             1901.24  1917.85  1942.89  1982.72  2008.65
                             2062.46  2091.50  2110.63  2138.19  2156.42
                             2182.17  2193.16  2194.62  2203.82  2210.77
                             2216.96  2554.79  2615.48  4366.82  4370.09
                             4379.03  4392.46  4447.15  4476.41  4479.61
                             4485.97  4489.65  4492.43  4493.22  4538.40
                             4625.34

 Zero-point correction=                           0.206375 (Hartree/Particle)
 Thermal correction to Energy=                    0.217589
 Thermal correction to Enthalpy=                  0.218534
 Thermal correction to Gibbs Free Energy=         0.169887
 Sum of electronic and zero-point Energies=           -517.759110
 Sum of electronic and thermal Energies=              -517.747896
 Sum of electronic and thermal Enthalpies=            -517.746952
 Sum of electronic and thermal Free Energies=         -517.795598

                     E (Thermal)             CV                S
                      KCal/Mol        Cal/Mol-Kelvin    Cal/Mol-Kelvin
 Total                  136.539             42.316            102.385
 Electronic               0.000              0.000              0.000
 Translational            0.889              2.981             41.026
 Rotational               0.889              2.981             30.005
 Vibrational            134.762             36.354             31.354
 Vibration     1          0.599              1.966              4.014
 Vibration     2          0.600              1.963              3.893
 Vibration     3          0.606              1.943              3.299
 Vibration     4          0.613              1.919              2.880
 Vibration     5          0.651              1.798              1.893
 Vibration     6          0.660              1.771              1.767
 Vibration     7          0.667              1.750              1.679
 Vibration     8          0.682              1.704              1.511
 Vibration     9          0.710              1.624              1.280
 Vibration    10          0.719              1.597              1.214
 Vibration    11          0.740              1.538              1.089
 Vibration    12          0.752              1.507              1.029
 Vibration    13          0.784              1.423              0.887
 Vibration    14          0.823              1.326              0.750
 Vibration    15          0.832              1.304              0.722
 Vibration    16          0.936              1.077              0.487
 Vibration    17          0.963              1.023              0.442

                           ! Non-Optimized Parameters !
 Normal termination of Gaussian 16 at Tue Dec  8 20:48:45 2020.

 ----------------------------------------------------------------------
 # B3LYP/6-311++G(d,p) empiricaldispersion=gd3bj scf=xqc pop=npa geom=c
 heck
 ----------------------------------------------------------------------

 -----------------------------------
 CID_91281_JID_1625_Energie_neutraal
 -----------------------------------
 Structure from the checkpoint file:  "JID_1625.chk"
 Charge =  0 Multiplicity = 1

 SCF Done:  E(RB3LYP) =  -518.115364330     A.U. after   13 cycles
 Normal termination of Gaussian 16 at Tue Dec  8 20:51:19 2020.

 ----------------------------------------------------------------------
 # B3LYP/6-311++G(d,p) empiricaldispersion=gd3bj scf=xqc pop=npa geom=c
 heck
 ----------------------------------------------------------------------

 ---------------------------------
 CID_91281_JID_1625_Energie_kation
 ---------------------------------
 Structure from the checkpoint file:  "JID_1625.chk"
 Charge =  1 Multiplicity = 2

 SCF Done:  E(UB3LYP) =  -517.768376340     A.U. after   28 cycles
 Normal termination of Gaussian 16 at Tue Dec  8 20:58:46 2020.
 Gaussian 16:  ES64L-G16RevA.03 25-Dec-2016

 ----------------------------------------------------------------------
 # B3LYP/6-311++G(d,p) empiricaldispersion=gd3bj scf=xqc pop=npa geom=c
 heck
 ----------------------------------------------------------------------

 --------------------------------
 CID_91281_JID_1625_Energie_anion
 --------------------------------
 Structure from the checkpoint file:  "JID_1625.chk"
 Charge = -1 Multiplicity = 2

                         Standard orientation:
 ---------------------------------------------------------------------
 Center     Atomic      Atomic             Coordinates (Angstroms)
 Number     Number       Type             X           Y           Z
 ---------------------------------------------------------------------
      1          6           0        1.551097   -0.011425    1.576840
      2          6           0        1.539048   -0.010832    0.038133
      3          6           0        0.782143   -1.236353   -0.493874
      4          6           0       -0.701775   -1.231902   -0.183277
      5          8           0       -1.344783   -2.257479   -0.046563
      6          7           0       -1.335775    0.013097   -0.084237
      7          6           0       -0.685652    1.253173   -0.179113
      8          8           0       -1.294995    2.298949   -0.043271
      9          6           0        0.798634    1.225296   -0.492527
     10          6           0       -2.775815   -0.008625    0.192009
     11          6           0        2.980802   -0.019548   -0.485036
     12          1           0        2.064622   -0.901180    1.957664
     13          1           0        0.539152   -0.005005    1.996058
     14          1           0        2.075900    0.871483    1.958242
     15          1           0        0.883686   -1.284810   -1.587848
     16          1           0        1.183932   -2.172933   -0.097080
     17          1           0        1.217937    2.155333   -0.098797
     18          1           0        0.896625    1.270707   -1.586987
     19          1           0       -3.290653   -0.568397   -0.591549
     20          1           0       -2.963875   -0.503630    1.147626
     21          1           0       -3.121271    1.021969    0.221286
     22          1           0        3.528430    0.862288   -0.133104
     23          1           0        3.516557   -0.909407   -0.135028
     24          1           0        3.006717   -0.018564   -1.581082
 ---------------------------------------------------------------------

 SCF Done:  E(UB3LYP) =  -518.103585061     A.U. after   33 cycles
 SCF Done:  E(UB3LYP) =  -518.103585061     a.u. after    1 cycles

 The electronic state is 2-A.
 Alpha  occ. eigenvalues --  -19.00066 -18.99658 -14.26078 -10.17919 -10.17541
 Alpha  occ. eigenvalues --  -10.10143 -10.08977 -10.07502 -10.07244 -10.05545
 Alpha  occ. eigenvalues --  -10.05105  -0.96022  -0.94140  -0.83637  -0.73888
 Alpha  occ. eigenvalues --   -0.63854  -0.62945  -0.58855  -0.58030  -0.53457
 Alpha  occ. eigenvalues --   -0.46391  -0.41720  -0.40016  -0.38921  -0.36794
 Alpha  occ. eigenvalues --   -0.35182  -0.34435  -0.33538  -0.32270  -0.31019
 Alpha  occ. eigenvalues --   -0.30717  -0.28957  -0.28265  -0.27726  -0.27248
 Alpha  occ. eigenvalues --   -0.25270  -0.24738  -0.23008  -0.22659  -0.17369
 Alpha  occ. eigenvalues --   -0.17258  -0.15544   0.04798
 Alpha virt. eigenvalues --    0.07030   0.07756   0.08215   0.09193   0.09658
 Alpha virt. eigenvalues --    0.10652   0.11258   0.11541   0.11980   0.12698
 Alpha virt. eigenvalues --    0.12999   0.13604   0.14163   0.14641   0.15886

  Beta  occ. eigenvalues --  -19.00024 -18.99574 -14.26097 -10.17864 -10.17439
  Beta  occ. eigenvalues --  -10.10133 -10.08974 -10.07475 -10.07223 -10.05498
  Beta  occ. eigenvalues --  -10.05049  -0.95916  -0.94006  -0.83597  -0.73856
  Beta  occ. eigenvalues --   -0.63790  -0.62828  -0.58780  -0.57950  -0.53342
  Beta  occ. eigenvalues --   -0.46285  -0.41634  -0.39937  -0.38796  -0.36709
  Beta  occ. eigenvalues --   -0.35043  -0.34359  -0.33481  -0.32157  -0.30956
  Beta  occ. eigenvalues --   -0.30652  -0.28816  -0.28137  -0.27654  -0.27157
  Beta  occ. eigenvalues --   -0.25067  -0.24668  -0.22948  -0.22581  -0.17257
  Beta  occ. eigenvalues --   -0.17160  -0.15486
  Beta virt. eigenvalues --    0.07327   0.07877   0.08159   0.09376   0.10044
  Beta virt. eigenvalues --    0.10319   0.11025   0.11548   0.11865   0.12428
  Beta virt. eigenvalues --    0.13106   0.13590   0.14018   0.14642   0.15166

 Mulliken charges and spin densities:
               1          2
     1  C    1.368874  -1.939879
     2  C   -3.385931   4.077108
     3  C    1.526589  -2.004019
     4  C   -0.539500   0.456168
     5  O   -0.318515   0.024120
     6  N    0.011729  -0.007684
     7  C   -0.490458   0.472799
     8  O   -0.330464   0.034765
     9  C    1.849184  -2.381440
    10  C    0.073811  -0.314596
    11  C    1.447521  -1.923906
    12  H   -0.367620   0.522590
    13  H    0.052760   0.108202
    14  H   -0.233804   0.385159
    15  H   -0.149459   0.358752
    16  H   -0.031532   0.250328
    17  H    0.161522   0.051733
    18  H   -0.569414   0.803776
    19  H    0.060216   0.110240
    20  H    0.044035   0.125593
    21  H    0.083015   0.085828
    22  H   -0.371815   0.513951
    23  H   -0.395831   0.541544
    24  H   -0.494912   0.648869
 Sum of Mulliken charges =  -1.00000   1.00000

 Dipole moment (field-independent basis, Debye):
    X=             -5.6469    Y=             -0.1966    Z=              1.2780  Tot=              5.7930
 Quadrupole moment (field-independent basis, Debye-Ang):
   XX=           -118.7044   YY=           -109.9575   ZZ=           -102.2038
   XY=              0.1517   XZ=              1.7023   YZ=              3.2626

 Summary of Natural Population Analysis:

                                       Natural Population
                Natural  -----------------------------------------------
    Atom  No    Charge         Core      Valence    Rydberg      Total
 -----------------------------------------------------------------------
      C    1   -0.28620      0.99962     2.27920    0.00738     3.28620
      C    2   -0.04585      0.99958     2.03353    0.01274     3.04585
      C    3   -0.23296      0.99954     2.22218    0.01124     3.23296
      C    4    0.36942      0.99965     1.60899    0.02193     2.63058
      O    5   -0.30483      0.99988     3.29913    0.00583     4.30483
      N    6   -0.26986      0.99961     2.76189    0.00836     3.76986
      C    7    0.37509      0.99965     1.60343    0.02183     2.62491
      O    8   -0.30236      0.99987     3.29692    0.00557     4.30236
      C    9   -0.23425      0.99954     2.22323    0.01147     3.23425
      C   10   -0.18153      0.99964     2.17470    0.00718     3.18153
      C   11   -0.28246      0.99962     2.27478    0.00805     3.28246
      H   12    0.10410      0.00000     0.39451    0.00139     0.39590
      H   13    0.09901      0.00000     0.39970    0.00129     0.40099
      H   14    0.10336      0.00000     0.39550    0.00113     0.39664
      H   15    0.11658      0.00000     0.38203    0.00139     0.38342
      H   16    0.11665      0.00000     0.38214    0.00121     0.38335
      H   17    0.11538      0.00000     0.38351    0.00110     0.38462
      H   18    0.12078      0.00000     0.37567    0.00355     0.37922
      H   19    0.09951      0.00000     0.39935    0.00114     0.40049
      H   20    0.09899      0.00000     0.39980    0.00121     0.40101
      H   21    0.11193      0.00000     0.38696    0.00112     0.38807
      H   22    0.10287      0.00000     0.39521    0.00192     0.39713
      H   23    0.10257      0.00000     0.39557    0.00186     0.39743
      H   24    0.10404      0.00000     0.39320    0.00276     0.39596
 =======================================================================
   * Total *    0.00000     10.99622    30.86113    0.14265    42.00000

 Normal termination of Gaussian 16 at Tue Dec  8 21:07:30 2020.
