 Gaussian 16, Revision A.03,

 -----------------------------------------------------------
 # opt freq B3LYP/6-31G(d) empiricaldispersion=gd3bj scf=xqc
 -----------------------------------------------------------

 ------------------------------
 CID_20116362_JID_5849_neutraal
 ------------------------------
 Symbolic Z-matrix:
 Charge =  0 Multiplicity = 1

 SCF Done:  E(RB3LYP) =  -1061.33573048     A.U. after   15 cycles
 SCF Done:  E(RB3LYP) =  -1061.34595095     A.U. after   12 cycles
 SCF Done:  E(RB3LYP) =  -1061.34655593     A.U. after   12 cycles
 SCF Done:  E(RB3LYP) =  -1061.34736448     A.U. after   12 cycles
 SCF Done:  E(RB3LYP) =  -1061.34754162     A.U. after   11 cycles
 SCF Done:  E(RB3LYP) =  -1061.34756258     A.U. after   10 cycles
 SCF Done:  E(RB3LYP) =  -1061.34757274     A.U. after    9 cycles
 SCF Done:  E(RB3LYP) =  -1061.34757914     A.U. after    9 cycles
 SCF Done:  E(RB3LYP) =  -1061.34758928     A.U. after   10 cycles
 SCF Done:  E(RB3LYP) =  -1061.34759289     A.U. after    9 cycles
 SCF Done:  E(RB3LYP) =  -1061.34759658     A.U. after    9 cycles
 SCF Done:  E(RB3LYP) =  -1061.34759869     A.U. after    9 cycles
 SCF Done:  E(RB3LYP) =  -1061.34760085     A.U. after    9 cycles
 SCF Done:  E(RB3LYP) =  -1061.34760203     A.U. after    9 cycles
 SCF Done:  E(RB3LYP) =  -1061.34760241     A.U. after    8 cycles
 Optimization completed.
    -- Stationary point found.
 Normal termination of Gaussian 16 at Thu Dec 10 17:30:04 2020.

 --------------------------------------------------------------------
 #N Geom=AllCheck Guess=TCheck SCRF=Check GenChk RB3LYP/6-31G(d) Freq
 --------------------------------------------------------------------

 Structure from the checkpoint file:  "JID_5849.chk"
 ------------------------------
 CID_20116362_JID_5849_neutraal
 ------------------------------
 Charge =  0 Multiplicity = 1

 SCF Done:  E(RB3LYP) =  -1061.34760241     A.U. after    1 cycles

  Exact polarizability: 238.623   9.898 136.267  -0.009  -0.000  56.876
 Approx polarizability: 338.754  21.071 250.923  -0.042   0.008  88.884

                      1                      2                      3
                      A                      A                      A
 Frequencies --     38.4692                49.5862                72.7338
 Red. masses --      7.6407                 7.8430                 3.6062
 Frc consts  --      0.0067                 0.0114                 0.0112
 IR Inten    --      1.1414                 1.6663                 0.8756

                      4                      5                      6
                      A                      A                      A
 Frequencies --    113.5121               124.0062               183.7232
 Red. masses --      6.4086                 5.9504                 3.6143
 Frc consts  --      0.0487                 0.0539                 0.0719
 IR Inten    --      0.7013                 7.0089                 4.1191

                      7                      8                      9
                      A                      A                      A
 Frequencies --    225.7498               226.1125               269.7713
 Red. masses --      3.3259                 4.5646                 1.2487
 Frc consts  --      0.0999                 0.1375                 0.0535
 IR Inten    --      3.8316                11.0185                18.5138

                     10                     11                     12
                      A                      A                      A
 Frequencies --    278.8414               302.9269               347.3847
 Red. masses --      5.1344                 1.3717                 6.2486
 Frc consts  --      0.2352                 0.0742                 0.4443
 IR Inten    --      1.6282               170.8267                21.2876

                     13                     14                     15
                      A                      A                      A
 Frequencies --    367.1504               395.3090               440.0215
 Red. masses --      9.1128                 7.2657                 3.2209
 Frc consts  --      0.7238                 0.6690                 0.3674
 IR Inten    --      1.5409                 4.3835                 2.1892

                     16                     17                     18
                      A                      A                      A
 Frequencies --    464.9920               507.4509               513.7697
 Red. masses --      6.5234                 1.2642                 7.5962
 Frc consts  --      0.8310                 0.1918                 1.1814
 IR Inten    --      2.9888               124.1051                 4.2121

                     19                     20                     21
                      A                      A                      A
 Frequencies --    569.0266               576.0386               589.1736
 Red. masses --      3.6056                 4.6761                 2.8136
 Frc consts  --      0.6878                 0.9142                 0.5754
 IR Inten    --      6.7008                18.5075                 4.2229

                     22                     23                     24
                      A                      A                      A
 Frequencies --    610.2722               654.2490               670.7784
 Red. masses --      3.0977                 6.7042                 1.4957
 Frc consts  --      0.6797                 1.6908                 0.3965
 IR Inten    --      0.2277                12.2374                 4.6979

                     25                     26                     27
                      A                      A                      A
 Frequencies --    706.5279               722.7948               756.8010
 Red. masses --      7.5202                 5.1262                 4.2682
 Frc consts  --      2.2118                 1.5779                 1.4403
 IR Inten    --      0.8424                 0.7018                22.7180

                     28                     29                     30
                      A                      A                      A
 Frequencies --    792.6570               818.8968               862.4782
 Red. masses --      6.9284                 1.4485                 1.4664
 Frc consts  --      2.5648                 0.5723                 0.6427
 IR Inten    --      3.0622                27.2902                28.5100

                     31                     32                     33
                      A                      A                      A
 Frequencies --    862.5434               934.7044               940.2426
 Red. masses --      6.1093                 1.2971                 4.9405
 Frc consts  --      2.6780                 0.6677                 2.5733
 IR Inten    --     21.6610                 0.2582                38.8615

                     34                     35                     36
                      A                      A                      A
 Frequencies --    958.2840              1062.3583              1095.9187
 Red. masses --      6.9766                 2.2412                 8.4466
 Frc consts  --      3.7747                 1.4903                 5.9771
 IR Inten    --     15.3996                 1.8915               136.4350

                     37                     38                     39
                      A                      A                      A
 Frequencies --   1153.8035              1169.3474              1186.2921
 Red. masses --      1.9145                 1.3665                 1.2696
 Frc consts  --      1.5016                 1.1009                 1.0527
 IR Inten    --      5.4920                 3.1037                 0.7996

                     40                     41                     42
                      A                      A                      A
 Frequencies --   1207.1306              1219.9696              1257.4775
 Red. masses --      2.5094                 1.4099                 1.8712
 Frc consts  --      2.1544                 1.2364                 1.7433
 IR Inten    --     96.9283                20.5505               130.9472

                     43                     44                     45
                      A                      A                      A
 Frequencies --   1306.6758              1322.5374              1375.6277
 Red. masses --      5.8421                 2.1722                 4.8246
 Frc consts  --      5.8770                 2.2386                 5.3792
 IR Inten    --    128.7605               110.6775               263.7088

                     46                     47                     48
                      A                      A                      A
 Frequencies --   1394.2671              1469.0771              1492.6665
 Red. masses --      3.7033                 3.2393                 1.5723
 Frc consts  --      4.2416                 4.1190                 2.0639
 IR Inten    --    330.2295                 4.1123                81.1883

                     49                     50                     51
                      A                      A                      A
 Frequencies --   1506.4169              1521.5034              1523.2549
 Red. masses --      1.7973                 1.0479                 1.9859
 Frc consts  --      2.4031                 1.4292                 2.7148
 IR Inten    --    142.0323                 5.8600               255.2107

                     52                     53                     54
                      A                      A                      A
 Frequencies --   1537.7884              1610.5484              1633.9552
 Red. masses --      1.1135                 7.0179                 3.2063
 Frc consts  --      1.5514                10.7251                 5.0435
 IR Inten    --      3.8239               246.4903               154.0301

                     55                     56                     57
                      A                      A                      A
 Frequencies --   1641.5140              1675.4403              1843.3006
 Red. masses --      1.7135                 6.3626                 7.7060
 Frc consts  --      2.7203                10.5230                15.4266
 IR Inten    --    183.3771               205.9589               594.5840

                     58                     59                     60
                      A                      A                      A
 Frequencies --   3026.5366              3085.6636              3161.6237
 Red. masses --      1.0348                 1.1067                 1.0997
 Frc consts  --      5.5848                 6.2086                 6.4765
 IR Inten    --     66.7313                43.1307                27.1404

                     61                     62                     63
                      A                      A                      A
 Frequencies --   3213.0866              3226.6168              3237.9081
 Red. masses --      1.0894                 1.0917                 1.0919
 Frc consts  --      6.6264                 6.6965                 6.7447
 IR Inten    --      6.2767                 2.0439                10.3263

                     64                     65                     66
                      A                      A                      A
 Frequencies --   3500.8272              3634.1843              3711.6148
 Red. masses --      1.0568                 1.0776                 1.0959
 Frc consts  --      7.6311                 8.3854                 8.8953
 IR Inten    --    174.4254                80.9079               140.5998

 - Thermochemistry -
 -------------------
 Temperature   298.150 Kelvin.  Pressure   1.00000 Atm.
 Atom     1 has atomic number  6 and mass  12.00000

 Molecular mass:   223.04155 amu.
 Principal axes and moments of inertia in atomic units:
                           1         2         3
     Eigenvalues --   998.588077471.277198458.33887
           X            0.99999   0.00384   0.00001
           Y           -0.00384   0.99999   0.00001
           Z           -0.00001  -0.00001   1.00000
 This molecule is an asymmetric top.
 Rotational symmetry number  1.
 Warning -- assumption of classical behavior for rotation
           may cause significant error
 Rotational temperatures (Kelvin)      0.08674     0.01159     0.01024
 Rotational constants (GHZ):           1.80729     0.24156     0.21337
 Zero-point vibrational energy     472237.3 (Joules/Mol)
                                  112.86743 (Kcal/Mol)
 Warning -- explicit consideration of  22 degrees of freedom as
           vibrations may cause significant error
 Vibrational temperatures:     55.35    71.34   104.65   163.32   178.42
          (Kelvin)            264.34   324.80   325.33   388.14   401.19
                              435.84   499.81   528.25   568.76   633.09
                              669.02   730.11   739.20   818.70   828.79
                              847.69   878.05   941.32   965.10  1016.54
                             1039.94  1088.87  1140.46  1178.21  1240.91
                             1241.01  1344.83  1352.80  1378.76  1528.50
                             1576.78  1660.07  1682.43  1706.81  1736.79
                             1755.26  1809.23  1880.02  1902.84  1979.22
                             2006.04  2113.67  2147.61  2167.40  2189.10
                             2191.62  2212.53  2317.22  2350.90  2361.77
                             2410.58  2652.10  4354.51  4439.58  4548.87
                             4622.92  4642.38  4658.63  5036.91  5228.78
                             5340.19

 Zero-point correction=                           0.179866 (Hartree/Particle)
 Thermal correction to Energy=                    0.193393
 Thermal correction to Enthalpy=                  0.194338
 Thermal correction to Gibbs Free Energy=         0.138773
 Sum of electronic and zero-point Energies=          -1061.167737
 Sum of electronic and thermal Energies=             -1061.154209
 Sum of electronic and thermal Enthalpies=           -1061.153265
 Sum of electronic and thermal Free Energies=        -1061.208829

                     E (Thermal)             CV                S
                      KCal/Mol        Cal/Mol-Kelvin    Cal/Mol-Kelvin
 Total                  121.356             51.174            116.945
 Electronic               0.000              0.000              0.000
 Translational            0.889              2.981             42.109
 Rotational               0.889              2.981             32.512
 Vibrational            119.579             45.212             42.324
 Vibration     1          0.594              1.982              5.336
 Vibration     2          0.595              1.978              4.834
 Vibration     3          0.599              1.967              4.078
 Vibration     4          0.607              1.938              3.208
 Vibration     5          0.610              1.929              3.037
 Vibration     6          0.631              1.862              2.290
 Vibration     7          0.650              1.802              1.912
 Vibration     8          0.650              1.801              1.910
 Vibration     9          0.674              1.729              1.598
 Vibration    10          0.679              1.713              1.541
 Vibration    11          0.694              1.668              1.401
 Vibration    12          0.725              1.581              1.178
 Vibration    13          0.740              1.540              1.092
 Vibration    14          0.762              1.480              0.980
 Vibration    15          0.800              1.383              0.827
 Vibration    16          0.822              1.328              0.752
 Vibration    17          0.863              1.233              0.640
 Vibration    18          0.869              1.219              0.625
 Vibration    19          0.925              1.098              0.506
 Vibration    20          0.932              1.083              0.493
 Vibration    21          0.946              1.055              0.469
 Vibration    22          0.969              1.010              0.432

                           ! Non-Optimized Parameters !
 Normal termination of Gaussian 16 at Thu Dec 10 17:37:08 2020.

 ----------------------------------------------------------------------
 # B3LYP/6-311++G(d,p) empiricaldispersion=gd3bj scf=xqc pop=npa geom=c
 heck
 ----------------------------------------------------------------------

 --------------------------------------
 CID_20116362_JID_5849_Energie_neutraal
 --------------------------------------
 Structure from the checkpoint file:  "JID_5849.chk"
 Charge =  0 Multiplicity = 1

 SCF Done:  E(RB3LYP) =  -1061.56649513     A.U. after   16 cycles
 Normal termination of Gaussian 16 at Thu Dec 10 17:39:53 2020.

 ----------------------------------------------------------------------
 # B3LYP/6-311++G(d,p) empiricaldispersion=gd3bj scf=xqc pop=npa geom=c
 heck
 ----------------------------------------------------------------------

 ------------------------------------
 CID_20116362_JID_5849_Energie_kation
 ------------------------------------
 Structure from the checkpoint file:  "JID_5849.chk"
 Charge =  1 Multiplicity = 2

 SCF Done:  E(UB3LYP) =  -1061.28402126     A.U. after   25 cycles
 Normal termination of Gaussian 16 at Thu Dec 10 17:46:01 2020.
 Gaussian 16:  ES64L-G16RevA.03 25-Dec-2016

 ----------------------------------------------------------------------
 # B3LYP/6-311++G(d,p) empiricaldispersion=gd3bj scf=xqc pop=npa geom=c
 heck
 ----------------------------------------------------------------------

 -----------------------------------
 CID_20116362_JID_5849_Energie_anion
 -----------------------------------
 Structure from the checkpoint file:  "JID_5849.chk"
 Charge = -1 Multiplicity = 2

                         Standard orientation:
 ---------------------------------------------------------------------
 Center     Atomic      Atomic             Coordinates (Angstroms)
 Number     Number       Type             X           Y           Z
 ---------------------------------------------------------------------
      1          6           0        5.352806    0.552993    0.001392
      2          8           0        4.352374   -0.451652   -0.001453
      3          6           0        3.045686   -0.057063   -0.000754
      4          6           0        2.108997   -1.099393   -0.000636
      5          6           0        0.762650   -0.768682   -0.000211
      6          6           0        0.315330    0.575261    0.000220
      7          6           0        1.264515    1.596310    0.000122
      8          6           0        2.623074    1.283080   -0.000417
      9          7           0       -1.064551    0.745259    0.000727
     10          6           0       -1.677618   -0.397937    0.000633
     11         16           0       -0.630346   -1.848750    0.000061
     12          7           0       -3.035727   -0.576869    0.001168
     13          6           0       -4.075956    0.391126   -0.000089
     14          8           0       -5.234004    0.004737   -0.000328
     15          7           0       -3.663859    1.679423   -0.001063
     16          1           0        6.307163    0.024108    0.002378
     17          1           0        5.286509    1.184936    0.896762
     18          1           0        5.289614    1.186997   -0.892759
     19          1           0        2.460322   -2.124958   -0.000868
     20          1           0        0.936082    2.630485    0.000389
     21          1           0        3.347876    2.087579   -0.000644
     22          1           0       -3.402554   -1.518598    0.000742
     23          1           0       -2.673829    1.908368    0.000291
     24          1           0       -4.380557    2.387542   -0.000407
 ---------------------------------------------------------------------

 SCF Done:  E(UB3LYP) =  -1061.55796424     A.U. after   33 cycles
 SCF Done:  E(UB3LYP) =  -1061.55809439     a.u. after    6 cycles

 The electronic state is 2-A.
 Alpha  occ. eigenvalues --  -88.77811 -19.05427 -19.00535 -14.27142 -14.24694
 Alpha  occ. eigenvalues --  -14.21841 -10.22397 -10.18158 -10.13721 -10.12003
 Alpha  occ. eigenvalues --  -10.10955 -10.10810 -10.07933 -10.07902 -10.07487
 Alpha  occ. eigenvalues --   -7.86346  -5.82658  -5.82342  -5.81879  -0.97443
 Alpha  occ. eigenvalues --   -0.97078  -0.89683  -0.83961  -0.81749  -0.75253
 Alpha  occ. eigenvalues --   -0.70195  -0.65993  -0.63526  -0.59933  -0.56420
 Alpha  occ. eigenvalues --   -0.52930  -0.50284  -0.49425  -0.46652  -0.43642
 Alpha  occ. eigenvalues --   -0.42619  -0.40753  -0.38800  -0.37157  -0.36898
 Alpha  occ. eigenvalues --   -0.36447  -0.34535  -0.34330  -0.32630  -0.32223
 Alpha  occ. eigenvalues --   -0.31362  -0.30012  -0.27825  -0.25664  -0.23824
 Alpha  occ. eigenvalues --   -0.23254  -0.20748  -0.19901  -0.19613  -0.19567
 Alpha  occ. eigenvalues --   -0.18587  -0.13891  -0.11089   0.04247
 Alpha virt. eigenvalues --    0.05937   0.06569   0.06725   0.07800   0.08057
 Alpha virt. eigenvalues --    0.08202   0.09748   0.09967   0.10622   0.11734
 Alpha virt. eigenvalues --    0.11746   0.12408   0.12668   0.13163   0.13979

  Beta  occ. eigenvalues --  -88.77780 -19.05411 -19.00522 -14.27117 -14.24689
  Beta  occ. eigenvalues --  -14.21844 -10.22388 -10.18027 -10.13709 -10.11946
  Beta  occ. eigenvalues --  -10.10879 -10.10797 -10.07920 -10.07865 -10.07471
  Beta  occ. eigenvalues --   -7.86316  -5.82547  -5.82332  -5.81858  -0.97411
  Beta  occ. eigenvalues --   -0.97037  -0.89582  -0.83916  -0.81709  -0.75183
  Beta  occ. eigenvalues --   -0.70004  -0.65919  -0.63402  -0.59841  -0.56335
  Beta  occ. eigenvalues --   -0.52836  -0.50156  -0.49343  -0.46608  -0.43533
  Beta  occ. eigenvalues --   -0.42537  -0.40639  -0.38725  -0.37086  -0.36827
  Beta  occ. eigenvalues --   -0.36238  -0.34494  -0.34249  -0.32534  -0.32043
  Beta  occ. eigenvalues --   -0.31265  -0.29884  -0.27732  -0.25463  -0.23749
  Beta  occ. eigenvalues --   -0.23146  -0.20653  -0.19829  -0.19545  -0.19529
  Beta  occ. eigenvalues --   -0.18536  -0.13791  -0.10993
  Beta virt. eigenvalues --    0.06572   0.06879   0.06993   0.07540   0.08143
  Beta virt. eigenvalues --    0.08429   0.08758   0.10515   0.10753   0.11149
  Beta virt. eigenvalues --    0.11827   0.11879   0.12499   0.12536   0.13459

 Mulliken charges and spin densities:
               1          2
     1  C    1.191361  -1.509624
     2  O   -0.220903   0.066980
     3  C   -0.349282  -0.182382
     4  C   -1.313439   1.132569
     5  C    2.883048  -0.264033
     6  C   -0.615824  -1.285610
     7  C   -0.996132   0.076737
     8  C    1.033693  -0.827876
     9  N    0.002136   0.028693
    10  C    0.243543  -0.027841
    11  S   -0.638869   0.407893
    12  N   -0.206459  -0.079837
    13  C    0.382286  -0.088279
    14  O   -0.393276   0.008674
    15  N   -0.518349  -0.004379
    16  H   -0.614987   0.790480
    17  H   -0.262235   0.412786
    18  H   -0.340067   0.495473
    19  H   -0.097720   0.288075
    20  H   -0.527926   0.694297
    21  H   -0.386712   0.597852
    22  H    0.093891   0.248182
    23  H    0.359086   0.001162
    24  H    0.293136   0.020006
 Sum of Mulliken charges =  -1.00000   1.00000

 Dipole moment (field-independent basis, Debye):
    X=             -6.8577    Y=             -1.1399    Z=             -0.0154  Tot=              6.9518
 Quadrupole moment (field-independent basis, Debye-Ang):
   XX=           -219.2303   YY=           -124.7653   ZZ=           -114.0871
   XY=            -19.9546   XZ=              0.8039   YZ=              0.1712

 Summary of Natural Population Analysis:

                                       Natural Population
                Natural  -----------------------------------------------
    Atom  No    Charge         Core      Valence    Rydberg      Total
 -----------------------------------------------------------------------
      C    1   -0.10038      0.99960     2.09165    0.00913     3.10038
      O    2   -0.27383      0.99986     3.26381    0.01017     4.27383
      C    3    0.16316      0.99940     1.82336    0.01408     2.83684
      C    4   -0.12784      0.99946     2.11785    0.01054     3.12784
      C    5   -0.08271      0.99940     2.07237    0.01094     3.08271
      C    6    0.04983      0.99942     1.93742    0.01332     2.95017
      C    7   -0.08596      0.99953     2.07584    0.01059     3.08596
      C    8   -0.14394      0.99953     2.13567    0.00874     3.14394
      N    9   -0.28881      0.99960     2.77831    0.01089     3.78881
      C   10    0.16450      0.99961     1.81569    0.02020     2.83550
      S   11    0.18405      4.99946     2.79783    0.01865     7.81595
      N   12   -0.32467      0.99961     2.81529    0.00977     3.82467
      C   13    0.40289      0.99975     1.57355    0.02380     2.59711
      O   14   -0.33399      0.99988     3.32869    0.00542     4.33399
      N   15   -0.41528      0.99970     2.90902    0.00656     3.91528
      H   16    0.09474      0.00000     0.40350    0.00176     0.40526
      H   17    0.08509      0.00000     0.41297    0.00194     0.41491
      H   18    0.08668      0.00000     0.41096    0.00237     0.41332
      H   19    0.11006      0.00000     0.38838    0.00156     0.38994
      H   20    0.10545      0.00000     0.39258    0.00197     0.39455
      H   21    0.10989      0.00000     0.38806    0.00205     0.39011
      H   22    0.20884      0.00000     0.28873    0.00243     0.29116
      H   23    0.21730      0.00000     0.28070    0.00200     0.28270
      H   24    0.19492      0.00000     0.30392    0.00116     0.30508
 =======================================================================
   * Total *   -0.00000     18.99379    38.80616    0.20005    58.00000

 Normal termination of Gaussian 16 at Thu Dec 10 18:27:08 2020.
