 Gaussian 16, Revision A.03,

 -----------------------------------------------------------
 # opt freq B3LYP/6-31G(d) empiricaldispersion=gd3bj scf=xqc
 -----------------------------------------------------------

 -------------------------------
 CID_150503335_JID_7368_neutraal
 -------------------------------
 Symbolic Z-matrix:
 Charge =  0 Multiplicity = 1

 SCF Done:  E(RB3LYP) =  -762.383545562     A.U. after   16 cycles
 SCF Done:  E(RB3LYP) =  -762.386523095     A.U. after   14 cycles
 SCF Done:  E(RB3LYP) =  -762.388046278     A.U. after   14 cycles
 SCF Done:  E(RB3LYP) =  -762.388029282     A.U. after   13 cycles
 SCF Done:  E(RB3LYP) =  -762.388117851     A.U. after   13 cycles
 SCF Done:  E(RB3LYP) =  -762.388401043     A.U. after   12 cycles
 SCF Done:  E(RB3LYP) =  -762.388399340     A.U. after   10 cycles
 SCF Done:  E(RB3LYP) =  -762.388405022     A.U. after   10 cycles
 SCF Done:  E(RB3LYP) =  -762.388406285     A.U. after    8 cycles
 SCF Done:  E(RB3LYP) =  -762.388406904     A.U. after    8 cycles
 SCF Done:  E(RB3LYP) =  -762.388407401     A.U. after    8 cycles
 SCF Done:  E(RB3LYP) =  -762.388407619     A.U. after    8 cycles
 SCF Done:  E(RB3LYP) =  -762.388407699     A.U. after    8 cycles
 Optimization completed.
    -- Stationary point found.
 Normal termination of Gaussian 16 at Mon Dec 14 13:21:48 2020.

 --------------------------------------------------------------------
 #N Geom=AllCheck Guess=TCheck SCRF=Check GenChk RB3LYP/6-31G(d) Freq
 --------------------------------------------------------------------

 Structure from the checkpoint file:  "JID_7368.chk"
 -------------------------------
 CID_150503335_JID_7368_neutraal
 -------------------------------
 Charge =  0 Multiplicity = 1

 SCF Done:  E(RB3LYP) =  -762.388407699     A.U. after    1 cycles

  Exact polarizability: 141.361  -4.418 164.002  -3.391  10.363 121.305
 Approx polarizability: 194.717 -15.325 273.935 -10.006  37.246 195.198

                      1                      2                      3
                      A                      A                      A
 Frequencies --     46.5736                56.8312                99.7392
 Red. masses --      9.5161                 7.0547                 6.8398
 Frc consts  --      0.0122                 0.0134                 0.0401
 IR Inten    --      0.6733                 2.6825                 0.8726

                      4                      5                      6
                      A                      A                      A
 Frequencies --    121.5606               147.3264               167.6229
 Red. masses --      3.3140                 3.3814                 2.7189
 Frc consts  --      0.0289                 0.0432                 0.0450
 IR Inten    --      2.7780                 1.3751                 0.3752

                      7                      8                      9
                      A                      A                      A
 Frequencies --    191.2237               255.6645               258.6735
 Red. masses --      1.2359                 2.9931                 3.2012
 Frc consts  --      0.0266                 0.1153                 0.1262
 IR Inten    --      0.4430                 0.6039                 0.9137

                     10                     11                     12
                      A                      A                      A
 Frequencies --    274.6194               330.3509               339.5028
 Red. masses --      3.4589                 3.1784                 3.2690
 Frc consts  --      0.1537                 0.2044                 0.2220
 IR Inten    --      2.8265                 3.9231                 0.5379

                     13                     14                     15
                      A                      A                      A
 Frequencies --    380.5218               391.8447               402.0175
 Red. masses --      2.7804                 3.1897                 3.6437
 Frc consts  --      0.2372                 0.2886                 0.3470
 IR Inten    --      3.9341                 0.9734                 0.3292

                     16                     17                     18
                      A                      A                      A
 Frequencies --    410.3192               417.9524               453.0682
 Red. masses --      4.1489                 4.5383                 1.8542
 Frc consts  --      0.4116                 0.4671                 0.2242
 IR Inten    --      0.2798                 0.4730                 0.8620

                     19                     20                     21
                      A                      A                      A
 Frequencies --    483.0884               498.3769               542.8399
 Red. masses --      1.8713                 2.0141                 3.5894
 Frc consts  --      0.2573                 0.2947                 0.6232
 IR Inten    --      4.5842                 1.0407                12.1530

                     22                     23                     24
                      A                      A                      A
 Frequencies --    582.5778               596.8166               638.2852
 Red. masses --     13.3369                 1.8158                 2.5319
 Frc consts  --      2.6669                 0.3811                 0.6077
 IR Inten    --     10.4106                50.8271                28.8272

                     25                     26                     27
                      A                      A                      A
 Frequencies --    662.6219               687.7837               713.8887
 Red. masses --      3.9912                 5.0398                 5.1458
 Frc consts  --      1.0325                 1.4046                 1.5451
 IR Inten    --      0.7281                 7.9545                 7.5870

                     28                     29                     30
                      A                      A                      A
 Frequencies --    739.9432               787.1866               812.0860
 Red. masses --      4.7607                 4.2905                 3.5046
 Frc consts  --      1.5357                 1.5664                 1.3617
 IR Inten    --     19.5500                 6.0282                 0.5909

                     31                     32                     33
                      A                      A                      A
 Frequencies --    853.0844               872.3457               902.3914
 Red. masses --      2.6626                 3.5889                 1.5873
 Frc consts  --      1.1417                 1.6091                 0.7616
 IR Inten    --      5.1265                 2.3725                 0.1492

                     34                     35                     36
                      A                      A                      A
 Frequencies --    906.9214               911.6959               921.9448
 Red. masses --      1.6831                 1.5858                 3.5211
 Frc consts  --      0.8157                 0.7766                 1.7634
 IR Inten    --      1.9095                 0.3562                23.3862

                     37                     38                     39
                      A                      A                      A
 Frequencies --    969.3500               990.5568              1001.1611
 Red. masses --      2.0631                 2.1236                 2.1611
 Frc consts  --      1.1422                 1.2277                 1.2762
 IR Inten    --      4.5809                 1.6966                 0.3807

                     40                     41                     42
                      A                      A                      A
 Frequencies --   1007.3918              1022.0556              1055.2272
 Red. masses --      2.2779                 2.4413                 2.4871
 Frc consts  --      1.3620                 1.5025                 1.6317
 IR Inten    --      8.2816                 3.4036                38.0887

                     43                     44                     45
                      A                      A                      A
 Frequencies --   1061.2120              1067.6850              1076.4421
 Red. masses --      2.0238                 1.8569                 1.8900
 Frc consts  --      1.3429                 1.2472                 1.2903
 IR Inten    --      3.8198                 1.1459                 8.4693

                     46                     47                     48
                      A                      A                      A
 Frequencies --   1129.6383              1138.5922              1140.0750
 Red. masses --      2.0384                 1.3884                 1.6571
 Frc consts  --      1.5326                 1.0605                 1.2690
 IR Inten    --     12.3079                 3.4836                16.0724

                     49                     50                     51
                      A                      A                      A
 Frequencies --   1148.6059              1153.9367              1180.7579
 Red. masses --      1.1289                 1.2283                 1.7723
 Frc consts  --      0.8775                 0.9636                 1.4559
 IR Inten    --      6.5297                 7.7311                 5.2344

                     52                     53                     54
                      A                      A                      A
 Frequencies --   1202.7723              1207.5510              1268.2323
 Red. masses --      2.2136                 1.1193                 2.3196
 Frc consts  --      1.8867                 0.9616                 2.1981
 IR Inten    --      6.9413                 0.3361                 7.0279

                     55                     56                     57
                      A                      A                      A
 Frequencies --   1286.3638              1309.3138              1321.2376
 Red. masses --      1.5681                 1.5824                 5.0311
 Frc consts  --      1.5289                 1.5983                 5.1746
 IR Inten    --      7.8521                13.8648               117.2107

                     58                     59                     60
                      A                      A                      A
 Frequencies --   1330.6121              1331.6618              1335.0658
 Red. masses --      1.7485                 1.7089                 1.8034
 Frc consts  --      1.8239                 1.7855                 1.8939
 IR Inten    --     24.7564                 0.5097                 3.0915

                     61                     62                     63
                      A                      A                      A
 Frequencies --   1337.7698              1358.3932              1365.9425
 Red. masses --      1.4521                 1.6818                 1.4633
 Frc consts  --      1.5311                 1.8284                 1.6086
 IR Inten    --      1.0200                39.2013                 9.5627

                     64                     65                     66
                      A                      A                      A
 Frequencies --   1376.6441              1389.4758              1396.3141
 Red. masses --      2.0946                 2.1221                 1.5772
 Frc consts  --      2.3388                 2.4139                 1.8117
 IR Inten    --     78.8173                41.3938                 2.5776

                     67                     68                     69
                      A                      A                      A
 Frequencies --   1400.5425              1412.1603              1419.1324
 Red. masses --      1.5247                 1.4837                 1.4975
 Frc consts  --      1.7621                 1.7433                 1.7769
 IR Inten    --      2.1294                 2.5151                 1.3124

                     70                     71                     72
                      A                      A                      A
 Frequencies --   1492.7539              1499.3200              1506.0112
 Red. masses --      1.4049                 1.2556                 1.1253
 Frc consts  --      1.8444                 1.6630                 1.5038
 IR Inten    --      7.6420                18.2737                 2.4898

                     73                     74                     75
                      A                      A                      A
 Frequencies --   1510.3493              1518.1476              1521.2317
 Red. masses --      1.0902                 1.0912                 1.0995
 Frc consts  --      1.4653                 1.4817                 1.4991
 IR Inten    --      0.6775                 4.7945                14.4687

                     76                     77                     78
                      A                      A                      A
 Frequencies --   1524.6169              1531.0318              1549.3490
 Red. masses --      1.0943                 1.0753                 1.0916
 Frc consts  --      1.4986                 1.4851                 1.5439
 IR Inten    --      8.5899                 7.2337                 6.5578

                     79                     80                     81
                      A                      A                      A
 Frequencies --   1551.2160              1761.5595              2247.4447
 Red. masses --      1.0909                 7.5541                13.9636
 Frc consts  --      1.5466                13.8111                41.5552
 IR Inten    --     23.2047               262.9247               492.1572

                     82                     83                     84
                      A                      A                      A
 Frequencies --   3035.0529              3035.4077              3036.0601
 Red. masses --      1.0648                 1.0513                 1.0614
 Frc consts  --      5.7787                 5.7070                 5.7646
 IR Inten    --     15.1248                39.0802                22.4818

                     85                     86                     87
                      A                      A                      A
 Frequencies --   3050.0093              3050.1611              3059.9082
 Red. masses --      1.0699                 1.0708                 1.0764
 Frc consts  --      5.8638                 5.8694                 5.9380
 IR Inten    --     19.6613                16.3717                81.9775

                     88                     89                     90
                      A                      A                      A
 Frequencies --   3061.8137              3065.5719              3075.9410
 Red. masses --      1.0749                 1.0615                 1.0995
 Frc consts  --      5.9370                 5.8775                 6.1291
 IR Inten    --     62.4291                 8.5294                19.9287

                     91                     92                     93
                      A                      A                      A
 Frequencies --   3080.6044              3085.9723              3095.4002
 Red. masses --      1.0695                 1.1009                 1.1048
 Frc consts  --      5.9800                 6.1773                 6.2368
 IR Inten    --     43.0881                25.7462                40.4324

                     94                     95                     96
                      A                      A                      A
 Frequencies --   3106.0108              3115.4553              3118.0030
 Red. masses --      1.1034                 1.0895                 1.1036
 Frc consts  --      6.2718                 6.2307                 6.3213
 IR Inten    --     16.3669                37.7469                30.3752

                     97                     98                     99
                      A                      A                      A
 Frequencies --   3121.5999              3165.8680              3587.1823
 Red. masses --      1.0942                 1.0985                 1.0754
 Frc consts  --      6.2819                 6.4868                 8.1531
 IR Inten    --     26.4337                19.9828                22.1227

 - Thermochemistry -
 -------------------
 Temperature   298.150 Kelvin.  Pressure   1.00000 Atm.
 Atom     1 has atomic number  6 and mass  12.00000

 Molecular mass:   234.14806 amu.
 Principal axes and moments of inertia in atomic units:
                           1         2         3
     Eigenvalues --  2867.157703958.864565285.44361
           X            0.99521   0.09734   0.00914
           Y           -0.09749   0.99509   0.01724
           Z           -0.00742  -0.01805   0.99981
 This molecule is an asymmetric top.
 Rotational symmetry number  1.
 Warning -- assumption of classical behavior for rotation
           may cause significant error
 Rotational temperatures (Kelvin)      0.03021     0.02188     0.01639
 Rotational constants (GHZ):           0.62945     0.45587     0.34146
 Zero-point vibrational energy     796774.0 (Joules/Mol)
                                  190.43357 (Kcal/Mol)
 Warning -- explicit consideration of  23 degrees of freedom as
           vibrations may cause significant error
 Vibrational temperatures:     67.01    81.77   143.50   174.90   211.97
          (Kelvin)            241.17   275.13   367.84   372.17   395.12
                              475.30   488.47   547.49   563.78   578.41
                              590.36   601.34   651.86   695.06   717.05
                              781.03   838.20   858.69   918.35   953.37
                              989.57  1027.13  1064.61  1132.59  1168.41
                             1227.40  1255.11  1298.34  1304.86  1311.73
                             1326.47  1394.68  1425.19  1440.45  1449.41
                             1470.51  1518.24  1526.85  1536.16  1548.76
                             1625.30  1638.18  1640.31  1652.59  1660.26
                             1698.85  1730.52  1737.40  1824.70  1850.79
                             1883.81  1900.97  1914.45  1915.96  1920.86
                             1924.75  1954.42  1965.29  1980.68  1999.15
                             2008.98  2015.07  2031.78  2041.82  2147.74
                             2157.19  2166.81  2173.06  2184.28  2188.71
                             2193.58  2202.81  2229.17  2231.85  2534.49
                             3233.57  4366.76  4367.27  4368.21  4388.28
                             4388.50  4402.53  4405.27  4410.67  4425.59
                             4432.30  4440.03  4453.59  4468.86  4482.45
                             4486.11  4491.29  4554.98  5161.16

 Zero-point correction=                           0.303475 (Hartree/Particle)
 Thermal correction to Energy=                    0.317924
 Thermal correction to Enthalpy=                  0.318868
 Thermal correction to Gibbs Free Energy=         0.262554
 Sum of electronic and zero-point Energies=           -762.084932
 Sum of electronic and thermal Energies=              -762.070484
 Sum of electronic and thermal Enthalpies=            -762.069540
 Sum of electronic and thermal Free Energies=         -762.125853

                     E (Thermal)             CV                S
                      KCal/Mol        Cal/Mol-Kelvin    Cal/Mol-Kelvin
 Total                  199.500             58.724            118.522
 Electronic               0.000              0.000              0.000
 Translational            0.889              2.981             42.254
 Rotational               0.889              2.981             32.462
 Vibrational            197.723             52.763             43.806
 Vibration     1          0.595              1.979              4.958
 Vibration     2          0.596              1.975              4.564
 Vibration     3          0.604              1.949              3.459
 Vibration     4          0.609              1.931              3.075
 Vibration     5          0.617              1.906              2.706
 Vibration     6          0.624              1.882              2.462
 Vibration     7          0.634              1.852              2.216
 Vibration     8          0.666              1.753              1.691
 Vibration     9          0.667              1.748              1.671
 Vibration    10          0.677              1.720              1.567
 Vibration    11          0.713              1.615              1.258
 Vibration    12          0.719              1.597              1.214
 Vibration    13          0.750              1.512              1.037
 Vibration    14          0.759              1.488              0.993
 Vibration    15          0.768              1.466              0.955
 Vibration    16          0.774              1.448              0.925
 Vibration    17          0.781              1.431              0.899
 Vibration    18          0.812              1.354              0.787
 Vibration    19          0.839              1.288              0.702
 Vibration    20          0.854              1.254              0.662
 Vibration    21          0.898              1.155              0.559
 Vibration    22          0.939              1.069              0.481
 Vibration    23          0.955              1.039              0.455

                           ! Non-Optimized Parameters !
 Normal termination of Gaussian 16 at Mon Dec 14 13:38:12 2020.

 ----------------------------------------------------------------------
 # B3LYP/6-311++G(d,p) empiricaldispersion=gd3bj scf=xqc pop=npa geom=c
 heck
 ----------------------------------------------------------------------

 ---------------------------------------
 CID_150503335_JID_7368_Energie_neutraal
 ---------------------------------------
 Structure from the checkpoint file:  "JID_7368.chk"
 Charge =  0 Multiplicity = 1

 SCF Done:  E(RB3LYP) =  -762.595846602     A.U. after   16 cycles
 Normal termination of Gaussian 16 at Mon Dec 14 13:46:27 2020.

 ----------------------------------------------------------------------
 # B3LYP/6-311++G(d,p) empiricaldispersion=gd3bj scf=xqc pop=npa geom=c
 heck
 ----------------------------------------------------------------------

 -------------------------------------
 CID_150503335_JID_7368_Energie_kation
 -------------------------------------
 Structure from the checkpoint file:  "JID_7368.chk"
 Charge =  1 Multiplicity = 2

 SCF Done:  E(UB3LYP) =  -762.281104030     A.U. after   33 cycles
 SCF Done:  E(UB3LYP) =  -762.281104030     a.u. after    1 cycles
 Normal termination of Gaussian 16 at Mon Dec 14 14:10:42 2020.
 Gaussian 16:  ES64L-G16RevA.03 25-Dec-2016

 ----------------------------------------------------------------------
 # B3LYP/6-311++G(d,p) empiricaldispersion=gd3bj scf=xqc pop=npa geom=c
 heck
 ----------------------------------------------------------------------

 ------------------------------------
 CID_150503335_JID_7368_Energie_anion
 ------------------------------------
 Structure from the checkpoint file:  "JID_7368.chk"
 Charge = -1 Multiplicity = 2

                         Standard orientation:
 ---------------------------------------------------------------------
 Center     Atomic      Atomic             Coordinates (Angstroms)
 Number     Number       Type             X           Y           Z
 ---------------------------------------------------------------------
      1          6           0        2.276295    2.364685    1.019082
      2          7           0        2.784344    1.523885   -0.052147
      3          6           0        2.400405    0.291565   -0.528433
      4          8           0        3.149184   -0.294945   -1.304457
      5          6           0        1.034397   -0.308318   -0.146384
      6          6           0        0.880550   -0.519480    1.381272
      7          6           0       -0.486192   -1.157901    1.691751
      8          6           0       -0.597726   -2.524119    0.996129
      9          6           0       -0.456190   -2.326495   -0.522683
     10          6           0        0.906652   -1.687616   -0.835347
     11          6           0       -1.587376   -1.414628   -1.029758
     12          6           0       -1.477835   -0.051227   -0.339623
     13          6           0       -1.607528   -0.231443    1.183973
     14          6           0       -0.116849    0.588047   -0.671750
     15          7           0       -2.594179    0.787470   -0.877789
     16          7           0       -2.658898    1.932987   -0.425739
     17          7           0       -2.810761    3.011499   -0.075667
     18          1           0        1.189868    2.449551    0.985358
     19          1           0        2.685191    3.369770    0.883560
     20          1           0        2.566677    2.009584    2.017078
     21          1           0        3.713200    1.749747   -0.387351
     22          1           0        1.690183   -1.168099    1.738698
     23          1           0        0.963128    0.424112    1.926710
     24          1           0       -0.585737   -1.281156    2.777167
     25          1           0       -1.562830   -2.990718    1.232884
     26          1           0        0.187114   -3.197460    1.363489
     27          1           0       -0.522856   -3.295972   -1.030566
     28          1           0        1.038443   -1.564718   -1.914355
     29          1           0        1.721387   -2.336415   -0.498149
     30          1           0       -1.519746   -1.276490   -2.115190
     31          1           0       -2.569900   -1.851989   -0.815784
     32          1           0       -2.592507   -0.654734    1.413454
     33          1           0       -1.547967    0.746527    1.680863
     34          1           0       -0.076491    1.591103   -0.234938
     35          1           0       -0.025782    0.707620   -1.757266
 ---------------------------------------------------------------------

 SCF Done:  E(UB3LYP) =  -762.590853425     A.U. after   32 cycles

 The electronic state is 2-A.
 Alpha  occ. eigenvalues --  -18.98990 -14.35820 -14.25868 -14.24352 -14.24127
 Alpha  occ. eigenvalues --  -10.17502 -10.12387 -10.11327 -10.09824 -10.07965
 Alpha  occ. eigenvalues --  -10.07894 -10.07709 -10.07377 -10.07196 -10.06837
 Alpha  occ. eigenvalues --  -10.06711 -10.06421  -1.02344  -0.94247  -0.86795
 Alpha  occ. eigenvalues --   -0.82268  -0.78288  -0.69247  -0.68609  -0.67873
 Alpha  occ. eigenvalues --   -0.61842  -0.58396  -0.57937  -0.53673  -0.52883
 Alpha  occ. eigenvalues --   -0.49889  -0.47200  -0.43722  -0.41206  -0.40116
 Alpha  occ. eigenvalues --   -0.39975  -0.39483  -0.37587  -0.36692  -0.36282
 Alpha  occ. eigenvalues --   -0.36005  -0.35729  -0.34169  -0.33106  -0.32648
 Alpha  occ. eigenvalues --   -0.31663  -0.31173  -0.31045  -0.30455  -0.29673
 Alpha  occ. eigenvalues --   -0.28126  -0.25044  -0.24656  -0.24284  -0.23888
 Alpha  occ. eigenvalues --   -0.23850  -0.22228  -0.20838  -0.19852  -0.18522
 Alpha  occ. eigenvalues --   -0.16301  -0.15740  -0.14198   0.03856
 Alpha virt. eigenvalues --    0.05680   0.06390   0.07393   0.08276   0.08615
 Alpha virt. eigenvalues --    0.09348   0.09520   0.10333   0.10415   0.10494
 Alpha virt. eigenvalues --    0.11364   0.11769   0.12146   0.12744   0.13011

  Beta  occ. eigenvalues --  -18.98983 -14.35649 -14.25597 -14.24396 -14.24114
  Beta  occ. eigenvalues --  -10.17495 -10.12339 -10.11281 -10.09823 -10.07954
  Beta  occ. eigenvalues --  -10.07887 -10.07705 -10.07355 -10.07184 -10.06824
  Beta  occ. eigenvalues --  -10.06692 -10.06415  -1.01993  -0.94231  -0.86619
  Beta  occ. eigenvalues --   -0.82239  -0.78241  -0.69203  -0.68549  -0.67841
  Beta  occ. eigenvalues --   -0.61767  -0.58357  -0.57906  -0.53628  -0.52769
  Beta  occ. eigenvalues --   -0.49847  -0.47150  -0.43636  -0.41131  -0.40025
  Beta  occ. eigenvalues --   -0.39481  -0.39186  -0.37514  -0.36656  -0.36226
  Beta  occ. eigenvalues --   -0.35922  -0.35676  -0.33668  -0.33062  -0.32586
  Beta  occ. eigenvalues --   -0.31625  -0.31110  -0.30950  -0.30403  -0.29634
  Beta  occ. eigenvalues --   -0.28090  -0.24945  -0.24603  -0.24250  -0.23867
  Beta  occ. eigenvalues --   -0.23825  -0.22177  -0.20791  -0.19747  -0.18254
  Beta  occ. eigenvalues --   -0.16266  -0.15705  -0.14132
  Beta virt. eigenvalues --    0.06184   0.06854   0.07766   0.08200   0.08756
  Beta virt. eigenvalues --    0.09033   0.09610   0.09913   0.10472   0.10624
  Beta virt. eigenvalues --    0.10775   0.11675   0.11982   0.12332   0.12955

 Mulliken charges and spin densities:
               1          2
     1  C    0.647721  -1.036554
     2  N   -0.435626   0.180111
     3  C    0.583286  -0.399315
     4  O   -0.309726   0.000336
     5  C    0.040461   0.360816
     6  C    0.401997  -1.080656
     7  C   -0.306666   0.791837
     8  C    0.722723  -1.547487
     9  C   -0.229536   0.741196
    10  C   -0.334114  -0.494609
    11  C    0.156580  -0.546855
    12  C   -0.692809   0.169378
    13  C    0.233043  -0.841623
    14  C   -0.765998   0.244469
    15  N   -0.122394   0.184737
    16  N    0.406169   0.045529
    17  N   -0.158687  -0.052556
    18  H    0.339950  -0.164020
    19  H   -0.564359   0.717104
    20  H   -0.411422   0.594928
    21  H    0.077254   0.257116
    22  H   -0.136066   0.353764
    23  H    0.386239  -0.268205
    24  H   -0.612136   0.862224
    25  H   -0.128102   0.280114
    26  H   -0.006962   0.147655
    27  H   -0.106093   0.342814
    28  H    0.177499   0.019297
    29  H    0.113781   0.088693
    30  H    0.100380   0.072512
    31  H   -0.069305   0.259292
    32  H    0.010087   0.188659
    33  H    0.015816   0.151320
    34  H   -0.090098   0.222503
    35  H    0.067114   0.155479
 Sum of Mulliken charges =  -1.00000   1.00000

 Dipole moment (field-independent basis, Debye):
    X=             -1.0700    Y=             -1.5625    Z=             -1.7340  Tot=              2.5676
 Quadrupole moment (field-independent basis, Debye-Ang):
   XX=           -165.6681   YY=           -154.5862   ZZ=           -142.9372
   XY=             -1.0647   XZ=             -0.8228   YZ=              0.6640

 Summary of Natural Population Analysis:

                                       Natural Population
                Natural  -----------------------------------------------
    Atom  No    Charge         Core      Valence    Rydberg      Total
 -----------------------------------------------------------------------
      C    1   -0.17899      0.99964     2.17129    0.00806     3.17899
      N    2   -0.31858      0.99967     2.80826    0.01065     3.81858
      C    3    0.35391      0.99959     1.62164    0.02487     2.64609
      O    4   -0.32543      0.99988     3.32024    0.00532     4.32543
      C    5   -0.07007      0.99951     2.05894    0.01162     3.07007
      C    6   -0.18796      0.99958     2.17780    0.01058     3.18796
      C    7   -0.10947      0.99959     2.09702    0.01285     3.10947
      C    8   -0.18680      0.99960     2.17746    0.00974     3.18680
      C    9   -0.11137      0.99959     2.10013    0.01166     3.11137
      C   10   -0.18579      0.99960     2.17641    0.00979     3.18579
      C   11   -0.18916      0.99956     2.17827    0.01133     3.18916
      C   12    0.06506      0.99948     1.92085    0.01461     2.93494
      C   13   -0.19582      0.99956     2.18543    0.01082     3.19582
      C   14   -0.19438      0.99955     2.18459    0.01025     3.19438
      N   15   -0.19868      0.99967     2.68416    0.01484     3.69868
      N   16    0.12832      0.99969     2.35571    0.01628     3.37168
      N   17   -0.02872      0.99982     2.51573    0.01318     3.52872
      H   18    0.09667      0.00000     0.40177    0.00157     0.40333
      H   19    0.10114      0.00000     0.39741    0.00145     0.39886
      H   20    0.09413      0.00000     0.40411    0.00176     0.40587
      H   21    0.19296      0.00000     0.30450    0.00254     0.30704
      H   22    0.10389      0.00000     0.39474    0.00138     0.39611
      H   23    0.10312      0.00000     0.39508    0.00180     0.39688
      H   24    0.10387      0.00000     0.39404    0.00209     0.39613
      H   25    0.09980      0.00000     0.39902    0.00118     0.40020
      H   26    0.10010      0.00000     0.39880    0.00110     0.39990
      H   27    0.10059      0.00000     0.39808    0.00132     0.39941
      H   28    0.10760      0.00000     0.39142    0.00098     0.39240
      H   29    0.10671      0.00000     0.39230    0.00099     0.39329
      H   30    0.10341      0.00000     0.39533    0.00126     0.39659
      H   31    0.10421      0.00000     0.39437    0.00141     0.39579
      H   32    0.10542      0.00000     0.39330    0.00128     0.39458
      H   33    0.10125      0.00000     0.39742    0.00132     0.39875
      H   34    0.10158      0.00000     0.39651    0.00192     0.39842
      H   35    0.10749      0.00000     0.39135    0.00116     0.39251
 =======================================================================
   * Total *   -0.00000     16.99359    45.77347    0.23294    63.00000

 Normal termination of Gaussian 16 at Mon Dec 14 14:33:05 2020.
