 Gaussian 16, Revision A.03,

 -----------------------------------------------------------
 # opt freq B3LYP/6-31G(d) empiricaldispersion=gd3bj scf=xqc
 -----------------------------------------------------------

 ----------------------------
 CID_262392_JID_1374_neutraal
 ----------------------------
 Symbolic Z-matrix:
 Charge =  0 Multiplicity = 1

 SCF Done:  E(RB3LYP) =  -871.771887193     A.U. after   16 cycles
 SCF Done:  E(RB3LYP) =  -871.784218167     A.U. after   13 cycles
 SCF Done:  E(RB3LYP) =  -871.785293039     A.U. after   12 cycles
 SCF Done:  E(RB3LYP) =  -871.785496159     A.U. after   12 cycles
 SCF Done:  E(RB3LYP) =  -871.785486091     A.U. after   12 cycles
 SCF Done:  E(RB3LYP) =  -871.785567694     A.U. after   11 cycles
 SCF Done:  E(RB3LYP) =  -871.785571575     A.U. after    9 cycles
 SCF Done:  E(RB3LYP) =  -871.785571951     A.U. after    8 cycles
 Optimization completed.
    -- Stationary point found.
 Normal termination of Gaussian 16 at Tue Dec  8 19:51:13 2020.

 --------------------------------------------------------------------
 #N Geom=AllCheck Guess=TCheck SCRF=Check GenChk RB3LYP/6-31G(d) Freq
 --------------------------------------------------------------------

 Structure from the checkpoint file:  "JID_1374.chk"
 ----------------------------
 CID_262392_JID_1374_neutraal
 ----------------------------
 Charge =  0 Multiplicity = 1

 SCF Done:  E(RB3LYP) =  -871.785571951     A.U. after    1 cycles

  Exact polarizability: 127.083  -1.183 135.498   0.816   1.599  51.536
 Approx polarizability: 192.935   6.781 234.705   0.079   4.357  79.765

                      1                      2                      3
                      A                      A                      A
 Frequencies --     70.7811                84.5764               119.2846
 Red. masses --      2.4779                 4.5422                 1.3818
 Frc consts  --      0.0073                 0.0191                 0.0116
 IR Inten    --      0.8985                 8.6369                 1.6574

                      4                      5                      6
                      A                      A                      A
 Frequencies --    165.9199               202.3184               219.7653
 Red. masses --      3.4009                 1.3180                 2.7294
 Frc consts  --      0.0552                 0.0318                 0.0777
 IR Inten    --      0.9756                 0.3755                 3.3185

                      7                      8                      9
                      A                      A                      A
 Frequencies --    297.6918               313.4660               354.2153
 Red. masses --      4.4552                 6.8530                 3.5815
 Frc consts  --      0.2326                 0.3967                 0.2648
 IR Inten    --      2.8005                 3.3837                 4.7772

                     10                     11                     12
                      A                      A                      A
 Frequencies --    370.2038               417.9381               440.1823
 Red. masses --      1.4180                 4.3862                 4.5760
 Frc consts  --      0.1145                 0.4514                 0.5224
 IR Inten    --     37.4334                 7.4641                16.8407

                     13                     14                     15
                      A                      A                      A
 Frequencies --    446.5953               466.6785               561.2452
 Red. masses --      4.7425                 2.3115                 7.9616
 Frc consts  --      0.5573                 0.2966                 1.4776
 IR Inten    --     11.0322                27.4882                 2.9304

                     16                     17                     18
                      A                      A                      A
 Frequencies --    606.3039               635.2479               648.4772
 Red. masses --      2.4715                 2.5902                 3.9453
 Frc consts  --      0.5353                 0.6158                 0.9775
 IR Inten    --    110.7688                79.4848                 2.5026

                     19                     20                     21
                      A                      A                      A
 Frequencies --    699.8444               714.8802               736.3138
 Red. masses --      3.0850                 3.6855                 3.7378
 Frc consts  --      0.8902                 1.1097                 1.1940
 IR Inten    --     46.5495                 3.3646                69.3301

                     22                     23                     24
                      A                      A                      A
 Frequencies --    792.0538               876.2662               925.7312
 Red. masses --      1.9202                 3.3551                 4.1530
 Frc consts  --      0.7098                 1.5178                 2.0969
 IR Inten    --     90.4133                 8.9209                 0.4849

                     25                     26                     27
                      A                      A                      A
 Frequencies --   1068.3731              1137.0992              1140.1861
 Red. masses --      3.0655                 1.3167                 1.8824
 Frc consts  --      2.0616                 1.0031                 1.4418
 IR Inten    --      0.5925                63.9561               121.1605

                     28                     29                     30
                      A                      A                      A
 Frequencies --   1159.5193              1167.1952              1203.3310
 Red. masses --      1.3307                 1.2969                 2.3925
 Frc consts  --      1.0541                 1.0410                 2.0412
 IR Inten    --     14.6797                 0.2196                19.1737

                     31                     32                     33
                      A                      A                      A
 Frequencies --   1248.7766              1253.7818              1306.9013
 Red. masses --      2.5922                 4.0133                 3.7234
 Frc consts  --      2.3817                 3.7170                 3.7469
 IR Inten    --     22.3863                 2.4637                63.4207

                     34                     35                     36
                      A                      A                      A
 Frequencies --   1354.8684              1394.9838              1469.3244
 Red. masses --      2.7365                 3.4130                 1.4464
 Frc consts  --      2.9597                 3.9131                 1.8398
 IR Inten    --    250.2390                31.5882               139.9955

                     37                     38                     39
                      A                      A                      A
 Frequencies --   1480.7027              1507.9233              1521.2063
 Red. masses --      1.4795                 1.8977                 1.0588
 Frc consts  --      1.9112                 2.5423                 1.4436
 IR Inten    --     61.2390               141.0786                39.5494

                     40                     41                     42
                      A                      A                      A
 Frequencies --   1522.2410              1523.6811              1546.3404
 Red. masses --      1.0482                 1.0559                 1.3011
 Frc consts  --      1.4310                 1.4443                 1.8330
 IR Inten    --     18.6681                16.7906               202.9200

                     43                     44                     45
                      A                      A                      A
 Frequencies --   1668.7956              1717.3328              1789.7557
 Red. masses --      1.8449                 2.1088                10.7370
 Frc consts  --      3.0271                 3.6644                20.2637
 IR Inten    --     94.3803               255.8520               546.3788

                     46                     47                     48
                      A                      A                      A
 Frequencies --   3066.3697              3090.9969              3154.2697
 Red. masses --      1.0450                 1.0337                 1.0941
 Frc consts  --      5.7891                 5.8191                 6.4136
 IR Inten    --     30.1548                12.3887                 9.1037

                     49                     50                     51
                      A                      A                      A
 Frequencies --   3157.0231              3202.5928              3213.2876
 Red. masses --      1.1053                 1.1021                 1.1028
 Frc consts  --      6.4908                 6.6600                 6.7086
 IR Inten    --     11.3602                 0.2699                 2.4848

                     52                     53                     54
                      A                      A                      A
 Frequencies --   3248.4108              3557.4743              3654.8410
 Red. masses --      1.0926                 1.0485                 1.0984
 Frc consts  --      6.7928                 7.8178                 8.6446
 IR Inten    --      1.1673                30.4705                18.2412

 - Thermochemistry -
 -------------------
 Temperature   298.150 Kelvin.  Pressure   1.00000 Atm.
 Atom     1 has atomic number  6 and mass  12.00000

 Molecular mass:   171.04663 amu.
 Principal axes and moments of inertia in atomic units:
                           1         2         3
     Eigenvalues --  1608.010061641.832473216.53201
           X            0.92582   0.37795   0.00336
           Y           -0.37794   0.92582  -0.00457
           Z           -0.00484   0.00296   0.99998
 This molecule is an asymmetric top.
 Rotational symmetry number  1.
 Warning -- assumption of classical behavior for rotation
           may cause significant error
 Rotational temperatures (Kelvin)      0.05386     0.05275     0.02693
 Rotational constants (GHZ):           1.12234     1.09922     0.56108
 Zero-point vibrational energy     416860.1 (Joules/Mol)
                                   99.63195 (Kcal/Mol)
 Warning -- explicit consideration of  16 degrees of freedom as
           vibrations may cause significant error
 Vibrational temperatures:    101.84   121.69   171.62   238.72   291.09
          (Kelvin)            316.19   428.31   451.01   509.64   532.64
                              601.32   633.32   642.55   671.45   807.51
                              872.34   913.98   933.01  1006.92  1028.55
                             1059.39  1139.59  1260.75  1331.92  1537.15
                             1636.03  1640.47  1668.29  1679.33  1731.32
                             1796.71  1803.91  1880.34  1949.35  2007.07
                             2114.03  2130.40  2169.57  2188.68  2190.17
                             2192.24  2224.84  2401.02  2470.86  2575.06
                             4411.82  4447.26  4538.29  4542.25  4607.82
                             4623.20  4673.74  5118.41  5258.50

 Zero-point correction=                           0.158774 (Hartree/Particle)
 Thermal correction to Energy=                    0.169512
 Thermal correction to Enthalpy=                  0.170456
 Thermal correction to Gibbs Free Energy=         0.122317
 Sum of electronic and zero-point Energies=           -871.626798
 Sum of electronic and thermal Energies=              -871.616060
 Sum of electronic and thermal Enthalpies=            -871.615116
 Sum of electronic and thermal Free Energies=         -871.663255

                     E (Thermal)             CV                S
                      KCal/Mol        Cal/Mol-Kelvin    Cal/Mol-Kelvin
 Total                  106.370             40.166            101.316
 Electronic               0.000              0.000              0.000
 Translational            0.889              2.981             41.318
 Rotational               0.889              2.981             30.519
 Vibrational            104.593             34.204             29.479
 Vibration     1          0.598              1.968              4.132
 Vibration     2          0.601              1.960              3.782
 Vibration     3          0.609              1.933              3.112
 Vibration     4          0.624              1.884              2.481
 Vibration     5          0.639              1.837              2.112
 Vibration     6          0.647              1.811              1.961
 Vibration     7          0.691              1.678              1.430
 Vibration     8          0.701              1.648              1.344
 Vibration     9          0.730              1.567              1.147
 Vibration    10          0.742              1.533              1.079
 Vibration    11          0.781              1.431              0.899
 Vibration    12          0.800              1.383              0.826
 Vibration    13          0.806              1.368              0.806
 Vibration    14          0.824              1.324              0.747
 Vibration    15          0.917              1.115              0.521
 Vibration    16          0.965              1.018              0.439

                           ! Non-Optimized Parameters !
 Normal termination of Gaussian 16 at Tue Dec  8 19:55:33 2020.

 ----------------------------------------------------------------------
 # B3LYP/6-311++G(d,p) empiricaldispersion=gd3bj scf=xqc pop=npa geom=c
 heck
 ----------------------------------------------------------------------

 ------------------------------------
 CID_262392_JID_1374_Energie_neutraal
 ------------------------------------
 Structure from the checkpoint file:  "JID_1374.chk"
 Charge =  0 Multiplicity = 1

 SCF Done:  E(RB3LYP) =  -871.950427460     A.U. after   15 cycles
 Normal termination of Gaussian 16 at Tue Dec  8 19:57:08 2020.

 ----------------------------------------------------------------------
 # B3LYP/6-311++G(d,p) empiricaldispersion=gd3bj scf=xqc pop=npa geom=c
 heck
 ----------------------------------------------------------------------

 ----------------------------------
 CID_262392_JID_1374_Energie_kation
 ----------------------------------
 Structure from the checkpoint file:  "JID_1374.chk"
 Charge =  1 Multiplicity = 2

 SCF Done:  E(UB3LYP) =  -871.653033793     A.U. after   33 cycles
 SCF Done:  E(UB3LYP) =  -871.653033793     a.u. after    2 cycles
 Normal termination of Gaussian 16 at Tue Dec  8 20:08:23 2020.
 Gaussian 16:  ES64L-G16RevA.03 25-Dec-2016

 ----------------------------------------------------------------------
 # B3LYP/6-311++G(d,p) empiricaldispersion=gd3bj scf=xqc pop=npa geom=c
 heck
 ----------------------------------------------------------------------

 ---------------------------------
 CID_262392_JID_1374_Energie_anion
 ---------------------------------
 Structure from the checkpoint file:  "JID_1374.chk"
 Charge = -1 Multiplicity = 2

                         Standard orientation:
 ---------------------------------------------------------------------
 Center     Atomic      Atomic             Coordinates (Angstroms)
 Number     Number       Type             X           Y           Z
 ---------------------------------------------------------------------
      1          6           0       -1.928431   -1.671289    0.196144
      2          7           0       -1.015251   -0.531669    0.054285
      3          6           0       -1.538093    0.748457   -0.032961
      4          6           0       -0.721419    1.838347   -0.042773
      5          6           0        0.700865    1.704031    0.032062
      6          8           0        1.497016    2.632628    0.063312
      7          7           0        1.167238    0.345260    0.023816
      8          6           0        0.361525   -0.763226   -0.000557
      9         16           0        0.983123   -2.319441   -0.091093
     10          6           0        2.621106    0.157975    0.005806
     11          7           0       -2.918631    0.854629   -0.043652
     12          1           0       -1.404157   -2.468925    0.716656
     13          1           0       -2.240072   -2.053942   -0.782399
     14          1           0       -2.794336   -1.351400    0.776279
     15          1           0       -1.124142    2.839167   -0.125233
     16          1           0        2.916219   -0.364347   -0.906851
     17          1           0        3.064287    1.149973    0.048842
     18          1           0        2.925519   -0.446951    0.862061
     19          1           0       -3.239691    1.800233   -0.210700
     20          1           0       -3.416532    0.182907   -0.615147
 ---------------------------------------------------------------------

 SCF Done:  E(UB3LYP) =  -871.950568231     A.U. after   31 cycles

 The electronic state is 2-A.
 Alpha  occ. eigenvalues --  -88.68765 -18.98263 -14.28045 -14.26430 -14.22579
 Alpha  occ. eigenvalues --  -10.18173 -10.17087 -10.16308 -10.10241 -10.09635
 Alpha  occ. eigenvalues --  -10.05524  -7.77582  -5.73990  -5.73450  -5.73073
 Alpha  occ. eigenvalues --   -0.94370  -0.91073  -0.84934  -0.80342  -0.69123
 Alpha  occ. eigenvalues --   -0.65568  -0.60546  -0.59989  -0.53297  -0.51136
 Alpha  occ. eigenvalues --   -0.46833  -0.42471  -0.40067  -0.39246  -0.37957
 Alpha  occ. eigenvalues --   -0.35306  -0.34771  -0.33102  -0.31806  -0.30689
 Alpha  occ. eigenvalues --   -0.29892  -0.29682  -0.26854  -0.26402  -0.24669
 Alpha  occ. eigenvalues --   -0.17182  -0.16446  -0.14156  -0.11306  -0.11099
 Alpha  occ. eigenvalues --    0.04160
 Alpha virt. eigenvalues --    0.06494   0.08159   0.08596   0.08749   0.10104
 Alpha virt. eigenvalues --    0.10790   0.11664   0.12124   0.12439   0.13659
 Alpha virt. eigenvalues --    0.14036   0.14969   0.15505   0.16400   0.17316

  Beta  occ. eigenvalues --  -88.68754 -18.98267 -14.28078 -14.26356 -14.22463
  Beta  occ. eigenvalues --  -10.17996 -10.17090 -10.16211 -10.10200 -10.09639
  Beta  occ. eigenvalues --  -10.05477  -7.77572  -5.73990  -5.73414  -5.73065
  Beta  occ. eigenvalues --   -0.94316  -0.90997  -0.84788  -0.80224  -0.68995
  Beta  occ. eigenvalues --   -0.65393  -0.60471  -0.59907  -0.53156  -0.51051
  Beta  occ. eigenvalues --   -0.46716  -0.42384  -0.39899  -0.39053  -0.37778
  Beta  occ. eigenvalues --   -0.35220  -0.34745  -0.33035  -0.31763  -0.30602
  Beta  occ. eigenvalues --   -0.29802  -0.29628  -0.26706  -0.26281  -0.24211
  Beta  occ. eigenvalues --   -0.17019  -0.16425  -0.13899  -0.11154  -0.10985
  Beta virt. eigenvalues --    0.07637   0.07707   0.08674   0.09060   0.09187
  Beta virt. eigenvalues --    0.10902   0.11370   0.11835   0.12205   0.12453
  Beta virt. eigenvalues --    0.13998   0.14675   0.14973   0.15786   0.16512

 Mulliken charges and spin densities:
               1          2
     1  C    0.687595  -1.039982
     2  N    0.032659   0.030241
     3  C    0.952613  -1.032981
     4  C   -0.083091   0.459147
     5  C    0.129030  -0.311413
     6  O   -0.373990   0.003889
     7  N    0.043371   0.030006
     8  C   -0.109381  -0.008736
     9  S   -0.609903  -0.038721
    10  C   -0.179968  -0.018006
    11  N   -0.318250   0.004799
    12  H    0.077126   0.055526
    13  H   -0.329166   0.547323
    14  H   -0.046611   0.213194
    15  H   -0.090693   0.279626
    16  H    0.137251   0.015999
    17  H    0.180147  -0.009033
    18  H    0.134118   0.015890
    19  H   -0.541534   0.825370
    20  H   -0.691327   0.977863
 Sum of Mulliken charges =  -1.00000   1.00000

 Dipole moment (field-independent basis, Debye):
    X=              7.0794    Y=             -1.7505    Z=              2.6445  Tot=              7.7573
 Quadrupole moment (field-independent basis, Debye-Ang):
   XX=           -135.9420   YY=           -116.9839   ZZ=            -92.1350
   XY=              4.4989   XZ=            -10.5547   YZ=              0.4914

 Summary of Natural Population Analysis:

                                       Natural Population
                Natural  -----------------------------------------------
    Atom  No    Charge         Core      Valence    Rydberg      Total
 -----------------------------------------------------------------------
      C    1   -0.18455      0.99963     2.17643    0.00849     3.18455
      N    2   -0.23834      0.99958     2.72742    0.01134     3.73834
      C    3    0.24045      0.99949     1.74648    0.01358     2.75955
      C    4   -0.20603      0.99947     2.19601    0.01055     3.20603
      C    5    0.32536      0.99961     1.65198    0.02306     2.67464
      O    6   -0.33051      0.99988     3.32512    0.00551     4.33051
      N    7   -0.23868      0.99959     2.72955    0.00954     3.73868
      C    8    0.18459      0.99962     1.79693    0.01885     2.81541
      S    9   -0.13334      4.99959     3.12129    0.01246     8.13334
      C   10   -0.18305      0.99964     2.17652    0.00688     3.18305
      N   11   -0.39333      0.99971     2.88333    0.01029     3.89333
      H   12    0.11614      0.00000     0.38271    0.00115     0.38386
      H   13    0.10308      0.00000     0.39552    0.00140     0.39692
      H   14    0.10568      0.00000     0.39304    0.00128     0.39432
      H   15    0.11287      0.00000     0.38609    0.00105     0.38713
      H   16    0.10144      0.00000     0.39722    0.00133     0.39856
      H   17    0.11291      0.00000     0.38594    0.00115     0.38709
      H   18    0.10096      0.00000     0.39771    0.00132     0.39904
      H   19    0.19872      0.00000     0.29223    0.00905     0.30128
      H   20    0.20564      0.00000     0.25907    0.03529     0.29436
 =======================================================================
   * Total *   -0.00000     14.99582    29.82060    0.18358    45.00000

 Normal termination of Gaussian 16 at Tue Dec  8 20:20:12 2020.
