 Gaussian 16, Revision A.03,

 -----------------------------------------------------------
 # opt freq B3LYP/6-31G(d) empiricaldispersion=gd3bj scf=xqc
 -----------------------------------------------------------

 -------------------------------
 CID_105422902_JID_4048_neutraal
 -------------------------------
 Symbolic Z-matrix:
 Charge =  0 Multiplicity = 1

 SCF Done:  E(RB3LYP) =  -649.459624443     A.U. after   14 cycles
 SCF Done:  E(RB3LYP) =  -649.460593338     A.U. after   14 cycles
 SCF Done:  E(RB3LYP) =  -649.461978541     A.U. after   13 cycles
 SCF Done:  E(RB3LYP) =  -649.463479922     A.U. after   13 cycles
 SCF Done:  E(RB3LYP) =  -649.463835208     A.U. after   12 cycles
 SCF Done:  E(RB3LYP) =  -649.464718812     A.U. after   12 cycles
 SCF Done:  E(RB3LYP) =  -649.464868769     A.U. after   13 cycles
 SCF Done:  E(RB3LYP) =  -649.465076555     A.U. after   12 cycles
 SCF Done:  E(RB3LYP) =  -649.465274273     A.U. after   11 cycles
 SCF Done:  E(RB3LYP) =  -649.465369175     A.U. after   11 cycles
 SCF Done:  E(RB3LYP) =  -649.465408033     A.U. after   12 cycles
 SCF Done:  E(RB3LYP) =  -649.465412143     A.U. after    9 cycles
 SCF Done:  E(RB3LYP) =  -649.465413646     A.U. after    8 cycles
 SCF Done:  E(RB3LYP) =  -649.465414212     A.U. after    8 cycles
 SCF Done:  E(RB3LYP) =  -649.465414334     A.U. after    7 cycles
 Optimization completed.
    -- Stationary point found.
 Normal termination of Gaussian 16 at Thu Dec 10 09:18:21 2020.

 --------------------------------------------------------------------
 #N Geom=AllCheck Guess=TCheck SCRF=Check GenChk RB3LYP/6-31G(d) Freq
 --------------------------------------------------------------------

 Structure from the checkpoint file:  "JID_4048.chk"
 -------------------------------
 CID_105422902_JID_4048_neutraal
 -------------------------------
 Charge =  0 Multiplicity = 1

 SCF Done:  E(RB3LYP) =  -649.465414334     A.U. after    1 cycles

  Exact polarizability: 138.893  -2.462 119.631  -5.140  -2.968  84.802
 Approx polarizability: 187.774  -4.303 192.390 -12.953  -5.203 131.633

                      1                      2                      3
                      A                      A                      A
 Frequencies --     35.8886                60.8747                71.1569
 Red. masses --      4.8853                 6.0852                 2.8183
 Frc consts  --      0.0037                 0.0133                 0.0084
 IR Inten    --      0.2527                 0.2499                 0.4317

                      4                      5                      6
                      A                      A                      A
 Frequencies --     95.6248               123.3454               155.9594
 Red. masses --      4.0351                 5.2136                 4.5477
 Frc consts  --      0.0217                 0.0467                 0.0652
 IR Inten    --      0.5031                 0.1243                 0.7026

                      7                      8                      9
                      A                      A                      A
 Frequencies --    190.3872               218.4269               234.9740
 Red. masses --      3.1560                 1.2471                 3.8732
 Frc consts  --      0.0674                 0.0351                 0.1260
 IR Inten    --      0.7032                 0.2513                 2.0168

                     10                     11                     12
                      A                      A                      A
 Frequencies --    274.6693               290.9254               313.9955
 Red. masses --      3.6766                 2.6150                 3.6177
 Frc consts  --      0.1634                 0.1304                 0.2102
 IR Inten    --      0.9301                 0.6277                 2.1800

                     13                     14                     15
                      A                      A                      A
 Frequencies --    378.4352               403.1989               439.0141
 Red. masses --      2.2634                 3.9901                 3.7850
 Frc consts  --      0.1910                 0.3822                 0.4298
 IR Inten    --      4.0912                 0.7189                 0.8120

                     16                     17                     18
                      A                      A                      A
 Frequencies --    556.6745               598.9518               614.3909
 Red. masses --      3.9618                 2.8303                 1.9806
 Frc consts  --      0.7233                 0.5982                 0.4405
 IR Inten    --     38.6538                28.5498                19.4908

                     19                     20                     21
                      A                      A                      A
 Frequencies --    630.8403               643.8040               684.6197
 Red. masses --      2.5361                 1.9001                 3.1387
 Frc consts  --      0.5946                 0.4640                 0.8668
 IR Inten    --      5.4374                46.4545                 5.8207

                     22                     23                     24
                      A                      A                      A
 Frequencies --    744.6122               757.6469               759.2026
 Red. masses --      1.6188                 3.5409                 3.3827
 Frc consts  --      0.5288                 1.1976                 1.1488
 IR Inten    --     68.7057                45.0506                 8.6643

                     25                     26                     27
                      A                      A                      A
 Frequencies --    803.0945               808.1992               824.3678
 Red. masses --      1.0954                 2.4178                 1.5236
 Frc consts  --      0.4163                 0.9305                 0.6100
 IR Inten    --      0.2608                11.3470                 7.5888

                     28                     29                     30
                      A                      A                      A
 Frequencies --    862.6927               900.0772               921.2092
 Red. masses --      1.3417                 2.2498                 3.1041
 Frc consts  --      0.5883                 1.0739                 1.5520
 IR Inten    --     31.6239                 1.7358                 2.4420

                     31                     32                     33
                      A                      A                      A
 Frequencies --    925.8904               942.1150               971.1841
 Red. masses --      2.9136                 1.9557                 4.2044
 Frc consts  --      1.4716                 1.0227                 2.3364
 IR Inten    --      1.5504                11.4773                34.2135

                     34                     35                     36
                      A                      A                      A
 Frequencies --   1043.1926              1063.2526              1067.7309
 Red. masses --      1.6613                 1.4725                 1.6148
 Frc consts  --      1.0652                 0.9808                 1.0846
 IR Inten    --     17.6364                 9.3697                 7.7602

                     37                     38                     39
                      A                      A                      A
 Frequencies --   1074.6992              1103.0553              1135.6736
 Red. masses --      1.3493                 1.8714                 2.4273
 Frc consts  --      0.9182                 1.3416                 1.8445
 IR Inten    --      3.4305                14.1813                74.8851

                     40                     41                     42
                      A                      A                      A
 Frequencies --   1142.0739              1148.3718              1188.4691
 Red. masses --      1.0958                 2.1534                 1.9908
 Frc consts  --      0.8421                 1.6731                 1.6568
 IR Inten    --      0.4540                24.1409               211.1636

                     43                     44                     45
                      A                      A                      A
 Frequencies --   1201.4176              1213.3514              1228.8876
 Red. masses --      2.5523                 1.3975                 2.1826
 Frc consts  --      2.1706                 1.2122                 1.9420
 IR Inten    --     21.5968                 1.0570                 1.3862

                     46                     47                     48
                      A                      A                      A
 Frequencies --   1238.2100              1263.2184              1316.8437
 Red. masses --      1.9794                 1.5263                 1.5785
 Frc consts  --      1.7880                 1.4349                 1.6127
 IR Inten    --     31.0944                15.8559                 9.8641

                     49                     50                     51
                      A                      A                      A
 Frequencies --   1325.4223              1341.9233              1364.4581
 Red. masses --      1.5120                 2.3231                 1.8566
 Frc consts  --      1.5650                 2.4648                 2.0365
 IR Inten    --      9.3567                 8.7053                16.5655

                     52                     53                     54
                      A                      A                      A
 Frequencies --   1385.1703              1419.5858              1441.7671
 Red. masses --      1.5196                 1.7306                 1.5776
 Frc consts  --      1.7179                 2.0548                 1.9321
 IR Inten    --     27.0173                28.2469                 4.6857

                     55                     56                     57
                      A                      A                      A
 Frequencies --   1449.1825              1464.5968              1494.1149
 Red. masses --      1.8261                 2.7930                 1.1162
 Frc consts  --      2.2596                 3.5299                 1.4681
 IR Inten    --      8.0186                 0.5160                 3.3076

                     58                     59                     60
                      A                      A                      A
 Frequencies --   1511.2372              1524.8773              1531.0305
 Red. masses --      1.1727                 1.0737                 1.2366
 Frc consts  --      1.5780                 1.4710                 1.7078
 IR Inten    --      0.7088                13.5715                 3.9659

                     61                     62                     63
                      A                      A                      A
 Frequencies --   1535.9690              1547.7630              1633.6878
 Red. masses --      1.1694                 2.4729                 5.0832
 Frc consts  --      1.6254                 3.4904                 7.9934
 IR Inten    --     10.9763                15.7323                12.6800

                     64                     65                     66
                      A                      A                      A
 Frequencies --   1818.2554              3048.7118              3061.8413
 Red. masses --      9.0809                 1.0814                 1.0722
 Frc consts  --     17.6884                 5.9221                 5.9222
 IR Inten    --    239.7625                 8.9798                28.6806

                     67                     68                     69
                      A                      A                      A
 Frequencies --   3073.2573              3135.4394              3144.7515
 Red. masses --      1.0344                 1.0919                 1.1003
 Frc consts  --      5.7563                 6.3248                 6.4109
 IR Inten    --     11.5215                 7.3243                18.2294

                     70                     71                     72
                      A                      A                      A
 Frequencies --   3147.6334              3153.9438              3154.3977
 Red. masses --      1.0540                 1.0758                 1.0925
 Frc consts  --      6.1527                 6.3052                 6.4049
 IR Inten    --     18.2098                33.5396                 5.6845

                     73                     74                     75
                      A                      A                      A
 Frequencies --   3158.4315              3223.3524              3238.5060
 Red. masses --      1.0820                 1.1185                 1.1146
 Frc consts  --      6.3597                 6.8471                 6.8875
 IR Inten    --     13.2653                 1.8029                31.2149

                     76                     77                     78
                      A                      A                      A
 Frequencies --   3244.9044              3616.3842              3681.3609
 Red. masses --      1.0957                 1.0826                 1.0641
 Frc consts  --      6.7974                 8.3418                 8.4963
 IR Inten    --     13.3905               210.3496                55.8996

 - Thermochemistry -
 -------------------
 Temperature   298.150 Kelvin.  Pressure   1.00000 Atm.
 Atom     1 has atomic number  6 and mass  12.00000

 Molecular mass:   194.10553 amu.
 Principal axes and moments of inertia in atomic units:
                           1         2         3
     Eigenvalues --  1601.315983812.440024795.33685
           X            0.99990  -0.01327   0.00491
           Y            0.01325   0.99990   0.00436
           Z           -0.00497  -0.00430   0.99998
 This molecule is an asymmetric top.
 Rotational symmetry number  1.
 Warning -- assumption of classical behavior for rotation
           may cause significant error
 Rotational temperatures (Kelvin)      0.05409     0.02272     0.01806
 Rotational constants (GHZ):           1.12704     0.47338     0.37635
 Zero-point vibrational energy     619287.9 (Joules/Mol)
                                  148.01336 (Kcal/Mol)
 Warning -- explicit consideration of  18 degrees of freedom as
           vibrations may cause significant error
 Vibrational temperatures:     51.64    87.59   102.38   137.58   177.47
          (Kelvin)            224.39   273.92   314.27   338.08   395.19
                              418.58   451.77   544.48   580.11   631.64
                              800.93   861.76   883.97   907.64   926.29
                              985.02  1071.33  1090.08  1092.32  1155.47
                             1162.82  1186.08  1241.22  1295.01  1325.41
                             1332.15  1355.49  1397.32  1500.92  1529.78
                             1536.23  1546.25  1587.05  1633.98  1643.19
                             1652.25  1709.94  1728.57  1745.74  1768.10
                             1781.51  1817.49  1894.64  1906.99  1930.73
                             1963.15  1992.95  2042.47  2074.38  2085.05
                             2107.23  2149.70  2174.33  2193.96  2202.81
                             2209.92  2226.89  2350.51  2616.06  4386.42
                             4405.31  4421.73  4511.20  4524.60  4528.74
                             4537.82  4538.47  4544.28  4637.69  4659.49
                             4668.69  5203.17  5296.66

 Zero-point correction=                           0.235874 (Hartree/Particle)
 Thermal correction to Energy=                    0.249159
 Thermal correction to Enthalpy=                  0.250103
 Thermal correction to Gibbs Free Energy=         0.195222
 Sum of electronic and zero-point Energies=           -649.229540
 Sum of electronic and thermal Energies=              -649.216255
 Sum of electronic and thermal Enthalpies=            -649.215311
 Sum of electronic and thermal Free Energies=         -649.270193

                     E (Thermal)             CV                S
                      KCal/Mol        Cal/Mol-Kelvin    Cal/Mol-Kelvin
 Total                  156.350             50.299            115.508
 Electronic               0.000              0.000              0.000
 Translational            0.889              2.981             41.695
 Rotational               0.889              2.981             31.749
 Vibrational            154.572             44.338             42.064
 Vibration     1          0.594              1.982              5.474
 Vibration     2          0.597              1.973              4.429
 Vibration     3          0.598              1.968              4.121
 Vibration     4          0.603              1.952              3.542
 Vibration     5          0.610              1.930              3.047
 Vibration     6          0.620              1.896              2.598
 Vibration     7          0.634              1.853              2.224
 Vibration     8          0.646              1.813              1.972
 Vibration     9          0.655              1.787              1.841
 Vibration    10          0.677              1.720              1.567
 Vibration    11          0.687              1.691              1.469
 Vibration    12          0.702              1.647              1.341
 Vibration    13          0.749              1.516              1.045
 Vibration    14          0.769              1.463              0.951
 Vibration    15          0.799              1.385              0.830
 Vibration    16          0.912              1.125              0.531
 Vibration    17          0.957              1.034              0.451
 Vibration    18          0.974              1.001              0.426

                           ! Non-Optimized Parameters !
 Normal termination of Gaussian 16 at Thu Dec 10 09:26:29 2020.

 ----------------------------------------------------------------------
 # B3LYP/6-311++G(d,p) empiricaldispersion=gd3bj scf=xqc pop=npa geom=c
 heck
 ----------------------------------------------------------------------

 ---------------------------------------
 CID_105422902_JID_4048_Energie_neutraal
 ---------------------------------------
 Structure from the checkpoint file:  "JID_4048.chk"
 Charge =  0 Multiplicity = 1

 SCF Done:  E(RB3LYP) =  -649.655256836     A.U. after   15 cycles
 Normal termination of Gaussian 16 at Thu Dec 10 09:29:41 2020.

 ----------------------------------------------------------------------
 # B3LYP/6-311++G(d,p) empiricaldispersion=gd3bj scf=xqc pop=npa geom=c
 heck
 ----------------------------------------------------------------------

 -------------------------------------
 CID_105422902_JID_4048_Energie_kation
 -------------------------------------
 Structure from the checkpoint file:  "JID_4048.chk"
 Charge =  1 Multiplicity = 2

 SCF Done:  E(UB3LYP) =  -649.361599220     A.U. after   24 cycles
 Normal termination of Gaussian 16 at Thu Dec 10 09:37:06 2020.
 Gaussian 16:  ES64L-G16RevA.03 25-Dec-2016

 ----------------------------------------------------------------------
 # B3LYP/6-311++G(d,p) empiricaldispersion=gd3bj scf=xqc pop=npa geom=c
 heck
 ----------------------------------------------------------------------

 ------------------------------------
 CID_105422902_JID_4048_Energie_anion
 ------------------------------------
 Structure from the checkpoint file:  "JID_4048.chk"
 Charge = -1 Multiplicity = 2

                         Standard orientation:
 ---------------------------------------------------------------------
 Center     Atomic      Atomic             Coordinates (Angstroms)
 Number     Number       Type             X           Y           Z
 ---------------------------------------------------------------------
      1          6           0       -1.189918   -1.316123   -1.372906
      2          6           0       -1.540636   -1.093121    0.110511
      3          6           0       -0.342848   -0.590959    0.953378
      4          6           0        0.450192    0.530474    0.347758
      5          6           0        1.756629    0.624891   -0.133837
      6          6           0        1.861916    1.968185   -0.577053
      7          7           0        0.736530    2.658200   -0.397483
      8          7           0       -0.098421    1.766296    0.167238
      9          6           0        2.864190   -0.359374   -0.183952
     10          6           0        3.153381   -1.324967    0.948803
     11          6           0        2.663560   -1.848834   -0.374880
     12          6           0       -2.745286   -0.177760    0.227961
     13          8           0       -2.767246    0.944711    0.697743
     14          8           0       -3.861415   -0.758611   -0.263622
     15          1           0       -0.880500   -0.379072   -1.844270
     16          1           0       -2.045546   -1.723017   -1.917550
     17          1           0       -0.357483   -2.020694   -1.456945
     18          1           0       -1.865630   -2.055301    0.527575
     19          1           0       -0.712535   -0.296064    1.943090
     20          1           0        0.321661   -1.442170    1.113616
     21          1           0        2.726013    2.448659   -1.019031
     22          1           0       -1.052291    2.014720    0.398113
     23          1           0        3.747905    0.043452   -0.673573
     24          1           0        4.189883   -1.500926    1.223019
     25          1           0        2.467945   -1.321522    1.791631
     26          1           0        1.646742   -2.222245   -0.441059
     27          1           0        3.366988   -2.378204   -1.011673
     28          1           0       -4.577710   -0.102362   -0.168902
 ---------------------------------------------------------------------

 SCF Done:  E(UB3LYP) =  -649.646379972     A.U. after   33 cycles
 SCF Done:  E(UB3LYP) =  -649.646379972     a.u. after    1 cycles

 The electronic state is 2-A.
 Alpha  occ. eigenvalues --  -19.06936 -19.02108 -14.27371 -14.22791 -10.20675
 Alpha  occ. eigenvalues --  -10.10965 -10.09821 -10.09429 -10.08978 -10.08694
 Alpha  occ. eigenvalues --  -10.08148 -10.08008 -10.07454 -10.06873  -1.01367
 Alpha  occ. eigenvalues --   -0.94311  -0.92386  -0.77209  -0.73796  -0.70486
 Alpha  occ. eigenvalues --   -0.67951  -0.60694  -0.56992  -0.54241  -0.51139
 Alpha  occ. eigenvalues --   -0.50534  -0.48342  -0.45906  -0.42332  -0.40871
 Alpha  occ. eigenvalues --   -0.39619  -0.38532  -0.37265  -0.36638  -0.35253
 Alpha  occ. eigenvalues --   -0.33994  -0.32949  -0.32127  -0.30332  -0.29909
 Alpha  occ. eigenvalues --   -0.28559  -0.27646  -0.26191  -0.26072  -0.25296
 Alpha  occ. eigenvalues --   -0.23413  -0.23065  -0.21639  -0.18961  -0.18885
 Alpha  occ. eigenvalues --   -0.15435  -0.12870   0.04197
 Alpha virt. eigenvalues --    0.05883   0.07071   0.07677   0.08469   0.09044
 Alpha virt. eigenvalues --    0.09592   0.09956   0.10357   0.10706   0.11631
 Alpha virt. eigenvalues --    0.12358   0.12623   0.13190   0.13652   0.14195

  Beta  occ. eigenvalues --  -19.06870 -19.02064 -14.27363 -14.22785 -10.20599
  Beta  occ. eigenvalues --  -10.10965 -10.09800 -10.09424 -10.08960 -10.08695
  Beta  occ. eigenvalues --  -10.08133 -10.07983 -10.07451 -10.06835  -1.01241
  Beta  occ. eigenvalues --   -0.94299  -0.92282  -0.77193  -0.73757  -0.70446
  Beta  occ. eigenvalues --   -0.67921  -0.60639  -0.56844  -0.54208  -0.51077
  Beta  occ. eigenvalues --   -0.50523  -0.48225  -0.45878  -0.42288  -0.40769
  Beta  occ. eigenvalues --   -0.39566  -0.38482  -0.37213  -0.36527  -0.35117
  Beta  occ. eigenvalues --   -0.33978  -0.32900  -0.32081  -0.30286  -0.29872
  Beta  occ. eigenvalues --   -0.28507  -0.27621  -0.26144  -0.26026  -0.25226
  Beta  occ. eigenvalues --   -0.23379  -0.22903  -0.21613  -0.18914  -0.18847
  Beta  occ. eigenvalues --   -0.15416  -0.12846
  Beta virt. eigenvalues --    0.06415   0.07276   0.07979   0.08116   0.08785
  Beta virt. eigenvalues --    0.09602   0.09894   0.10525   0.10626   0.10879
  Beta virt. eigenvalues --    0.11876   0.12495   0.12884   0.13523   0.13815

 Mulliken charges and spin densities:
               1          2
     1  C    0.242020  -0.821527
     2  C    1.018757  -0.789195
     3  C    1.156276  -1.474679
     4  C   -1.752790   1.566278
     5  C    1.688547  -1.098697
     6  C    0.330642  -0.589698
     7  N   -0.209934   0.070821
     8  N    0.001632  -0.027731
     9  C   -2.488916   2.022601
    10  C    0.516860  -0.989527
    11  C    0.716811  -1.087186
    12  C   -0.115084  -0.130584
    13  O   -0.324613   0.005741
    14  O   -0.199061   0.056758
    15  H    0.069088   0.103718
    16  H   -0.174183   0.351984
    17  H   -0.053724   0.194667
    18  H   -0.908885   1.186703
    19  H   -0.028408   0.251400
    20  H    0.501993  -0.361334
    21  H    0.122623   0.008468
    22  H    0.290634   0.059495
    23  H   -0.106309   0.351069
    24  H   -0.176140   0.327988
    25  H   -0.119942   0.264063
    26  H   -0.196202   0.284732
    27  H   -0.283925   0.450055
    28  H   -0.517768   0.813617
 Sum of Mulliken charges =  -1.00000   1.00000

 Dipole moment (field-independent basis, Debye):
    X=              4.4125    Y=              3.2696    Z=             -0.1402  Tot=              5.4937
 Quadrupole moment (field-independent basis, Debye-Ang):
   XX=           -160.4728   YY=           -135.4672   ZZ=           -109.2605
   XY=             -0.0898   XZ=             -0.1557   YZ=              0.3317

 Summary of Natural Population Analysis:

                                       Natural Population
                Natural  -----------------------------------------------
    Atom  No    Charge         Core      Valence    Rydberg      Total
 -----------------------------------------------------------------------
      C    1   -0.28177      0.99964     2.27585    0.00628     3.28177
      C    2   -0.15278      0.99955     2.14052    0.01271     3.15278
      C    3   -0.20654      0.99959     2.19597    0.01098     3.20654
      C    4    0.07927      0.99951     1.90851    0.01272     2.92073
      C    5   -0.07377      0.99945     2.06481    0.00951     3.07377
      C    6   -0.01392      0.99959     2.00023    0.01410     3.01392
      N    7   -0.15595      0.99974     2.64392    0.01229     3.65595
      N    8   -0.17216      0.99964     2.66030    0.01222     3.67216
      C    9   -0.11622      0.99958     2.10612    0.01051     3.11622
      C   10   -0.19372      0.99963     2.18673    0.00736     3.19372
      C   11   -0.19352      0.99962     2.18462    0.00929     3.19352
      C   12    0.42684      0.99968     1.54850    0.02498     2.57316
      O   13   -0.32682      0.99986     3.32056    0.00641     4.32682
      O   14   -0.33968      0.99987     3.33273    0.00708     4.33968
      H   15    0.10183      0.00000     0.39686    0.00131     0.39817
      H   16    0.10869      0.00000     0.39014    0.00117     0.39131
      H   17    0.10212      0.00000     0.39658    0.00130     0.39788
      H   18    0.12019      0.00000     0.37410    0.00571     0.37981
      H   19    0.11282      0.00000     0.38588    0.00131     0.38718
      H   20    0.11064      0.00000     0.38761    0.00175     0.38936
      H   21    0.09342      0.00000     0.40554    0.00104     0.40658
      H   22    0.21405      0.00000     0.28331    0.00264     0.28595
      H   23    0.10329      0.00000     0.39516    0.00155     0.39671
      H   24    0.10118      0.00000     0.39781    0.00101     0.39882
      H   25    0.10198      0.00000     0.39699    0.00103     0.39802
      H   26    0.10357      0.00000     0.39504    0.00139     0.39643
      H   27    0.10244      0.00000     0.39641    0.00115     0.39756
      H   28    0.24454      0.00000     0.23692    0.01854     0.25546
 =======================================================================
   * Total *    0.00000     13.99495    37.80772    0.19734    52.00000

 Normal termination of Gaussian 16 at Thu Dec 10 09:46:27 2020.
