 Gaussian 16, Revision A.03,

 -----------------------------------------------------------
 # opt freq B3LYP/6-31G(d) empiricaldispersion=gd3bj scf=xqc
 -----------------------------------------------------------

 ------------------------------
 CID_144534843_JID_140_neutraal
 ------------------------------
 Symbolic Z-matrix:
 Charge =  0 Multiplicity = 1

 SCF Done:  E(RB3LYP) =  -409.180548802     A.U. after   13 cycles
 SCF Done:  E(RB3LYP) =  -409.183960275     A.U. after   11 cycles
 SCF Done:  E(RB3LYP) =  -409.184251913     A.U. after   11 cycles
 SCF Done:  E(RB3LYP) =  -409.184400676     A.U. after   10 cycles
 SCF Done:  E(RB3LYP) =  -409.184470546     A.U. after   10 cycles
 SCF Done:  E(RB3LYP) =  -409.184499264     A.U. after   10 cycles
 SCF Done:  E(RB3LYP) =  -409.184582770     A.U. after    9 cycles
 SCF Done:  E(RB3LYP) =  -409.185318346     A.U. after   12 cycles
 SCF Done:  E(RB3LYP) =  -409.185505816     A.U. after   10 cycles
 SCF Done:  E(RB3LYP) =  -409.185462192     A.U. after    9 cycles
 SCF Done:  E(RB3LYP) =  -409.185900847     A.U. after    7 cycles
 SCF Done:  E(RB3LYP) =  -409.185901564     A.U. after    8 cycles
 SCF Done:  E(RB3LYP) =  -409.185901660     A.U. after    7 cycles
 SCF Done:  E(RB3LYP) =  -409.185901705     A.U. after    7 cycles
 SCF Done:  E(RB3LYP) =  -409.185901730     A.U. after    7 cycles
 SCF Done:  E(RB3LYP) =  -409.185901728     A.U. after    7 cycles
 Optimization completed.
    -- Stationary point found.

 1\1\GINC-NODE218\FOpt\RB3LYP\6-31G(d)\C9H19N1\VSC10255\08-Dec-2020\0\\
 # opt freq B3LYP/6-31G(d) empiricaldispersion=gd3bj scf=xqc\\CID_14453
 4843_JID_140_neutraal\\0,1\C,1.3314132703,-0.2784442072,-0.0802126408\
 C,0.65267806,-1.5493317847,0.4595294856\C,1.0138158616,-1.8340833055,1
 .8920294824\C,0.2222862557,-1.7115516456,2.9773058162\C,-1.2314305475,
 -1.3084857607,2.9304539165\N,0.6340973512,-1.9913021826,4.2867138936\C
 ,2.0321654661,-1.9995239843,4.7215032703\C,2.1970198811,-1.0750096299,
 5.9319926891\C,2.5121451887,-3.4254617028,5.0443209958\C,2.4216204094,

 Normal termination of Gaussian 16 at Tue Dec  8 10:26:30 2020.

 --------------------------------------------------------------------
 #N Geom=AllCheck Guess=TCheck SCRF=Check GenChk RB3LYP/6-31G(d) Freq
 --------------------------------------------------------------------

 Structure from the checkpoint file:  "JID_140.chk"
 ------------------------------
 CID_144534843_JID_140_neutraal
 ------------------------------
 Charge =  0 Multiplicity = 1

 SCF Done:  E(RB3LYP) =  -409.185901728     A.U. after    1 cycles

  Exact polarizability: 124.692   8.295 104.209  -0.187  -5.389  87.299
 Approx polarizability: 155.773  18.004 150.743  -3.507 -15.480 122.887

                      1                      2                      3
                      A                      A                      A
 Frequencies --     30.1013                47.0205                69.1121
 Red. masses --      2.3788                 2.9140                 2.5692
 Frc consts  --      0.0013                 0.0038                 0.0072
 IR Inten    --      0.0180                 0.0191                 0.4383

                      4                      5                      6
                      A                      A                      A
 Frequencies --    101.7486               128.0977               132.4754
 Red. masses --      2.3753                 2.0463                 1.1533
 Frc consts  --      0.0145                 0.0198                 0.0119
 IR Inten    --      1.0187                 0.0281                 0.8529

                      7                      8                      9
                      A                      A                      A
 Frequencies --    189.6598               226.7328               239.5069
 Red. masses --      2.0475                 2.2733                 1.2259
 Frc consts  --      0.0434                 0.0689                 0.0414
 IR Inten    --      1.0292                 0.4820                 0.7988

                     10                     11                     12
                      A                      A                      A
 Frequencies --    250.2936               270.0960               325.2623
 Red. masses --      1.0607                 1.2973                 2.2707
 Frc consts  --      0.0391                 0.0558                 0.1415
 IR Inten    --      0.1411                 1.0484                 0.7549

                     13                     14                     15
                      A                      A                      A
 Frequencies --    346.5879               395.7831               418.9520
 Red. masses --      2.1834                 2.3697                 1.7254
 Frc consts  --      0.1545                 0.2187                 0.1784
 IR Inten    --      2.7262                15.9640                59.2961

                     16                     17                     18
                      A                      A                      A
 Frequencies --    431.6272               478.9568               495.3021
 Red. masses --      2.1650                 2.4648                 2.3908
 Frc consts  --      0.2376                 0.3331                 0.3456
 IR Inten    --     14.0407                 0.1922                14.0977

                     19                     20                     21
                      A                      A                      A
 Frequencies --    525.3491               605.8911               772.9374
 Red. masses --      2.7867                 2.7819                 1.4611
 Frc consts  --      0.4531                 0.6017                 0.5143
 IR Inten    --      6.2147                 6.9348                 4.0822

                     22                     23                     24
                      A                      A                      A
 Frequencies --    795.0758               828.2786               843.6069
 Red. masses --      1.2786                 1.4487                 1.7958
 Frc consts  --      0.4762                 0.5856                 0.7530
 IR Inten    --      1.6595                20.4687                 1.5151

                     25                     26                     27
                      A                      A                      A
 Frequencies --    851.2408               932.4044               964.2528
 Red. masses --      1.6922                 1.7207                 2.2054
 Frc consts  --      0.7224                 0.8814                 1.2081
 IR Inten    --      7.1996                 3.1574                 4.7544

                     28                     29                     30
                      A                      A                      A
 Frequencies --    993.0950              1016.7417              1036.6590
 Red. masses --      1.2841                 1.4531                 2.2640
 Frc consts  --      0.7461                 0.8850                 1.4335
 IR Inten    --      2.9150                 4.0211                 2.0803

                     31                     32                     33
                      A                      A                      A
 Frequencies --   1055.1985              1079.2666              1083.2640
 Red. masses --      2.0223                 1.5283                 1.7272
 Frc consts  --      1.3267                 1.0488                 1.1942
 IR Inten    --      2.0148                 0.5255                 3.1264

                     34                     35                     36
                      A                      A                      A
 Frequencies --   1098.6535              1136.4284              1164.4890
 Red. masses --      1.6090                 2.2088                 2.2436
 Frc consts  --      1.1443                 1.6807                 1.7925
 IR Inten    --      4.6648                11.2087                 6.9810

                     37                     38                     39
                      A                      A                      A
 Frequencies --   1201.8919              1209.9352              1281.2382
 Red. masses --      2.1289                 2.2625                 1.9740
 Frc consts  --      1.8119                 1.9514                 1.9092
 IR Inten    --      8.1962                26.3970                77.3293

                     40                     41                     42
                      A                      A                      A
 Frequencies --   1313.3138              1318.7290              1344.7662
 Red. masses --      1.2272                 1.4282                 1.2661
 Frc consts  --      1.2471                 1.4634                 1.3490
 IR Inten    --      3.1049                59.1628                10.0500

                     43                     44                     45
                      A                      A                      A
 Frequencies --   1356.7064              1391.8292              1399.7601
 Red. masses --      1.3446                 1.3265                 1.4144
 Frc consts  --      1.4582                 1.5141                 1.6327
 IR Inten    --     12.9810                 1.3808                 4.6313

                     46                     47                     48
                      A                      A                      A
 Frequencies --   1411.4629              1432.3189              1435.5257
 Red. masses --      1.3923                 1.2274                 1.2491
 Frc consts  --      1.6343                 1.4836                 1.5166
 IR Inten    --      8.3538                 1.2607                 3.4878

                     49                     50                     51
                      A                      A                      A
 Frequencies --   1438.3661              1443.6338              1507.6160
 Red. masses --      1.2567                 1.3383                 1.0833
 Frc consts  --      1.5319                 1.6434                 1.4507
 IR Inten    --      4.2893                 2.9126                 3.7594

                     52                     53                     54
                      A                      A                      A
 Frequencies --   1511.5400              1514.1286              1524.8961
 Red. masses --      1.0749                 1.0459                 1.0578
 Frc consts  --      1.4470                 1.4128                 1.4492
 IR Inten    --      5.9788                 5.2017                 8.6292

                     55                     56                     57
                      A                      A                      A
 Frequencies --   1526.3165              1527.2724              1529.4528
 Red. masses --      1.0537                 1.0624                 1.0536
 Frc consts  --      1.4463                 1.4600                 1.4522
 IR Inten    --     10.2960                16.4339                 0.6711

                     58                     59                     60
                      A                      A                      A
 Frequencies --   1530.1038              1535.6306              1539.2260
 Red. masses --      1.0462                 1.0569                 1.0963
 Frc consts  --      1.4431                 1.4684                 1.5303
 IR Inten    --      7.0856                 9.7605                16.8113

                     61                     62                     63
                      A                      A                      A
 Frequencies --   1556.1163              1744.6366              3015.9330
 Red. masses --      1.3338                 5.6414                 1.0711
 Frc consts  --      1.9030                10.1169                 5.7402
 IR Inten    --     69.5284               103.2652                55.1809

                     64                     65                     66
                      A                      A                      A
 Frequencies --   3025.0652              3033.1942              3037.8972
 Red. masses --      1.0588                 1.0450                 1.0512
 Frc consts  --      5.7084                 5.6648                 5.7160
 IR Inten    --     32.7925                34.7167                23.4499

                     67                     68                     69
                      A                      A                      A
 Frequencies --   3039.2477              3044.5059              3049.6875
 Red. masses --      1.0355                 1.0735                 1.0391
 Frc consts  --      5.6353                 5.8628                 5.6940
 IR Inten    --     39.9574                23.5021                18.2001

                     70                     71                     72
                      A                      A                      A
 Frequencies --   3064.3780              3079.2308              3080.6015
 Red. masses --      1.0979                 1.0982                 1.0913
 Frc consts  --      6.0745                 6.1350                 6.1018
 IR Inten    --     31.6372                18.5876                16.2687

                     73                     74                     75
                      A                      A                      A
 Frequencies --   3106.0750              3106.8692              3110.0314
 Red. masses --      1.1012                 1.0982                 1.1017
 Frc consts  --      6.2594                 6.2455                 6.2781
 IR Inten    --     61.6139                19.5133                69.4938

                     76                     77                     78
                      A                      A                      A
 Frequencies --   3115.0868              3126.2367              3135.9858
 Red. masses --      1.1029                 1.1028                 1.1010
 Frc consts  --      6.3056                 6.3503                 6.3797
 IR Inten    --     48.4786                27.3197                31.2718

                     79                     80                     81
                      A                      A                      A
 Frequencies --   3175.6318              3178.9221              3578.1442
 Red. masses --      1.0926                 1.0862                 1.0759
 Frc consts  --      6.4917                 6.4675                 8.1157
 IR Inten    --     12.8289                38.2051                 7.5609

 - Thermochemistry -
 -------------------
 Temperature   298.150 Kelvin.  Pressure   1.00000 Atm.
 Atom     1 has atomic number  6 and mass  12.00000

 Molecular mass:   141.15175 amu.
 Principal axes and moments of inertia in atomic units:
                           1         2         3
     Eigenvalues --  1072.328652621.502242899.04575
           X            1.00000  -0.00084  -0.00070
           Y            0.00084   1.00000   0.00087
           Z            0.00070  -0.00087   1.00000
 This molecule is an asymmetric top.
 Rotational symmetry number  1.
 Warning -- assumption of classical behavior for rotation
           may cause significant error
 Rotational temperatures (Kelvin)      0.08077     0.03304     0.02988
 Rotational constants (GHZ):           1.68301     0.68844     0.62253
 Zero-point vibrational energy     705732.7 (Joules/Mol)
                                  168.67415 (Kcal/Mol)
 Warning -- explicit consideration of  20 degrees of freedom as
           vibrations may cause significant error
 Vibrational temperatures:     43.31    67.65    99.44   146.39   184.30
          (Kelvin)            190.60   272.88   326.22   344.60   360.12
                              388.61   467.98   498.66   569.44   602.78
                              621.02   689.11   712.63   755.86   871.74
                             1112.08  1143.94  1191.71  1213.76  1224.75
                             1341.52  1387.34  1428.84  1462.86  1491.52
                             1518.20  1552.82  1558.58  1580.72  1635.07
                             1675.44  1729.25  1740.83  1843.42  1889.57
                             1897.36  1934.82  1952.00  2002.53  2013.94
                             2030.78  2060.79  2065.40  2069.49  2077.07
                             2169.12  2174.77  2178.49  2193.99  2196.03
                             2197.40  2200.54  2201.48  2209.43  2214.60
                             2238.90  2510.14  4339.25  4352.39  4364.09
                             4370.86  4372.80  4380.36  4387.82  4408.96
                             4430.33  4432.30  4468.95  4470.09  4474.64
                             4481.92  4497.96  4511.98  4569.03  4573.76
                             5148.15

 Zero-point correction=                           0.268799 (Hartree/Particle)
 Thermal correction to Energy=                    0.282141
 Thermal correction to Enthalpy=                  0.283085
 Thermal correction to Gibbs Free Energy=         0.228622
 Sum of electronic and zero-point Energies=           -408.917102
 Sum of electronic and thermal Energies=              -408.903761
 Sum of electronic and thermal Enthalpies=            -408.902817
 Sum of electronic and thermal Free Energies=         -408.957280

                     E (Thermal)             CV                S
                      KCal/Mol        Cal/Mol-Kelvin    Cal/Mol-Kelvin
 Total                  177.046             48.205            114.628
 Electronic               0.000              0.000              0.000
 Translational            0.889              2.981             40.745
 Rotational               0.889              2.981             30.478
 Vibrational            175.269             42.243             43.404
 Vibration     1          0.594              1.984              5.823
 Vibration     2          0.595              1.979              4.939
 Vibration     3          0.598              1.969              4.178
 Vibration     4          0.604              1.948              3.421
 Vibration     5          0.611              1.925              2.974
 Vibration     6          0.613              1.921              2.910
 Vibration     7          0.633              1.854              2.231
 Vibration     8          0.650              1.800              1.905
 Vibration     9          0.657              1.780              1.807
 Vibration    10          0.663              1.762              1.729
 Vibration    11          0.674              1.728              1.596
 Vibration    12          0.709              1.625              1.284
 Vibration    13          0.725              1.582              1.182
 Vibration    14          0.763              1.479              0.978
 Vibration    15          0.782              1.429              0.896
 Vibration    16          0.793              1.401              0.853
 Vibration    17          0.835              1.297              0.713
 Vibration    18          0.851              1.260              0.670
 Vibration    19          0.880              1.194              0.598
 Vibration    20          0.965              1.019              0.440

 Optimization completed.
    -- Stationary point found.

 1\1\GINC-NODE218\Freq\RB3LYP\6-31G(d)\C9H19N1\VSC10255\08-Dec-2020\0\\
 #N Geom=AllCheck Guess=TCheck SCRF=Check GenChk RB3LYP/6-31G(d) Freq\\
 CID_144534843_JID_140_neutraal\\0,1\C,1.3314132703,-0.2784442072,-0.08
 02126408\C,0.65267806,-1.5493317847,0.4595294856\C,1.0138158616,-1.834
 0833055,1.8920294824\C,0.2222862557,-1.7115516456,2.9773058162\C,-1.23
 14305475,-1.3084857607,2.9304539165\N,0.6340973512,-1.9913021826,4.286
 7138936\C,2.0321654661,-1.9995239843,4.7215032703\C,2.1970198811,-1.07
 50096299,5.9319926891\C,2.5121451887,-3.4254617028,5.0443209958\C,2.42

 Normal termination of Gaussian 16 at Tue Dec  8 10:31:36 2020.

 ----------------------------------------------------------------------
 # B3LYP/6-311++G(d,p) empiricaldispersion=gd3bj scf=xqc pop=npa geom=c
 heck
 ----------------------------------------------------------------------

 --------------------------------------
 CID_144534843_JID_140_Energie_neutraal
 --------------------------------------
 Structure from the checkpoint file:  "JID_140.chk"
 Charge =  0 Multiplicity = 1

 SCF Done:  E(RB3LYP) =  -409.305991754     A.U. after   14 cycles
 Normal termination of Gaussian 16 at Tue Dec  8 10:37:48 2020.

 ----------------------------------------------------------------------
 # B3LYP/6-311++G(d,p) empiricaldispersion=gd3bj scf=xqc pop=npa geom=c
 heck
 ----------------------------------------------------------------------

 ------------------------------------
 CID_144534843_JID_140_Energie_kation
 ------------------------------------
 Structure from the checkpoint file:  "JID_140.chk"
 Charge =  1 Multiplicity = 2

 SCF Done:  E(UB3LYP) =  -409.045112793     A.U. after   17 cycles
 Normal termination of Gaussian 16 at Tue Dec  8 10:48:03 2020.
 Gaussian 16:  ES64L-G16RevA.03 25-Dec-2016

 -----------------------------------
 CID_144534843_JID_140_Energie_anion
 -----------------------------------
 Structure from the checkpoint file:  "JID_140.chk"
 Charge = -1 Multiplicity = 2

                         Standard orientation:
 ---------------------------------------------------------------------
 Center     Atomic      Atomic             Coordinates (Angstroms)
 Number     Number       Type             X           Y           Z
 ---------------------------------------------------------------------
      1          6           0        3.415582    0.638651   -1.232316
      2          6           0        2.732711    0.707585    0.144671
      3          6           0        1.254827    0.435383    0.071693
      4          6           0        0.600618   -0.661848    0.504653
      5          6           0        1.257304   -1.820648    1.214509
      6          7           0       -0.783781   -0.846199    0.395795
      7          6           0       -1.630193   -0.143318   -0.570254
      8          6           0       -2.437913   -1.162803   -1.379838
      9          6           0       -2.556069    0.869609    0.125894
     10          6           0       -1.813019    1.948277    0.913991
     11          1           0        3.326813   -0.367920   -1.656358
     12          1           0        4.480536    0.893577   -1.166721
     13          1           0        2.945545    1.335084   -1.937038
     14          1           0        3.236217    0.014366    0.827073
     15          1           0        2.896677    1.710700    0.565839
     16          1           0        0.679249    1.221454   -0.410185
     17          1           0        0.776575   -1.993739    2.186044
     18          1           0        1.150320   -2.744676    0.629386
     19          1           0        2.320394   -1.657917    1.388922
     20          1           0       -1.067073   -1.806248    0.542774
     21          1           0       -0.974126    0.396439   -1.265010
     22          1           0       -3.080231   -1.759836   -0.718487
     23          1           0       -3.088095   -0.663458   -2.105643
     24          1           0       -1.775233   -1.844655   -1.923763
     25          1           0       -3.199480    1.336579   -0.632967
     26          1           0       -3.220286    0.312737    0.801496
     27          1           0       -1.212593    2.583063    0.251632
     28          1           0       -2.514944    2.597471    1.449316
     29          1           0       -1.136893    1.495046    1.645093
 ---------------------------------------------------------------------

 SCF Done:  E(UB3LYP) =  -409.288905714     A.U. after   32 cycles

 The electronic state is 2-A.
 Alpha  occ. eigenvalues --  -14.20433 -10.09804 -10.09617 -10.06292 -10.06033
 Alpha  occ. eigenvalues --  -10.05832 -10.05596 -10.05454 -10.05405 -10.03611
 Alpha  occ. eigenvalues --   -0.82049  -0.69974  -0.67291  -0.63707  -0.61094
 Alpha  occ. eigenvalues --   -0.57962  -0.53199  -0.51013  -0.48228  -0.42690
 Alpha  occ. eigenvalues --   -0.39262  -0.37333  -0.34745  -0.33278  -0.32753
 Alpha  occ. eigenvalues --   -0.31542  -0.31265  -0.31038  -0.29794  -0.27527
 Alpha  occ. eigenvalues --   -0.26989  -0.26627  -0.26023  -0.24159  -0.23872
 Alpha  occ. eigenvalues --   -0.23780  -0.23412  -0.21799  -0.18552  -0.08654
 Alpha  occ. eigenvalues --    0.04726
 Alpha virt. eigenvalues --    0.06868   0.07256   0.07753   0.09040   0.09249
 Alpha virt. eigenvalues --    0.09549   0.10241   0.10884   0.11513   0.11857
 Alpha virt. eigenvalues --    0.12065   0.12637   0.13232   0.13538   0.14396

  Beta  occ. eigenvalues --  -14.20410 -10.09798 -10.09610 -10.06278 -10.06014
  Beta  occ. eigenvalues --  -10.05788 -10.05552 -10.05432 -10.05393 -10.03609
  Beta  occ. eigenvalues --   -0.82016  -0.69948  -0.67264  -0.63670  -0.61035
  Beta  occ. eigenvalues --   -0.57913  -0.53130  -0.50955  -0.48167  -0.42648
  Beta  occ. eigenvalues --   -0.39236  -0.37288  -0.34708  -0.33244  -0.32726
  Beta  occ. eigenvalues --   -0.31501  -0.31220  -0.31003  -0.29750  -0.27487
  Beta  occ. eigenvalues --   -0.26952  -0.26581  -0.25985  -0.24132  -0.23847
  Beta  occ. eigenvalues --   -0.23748  -0.23362  -0.21770  -0.18512  -0.08630
  Beta virt. eigenvalues --    0.06841   0.07502   0.08065   0.08313   0.09450
  Beta virt. eigenvalues --    0.09750   0.09995   0.10715   0.11392   0.11821
  Beta virt. eigenvalues --    0.12272   0.12482   0.12857   0.13648   0.13802

 Mulliken charges and spin densities:
               1          2
     1  C    0.420436  -1.042664
     2  C   -0.825158   0.454847
     3  C    0.219531   0.835910
     4  C   -1.200495   0.367207
     5  C    2.334680  -3.160149
     6  N   -0.018813   0.149744
     7  C   -1.419088   1.573704
     8  C    1.494962  -2.148383
     9  C    0.486670  -0.728446
    10  C   -0.462193  -0.094757
    11  H   -0.001355   0.141587
    12  H   -0.145035   0.258204
    13  H   -0.193831   0.320704
    14  H   -0.118422   0.265880
    15  H    0.004114   0.110001
    16  H    0.371387  -0.250019
    17  H   -0.246520   0.397012
    18  H   -0.554478   0.725755
    19  H   -0.131658   0.242249
    20  H    0.104863   0.167193
    21  H    0.131586   0.008541
    22  H   -0.358525   0.502199
    23  H   -0.310798   0.455578
    24  H   -0.389958   0.560847
    25  H   -0.176530   0.296943
    26  H    0.095281   0.031376
    27  H   -0.045287   0.177741
    28  H   -0.208832   0.349389
    29  H    0.143465   0.031808
 Sum of Mulliken charges =  -1.00000   1.00000

 Dipole moment (field-independent basis, Debye):
    X=              0.5239    Y=              3.8170    Z=              1.3323  Tot=              4.0767
 Quadrupole moment (field-independent basis, Debye-Ang):
   XX=           -128.5385   YY=           -113.8935   ZZ=           -102.5534
   XY=              0.0712   XZ=             -3.2792   YZ=             -0.1534

 Summary of Natural Population Analysis:

                                       Natural Population
                Natural  -----------------------------------------------
    Atom  No    Charge         Core      Valence    Rydberg      Total
 -----------------------------------------------------------------------
      C    1   -0.27955      0.99966     2.27574    0.00414     3.27955
      C    2   -0.19627      0.99963     2.18918    0.00747     3.19627
      C    3   -0.15772      0.99947     2.14930    0.00895     3.15772
      C    4    0.10131      0.99947     1.88667    0.01255     2.89869
      C    5   -0.30153      0.99963     2.29535    0.00655     3.30153
      N    6   -0.32715      0.99967     2.81413    0.01335     3.82715
      C    7   -0.01198      0.99959     1.99964    0.01274     3.01198
      C    8   -0.28713      0.99965     2.28164    0.00584     3.28713
      C    9   -0.18776      0.99961     2.17996    0.00818     3.18776
      C   10   -0.28598      0.99966     2.28163    0.00469     3.28598
      H   11    0.09741      0.00000     0.40107    0.00151     0.40259
      H   12    0.09159      0.00000     0.40694    0.00147     0.40841
      H   13    0.09318      0.00000     0.40515    0.00167     0.40682
      H   14    0.09467      0.00000     0.40375    0.00158     0.40533
      H   15    0.09119      0.00000     0.40752    0.00129     0.40881
      H   16    0.09243      0.00000     0.40569    0.00188     0.40757
      H   17    0.10301      0.00000     0.39566    0.00132     0.39699
      H   18    0.10594      0.00000     0.39176    0.00230     0.39406
      H   19    0.10441      0.00000     0.39439    0.00121     0.39559
      H   20    0.18479      0.00000     0.31128    0.00393     0.31521
      H   21    0.09192      0.00000     0.40510    0.00298     0.40808
      H   22    0.09722      0.00000     0.40114    0.00163     0.40278
      H   23    0.10213      0.00000     0.39639    0.00148     0.39787
      H   24    0.10366      0.00000     0.39497    0.00138     0.39634
      H   25    0.09358      0.00000     0.40520    0.00122     0.40642
      H   26    0.09362      0.00000     0.40502    0.00136     0.40638
      H   27    0.09359      0.00000     0.40510    0.00131     0.40641
      H   28    0.09470      0.00000     0.40440    0.00090     0.40530
      H   29    0.10469      0.00000     0.39392    0.00139     0.39531
 =======================================================================
   * Total *   -0.00000      9.99604    29.88770    0.11626    40.00000

 Normal termination of Gaussian 16 at Tue Dec  8 11:07:18 2020.
