 Gaussian 16, Revision A.03,

 -----------------------------------------------------------
 # opt freq B3LYP/6-31G(d) empiricaldispersion=gd3bj scf=xqc
 -----------------------------------------------------------

 ------------------------------
 CID_69425571_JID_8219_neutraal
 ------------------------------
 Symbolic Z-matrix:
 Charge =  0 Multiplicity = 1

 SCF Done:  E(RB3LYP) =  -877.374374858     A.U. after   15 cycles
 SCF Done:  E(RB3LYP) =  -877.384761865     A.U. after   14 cycles
 SCF Done:  E(RB3LYP) =  -877.387498000     A.U. after   13 cycles
 SCF Done:  E(RB3LYP) =  -877.389831216     A.U. after   13 cycles
 SCF Done:  E(RB3LYP) =  -877.391254095     A.U. after   12 cycles
 SCF Done:  E(RB3LYP) =  -877.391900866     A.U. after   12 cycles
 SCF Done:  E(RB3LYP) =  -877.392399382     A.U. after   12 cycles
 SCF Done:  E(RB3LYP) =  -877.392707683     A.U. after   12 cycles
 SCF Done:  E(RB3LYP) =  -877.392917688     A.U. after   12 cycles
 SCF Done:  E(RB3LYP) =  -877.392993316     A.U. after   11 cycles
 SCF Done:  E(RB3LYP) =  -877.393595915     A.U. after   10 cycles
 SCF Done:  E(RB3LYP) =  -877.393598270     A.U. after    9 cycles
 SCF Done:  E(RB3LYP) =  -877.393597563     A.U. after    9 cycles
 SCF Done:  E(RB3LYP) =  -877.393598720     A.U. after   10 cycles
 SCF Done:  E(RB3LYP) =  -877.393598792     A.U. after    7 cycles
 Optimization completed.
    -- Stationary point found.
 Normal termination of Gaussian 16 at Fri Dec 11 19:47:26 2020.

 --------------------------------------------------------------------
 #N Geom=AllCheck Guess=TCheck SCRF=Check GenChk RB3LYP/6-31G(d) Freq
 --------------------------------------------------------------------

 Structure from the checkpoint file:  "JID_8219.chk"
 ------------------------------
 CID_69425571_JID_8219_neutraal
 ------------------------------
 Charge =  0 Multiplicity = 1

 SCF Done:  E(RB3LYP) =  -877.393598792     A.U. after    1 cycles

  Exact polarizability: 224.912   8.125 133.825 -14.339  15.093 104.820
 Approx polarizability: 286.438  15.215 225.315 -23.259  35.978 169.521

                      1                      2                      3
                      A                      A                      A
 Frequencies --     22.4059                33.5267                44.3401
 Red. masses --      5.8962                 4.4829                 5.6694
 Frc consts  --      0.0017                 0.0030                 0.0066
 IR Inten    --      0.0534                 0.9675                 0.9986

                      4                      5                      6
                      A                      A                      A
 Frequencies --     47.4605                67.8477                81.3964
 Red. masses --      7.1003                 4.7286                 3.9875
 Frc consts  --      0.0094                 0.0128                 0.0156
 IR Inten    --      0.3594                 0.3051                 3.3100

                      7                      8                      9
                      A                      A                      A
 Frequencies --    113.3582               120.8503               145.9457
 Red. masses --      4.1618                 6.4004                 5.5097
 Frc consts  --      0.0315                 0.0551                 0.0691
 IR Inten    --      1.3216                 0.0616                 4.3643

                     10                     11                     12
                      A                      A                      A
 Frequencies --    177.2705               234.7216               245.0199
 Red. masses --      4.5089                 2.4816                 1.8252
 Frc consts  --      0.0835                 0.0806                 0.0646
 IR Inten    --      0.9658                 3.7705                 2.0522

                     13                     14                     15
                      A                      A                      A
 Frequencies --    265.8982               270.8006               298.7317
 Red. masses --      1.3628                 1.6633                 3.2050
 Frc consts  --      0.0568                 0.0719                 0.1685
 IR Inten    --      1.4278                 1.6339                 0.2171

                     16                     17                     18
                      A                      A                      A
 Frequencies --    318.9779               389.2338               394.8834
 Red. masses --      5.0957                 3.0428                 4.3436
 Frc consts  --      0.3055                 0.2716                 0.3991
 IR Inten    --      4.3039                 8.4507                12.6564

                     19                     20                     21
                      A                      A                      A
 Frequencies --    418.5500               430.4299               443.8508
 Red. masses --      3.0701                 3.5304                 5.3744
 Frc consts  --      0.3169                 0.3854                 0.6238
 IR Inten    --      6.1427                 3.8279                 5.6548

                     22                     23                     24
                      A                      A                      A
 Frequencies --    484.3415               503.3480               540.9764
 Red. masses --      3.5303                 3.5128                 2.9028
 Frc consts  --      0.4879                 0.5244                 0.5005
 IR Inten    --      4.8902                 0.9357                13.9168

                     25                     26                     27
                      A                      A                      A
 Frequencies --    566.2153               573.9960               586.0846
 Red. masses --      1.2763                 3.2739                 2.4723
 Frc consts  --      0.2411                 0.6355                 0.5003
 IR Inten    --     67.4177                 0.1926                48.0409

                     28                     29                     30
                      A                      A                      A
 Frequencies --    656.0504               661.5745               704.7519
 Red. masses --      6.6953                 3.6828                 2.2621
 Frc consts  --      1.6978                 0.9497                 0.6620
 IR Inten    --      1.5521                44.0476                26.2997

                     31                     32                     33
                      A                      A                      A
 Frequencies --    719.5793               746.1147               754.9303
 Red. masses --      3.6246                 2.8589                 3.6763
 Frc consts  --      1.1058                 0.9377                 1.2344
 IR Inten    --     20.3148                31.6929                19.3129

                     34                     35                     36
                      A                      A                      A
 Frequencies --    776.2451               812.0496               818.8421
 Red. masses --      2.4781                 2.4344                 1.4878
 Frc consts  --      0.8798                 0.9458                 0.5877
 IR Inten    --    134.4026                 8.1421                11.7049

                     37                     38                     39
                      A                      A                      A
 Frequencies --    845.8852               851.8732               865.4587
 Red. masses --      3.4635                 1.8062                 3.3950
 Frc consts  --      1.4601                 0.7723                 1.4982
 IR Inten    --     37.8912                86.2058                 3.0018

                     40                     41                     42
                      A                      A                      A
 Frequencies --    887.6560               928.2630               946.3960
 Red. masses --      1.8717                 1.3206                 1.4856
 Frc consts  --      0.8689                 0.6704                 0.7840
 IR Inten    --     60.5313                 0.3967                 4.7792

                     43                     44                     45
                      A                      A                      A
 Frequencies --    948.4656               972.8717              1000.8693
 Red. masses --      1.4546                 2.1803                 3.7833
 Frc consts  --      0.7710                 1.2158                 2.2329
 IR Inten    --     10.0913                 3.4481                22.6914

                     46                     47                     48
                      A                      A                      A
 Frequencies --   1032.7173              1087.8384              1095.0954
 Red. masses --      2.6427                 5.7352                 1.6221
 Frc consts  --      1.6606                 3.9988                 1.1461
 IR Inten    --      0.7043                67.7373                22.9930

                     49                     50                     51
                      A                      A                      A
 Frequencies --   1121.6781              1141.9270              1174.7329
 Red. masses --      1.9639                 1.4075                 2.1011
 Frc consts  --      1.4558                 1.0813                 1.7083
 IR Inten    --     22.3641                13.8352                16.8323

                     52                     53                     54
                      A                      A                      A
 Frequencies --   1187.5110              1206.7404              1214.5951
 Red. masses --      1.2721                 1.2015                 1.7446
 Frc consts  --      1.0570                 1.0309                 1.5164
 IR Inten    --      0.7499               109.3639               435.3294

                     55                     56                     57
                      A                      A                      A
 Frequencies --   1220.1086              1241.7757              1277.9479
 Red. masses --      1.3970                 1.5988                 1.6886
 Frc consts  --      1.2253                 1.4525                 1.6248
 IR Inten    --     18.5374               157.5926                69.4939

                     58                     59                     60
                      A                      A                      A
 Frequencies --   1282.1849              1300.7304              1327.4494
 Red. masses --      1.9984                 5.2107                 1.7891
 Frc consts  --      1.9357                 5.1942                 1.8575
 IR Inten    --    186.6253                84.2773               157.1253

                     61                     62                     63
                      A                      A                      A
 Frequencies --   1346.2960              1354.6819              1381.5505
 Red. masses --      1.3924                 3.1040                 1.6721
 Frc consts  --      1.4869                 3.3562                 1.8803
 IR Inten    --     19.0607                14.2852                13.4639

                     64                     65                     66
                      A                      A                      A
 Frequencies --   1406.0585              1442.8121              1448.1869
 Red. masses --      1.4922                 1.3158                 2.2367
 Frc consts  --      1.7381                 1.6139                 2.7637
 IR Inten    --     87.0828                19.2337                76.0783

                     67                     68                     69
                      A                      A                      A
 Frequencies --   1461.8546              1465.3610              1500.7392
 Red. masses --      2.5158                 2.2225                 1.1959
 Frc consts  --      3.1676                 2.8118                 1.5869
 IR Inten    --     19.4929                73.4869                30.8170

                     70                     71                     72
                      A                      A                      A
 Frequencies --   1517.2592              1520.1476              1523.4657
 Red. masses --      1.0878                 1.0481                 1.1607
 Frc consts  --      1.4754                 1.4269                 1.5872
 IR Inten    --      7.0524                 4.7580                49.3704

                     73                     74                     75
                      A                      A                      A
 Frequencies --   1535.1555              1536.8727              1557.3216
 Red. masses --      1.0566                 1.0664                 1.4419
 Frc consts  --      1.4672                 1.4840                 2.0603
 IR Inten    --     11.4255                49.8067                48.6999

                     76                     77                     78
                      A                      A                      A
 Frequencies --   1567.5628              1648.3655              1682.1813
 Red. masses --      2.4201                 4.3381                 5.8163
 Frc consts  --      3.5037                 6.9447                 9.6971
 IR Inten    --    211.1140                 1.0291                 5.9337

                     79                     80                     81
                      A                      A                      A
 Frequencies --   1772.6594              1852.6568              3018.4106
 Red. masses --      8.0566                 8.0609                 1.0353
 Frc consts  --     14.9160                16.3014                 5.5573
 IR Inten    --    207.1612               648.4958                64.4131

                     82                     83                     84
                      A                      A                      A
 Frequencies --   3053.6531              3073.9183              3083.9225
 Red. masses --      1.0396                 1.1062                 1.0818
 Frc consts  --      5.7116                 6.1587                 6.0619
 IR Inten    --     17.6593                49.1404                 8.8442

                     85                     86                     87
                      A                      A                      A
 Frequencies --   3091.6142              3121.4663              3146.3446
 Red. masses --      1.0724                 1.0977                 1.1034
 Frc consts  --      6.0389                 6.3019                 6.4354
 IR Inten    --      3.9724                27.5326                20.4932

                     88                     89                     90
                      A                      A                      A
 Frequencies --   3154.3853              3191.7629              3198.5315
 Red. masses --      1.0990                 1.0886                 1.0936
 Frc consts  --      6.4427                 6.5342                 6.5916
 IR Inten    --     32.2268                17.0069                 2.0563

                     91                     92                     93
                      A                      A                      A
 Frequencies --   3199.5188              3216.1130              3225.9700
 Red. masses --      1.0881                 1.0943                 1.0914
 Frc consts  --      6.5629                 6.6686                 6.6921
 IR Inten    --      7.2732                 6.6825                13.2029

                     94                     95                     96
                      A                      A                      A
 Frequencies --   3509.8755              3588.2463              3717.0085
 Red. masses --      1.0734                 1.0760                 1.0645
 Frc consts  --      7.7908                 8.1627                 8.6653
 IR Inten    --      8.5139                56.3242               104.1138

 - Thermochemistry -
 -------------------
 Temperature   298.150 Kelvin.  Pressure   1.00000 Atm.
 Atom     1 has atomic number  6 and mass  12.00000

 Molecular mass:   252.11101 amu.
 Principal axes and moments of inertia in atomic units:
                           1         2         3
     Eigenvalues --  1664.12341********************
           X            0.99996   0.00392  -0.00826
           Y           -0.00373   0.99974   0.02267
           Z            0.00835  -0.02264   0.99971
 This molecule is an asymmetric top.
 Rotational symmetry number  1.
 Warning -- assumption of classical behavior for rotation
           may cause significant error
 Rotational temperatures (Kelvin)      0.05205     0.00767     0.00745
 Rotational constants (GHZ):           1.08450     0.15982     0.15520
 Zero-point vibrational energy     734168.0 (Joules/Mol)
                                  175.47036 (Kcal/Mol)
 Warning -- explicit consideration of  27 degrees of freedom as
           vibrations may cause significant error
 Vibrational temperatures:     32.24    48.24    63.80    68.29    97.62
          (Kelvin)            117.11   163.10   173.88   209.98   255.05
                              337.71   352.53   382.57   389.62   429.81
                              458.94   560.02   568.15   602.20   619.29
                              638.60   696.86   724.21   778.34   814.66
                              825.85   843.25   943.91   951.86  1013.98
                             1035.31  1073.49  1086.18  1116.84  1168.36
                             1178.13  1217.04  1225.66  1245.20  1277.14
                             1335.56  1361.65  1364.63  1399.75  1440.03
                             1485.85  1565.16  1575.60  1613.84  1642.98
                             1690.18  1708.56  1736.23  1747.53  1755.46
                             1786.64  1838.68  1844.78  1871.46  1909.90
                             1937.02  1949.09  1987.74  2023.00  2075.88
                             2083.62  2103.28  2108.33  2159.23  2183.00
                             2187.15  2191.93  2208.75  2211.22  2240.64
                             2255.37  2371.63  2420.28  2550.46  2665.56
                             4342.82  4393.53  4422.68  4437.08  4448.14
                             4491.09  4526.89  4538.46  4592.23  4601.97
                             4603.39  4627.27  4641.45  5049.93  5162.69
                             5347.95

 Zero-point correction=                           0.279630 (Hartree/Particle)
 Thermal correction to Energy=                    0.297263
 Thermal correction to Enthalpy=                  0.298207
 Thermal correction to Gibbs Free Energy=         0.231826
 Sum of electronic and zero-point Energies=           -877.113969
 Sum of electronic and thermal Energies=              -877.096336
 Sum of electronic and thermal Enthalpies=            -877.095392
 Sum of electronic and thermal Free Energies=         -877.161772

                     E (Thermal)             CV                S
                      KCal/Mol        Cal/Mol-Kelvin    Cal/Mol-Kelvin
 Total                  186.535             65.822            139.710
 Electronic               0.000              0.000              0.000
 Translational            0.889              2.981             42.474
 Rotational               0.889              2.981             33.746
 Vibrational            184.758             59.860             63.490
 Vibration     1          0.593              1.985              6.409
 Vibration     2          0.594              1.983              5.609
 Vibration     3          0.595              1.980              5.055
 Vibration     4          0.595              1.979              4.920
 Vibration     5          0.598              1.970              4.215
 Vibration     6          0.600              1.962              3.857
 Vibration     7          0.607              1.938              3.211
 Vibration     8          0.609              1.932              3.087
 Vibration     9          0.617              1.907              2.724
 Vibration    10          0.628              1.870              2.357
 Vibration    11          0.655              1.788              1.843
 Vibration    12          0.660              1.771              1.766
 Vibration    13          0.672              1.736              1.623
 Vibration    14          0.674              1.727              1.591
 Vibration    15          0.692              1.676              1.424
 Vibration    16          0.705              1.637              1.315
 Vibration    17          0.757              1.493              1.003
 Vibration    18          0.762              1.481              0.982
 Vibration    19          0.781              1.430              0.897
 Vibration    20          0.792              1.404              0.857
 Vibration    21          0.803              1.374              0.815
 Vibration    22          0.840              1.285              0.698
 Vibration    23          0.859              1.243              0.650
 Vibration    24          0.896              1.159              0.563
 Vibration    25          0.922              1.104              0.512
 Vibration    26          0.930              1.087              0.497
 Vibration    27          0.943              1.061              0.474

 Optimization completed.
    -- Stationary point found.
 Normal termination of Gaussian 16 at Fri Dec 11 20:00:43 2020.

 ----------------------------------------------------------------------
 # B3LYP/6-311++G(d,p) empiricaldispersion=gd3bj scf=xqc pop=npa geom=c
 heck
 ----------------------------------------------------------------------

 --------------------------------------
 CID_69425571_JID_8219_Energie_neutraal
 --------------------------------------
 Structure from the checkpoint file:  "JID_8219.chk"
 Charge =  0 Multiplicity = 1

 SCF Done:  E(RB3LYP) =  -877.657497360     A.U. after   15 cycles
 Normal termination of Gaussian 16 at Fri Dec 11 20:06:30 2020.

 ----------------------------------------------------------------------
 # B3LYP/6-311++G(d,p) empiricaldispersion=gd3bj scf=xqc pop=npa geom=c
 heck
 ----------------------------------------------------------------------

 ------------------------------------
 CID_69425571_JID_8219_Energie_kation
 ------------------------------------
 Structure from the checkpoint file:  "JID_8219.chk"
 Charge =  1 Multiplicity = 2

 SCF Done:  E(UB3LYP) =  -877.392987696     A.U. after   22 cycles
 Normal termination of Gaussian 16 at Fri Dec 11 20:19:06 2020.
 Gaussian 16:  ES64L-G16RevA.03 25-Dec-2016

 ----------------------------------------------------------------------
 # B3LYP/6-311++G(d,p) empiricaldispersion=gd3bj scf=xqc pop=npa geom=c
 heck
 ----------------------------------------------------------------------

 -----------------------------------
 CID_69425571_JID_8219_Energie_anion
 -----------------------------------
 Structure from the checkpoint file:  "JID_8219.chk"
 Charge = -1 Multiplicity = 2

                         Standard orientation:
 ---------------------------------------------------------------------
 Center     Atomic      Atomic             Coordinates (Angstroms)
 Number     Number       Type             X           Y           Z
 ---------------------------------------------------------------------
      1          6           0       -2.044853   -2.034464    0.966789
      2          6           0       -0.880281   -1.315197    0.287860
      3          6           0       -1.357790   -0.117928   -0.599072
      4          6           0       -2.142838    0.866004    0.224276
      5          8           0       -1.620604    1.536145    1.104714
      6          7           0       -3.528167    1.030082    0.049191
      7          6           0       -4.516507    0.429311   -0.712183
      8          8           0       -5.678005    0.770639   -0.654175
      9          8           0       -4.074558   -0.570294   -1.509813
     10          7           0        0.106735   -0.914715    1.292804
     11          6           0        1.356034   -0.460111    0.796602
     12          6           0        1.786603    0.860092    1.009020
     13          6           0        3.031529    1.284170    0.562048
     14          6           0        3.869387    0.407670   -0.137696
     15          6           0        3.445413   -0.904500   -0.372457
     16          6           0        2.203756   -1.329699    0.103061
     17          8           0        5.069355    0.924803   -0.547726
     18          6           0        5.948363    0.066781   -1.250118
     19          1           0       -2.532705   -1.382925    1.702288
     20          1           0       -1.679956   -2.917781    1.497691
     21          1           0       -2.799003   -2.338474    0.234029
     22          1           0       -0.384218   -2.011965   -0.394883
     23          1           0       -0.464553    0.408584   -0.950629
     24          1           0       -1.916742   -0.483298   -1.456817
     25          1           0       -3.906988    1.736995    0.670608
     26          1           0       -4.869134   -0.887217   -1.975778
     27          1           0       -0.305096   -0.195209    1.883369
     28          1           0        1.123979    1.557318    1.513453
     29          1           0        3.369076    2.302106    0.729142
     30          1           0        4.075430   -1.608205   -0.903787
     31          1           0        1.900762   -2.361894   -0.047930
     32          1           0        6.243469   -0.798045   -0.640245
     33          1           0        5.500384   -0.293978   -2.186337
     34          1           0        6.832907    0.663307   -1.480932
 ---------------------------------------------------------------------

 SCF Done:  E(UB3LYP) =  -877.654597510     A.U. after   33 cycles
 SCF Done:  E(UB3LYP) =  -877.654597510     a.u. after    1 cycles

 The electronic state is 2-A.
 Alpha  occ. eigenvalues --  -19.07840 -19.06346 -19.01019 -18.99546 -14.26274
 Alpha  occ. eigenvalues --  -14.20948 -10.23380 -10.17272 -10.13782 -10.13620
 Alpha  occ. eigenvalues --  -10.11379 -10.10755 -10.08213 -10.07930 -10.07853
 Alpha  occ. eigenvalues --  -10.07753 -10.07242 -10.06463  -1.02659  -0.97921
 Alpha  occ. eigenvalues --   -0.95044  -0.93043  -0.83280  -0.83014  -0.75365
 Alpha  occ. eigenvalues --   -0.68802  -0.66180  -0.64597  -0.61847  -0.59467
 Alpha  occ. eigenvalues --   -0.57587  -0.53501  -0.52015  -0.49961  -0.48490
 Alpha  occ. eigenvalues --   -0.44811  -0.42675  -0.42173  -0.40709  -0.39254
 Alpha  occ. eigenvalues --   -0.38724  -0.38252  -0.37414  -0.36435  -0.35524
 Alpha  occ. eigenvalues --   -0.34856  -0.34006  -0.33259  -0.32796  -0.32077
 Alpha  occ. eigenvalues --   -0.31049  -0.30382  -0.29868  -0.28676  -0.27216
 Alpha  occ. eigenvalues --   -0.26887  -0.25630  -0.25352  -0.24096  -0.23888
 Alpha  occ. eigenvalues --   -0.23418  -0.20757  -0.19197  -0.17561  -0.16459
 Alpha  occ. eigenvalues --   -0.16025  -0.10586   0.03771
 Alpha virt. eigenvalues --    0.05092   0.06165   0.07243   0.07579   0.08235
 Alpha virt. eigenvalues --    0.08688   0.08748   0.09065   0.09656   0.10104
 Alpha virt. eigenvalues --    0.10740   0.11171   0.11501   0.12073   0.12484

  Beta  occ. eigenvalues --  -19.07777 -19.06339 -19.00922 -18.99359 -14.26319
  Beta  occ. eigenvalues --  -14.20946 -10.23251 -10.17011 -10.13782 -10.13586
  Beta  occ. eigenvalues --  -10.11349 -10.10757 -10.08204 -10.07928 -10.07840
  Beta  occ. eigenvalues --  -10.07751 -10.07259 -10.06446  -1.02489  -0.97907
  Beta  occ. eigenvalues --   -0.94689  -0.92874  -0.83263  -0.82926  -0.75352
  Beta  occ. eigenvalues --   -0.68733  -0.66156  -0.64545  -0.61719  -0.59431
  Beta  occ. eigenvalues --   -0.57322  -0.53418  -0.51891  -0.49917  -0.48421
  Beta  occ. eigenvalues --   -0.44786  -0.42583  -0.42131  -0.40581  -0.39193
  Beta  occ. eigenvalues --   -0.38288  -0.38225  -0.37289  -0.36236  -0.35444
  Beta  occ. eigenvalues --   -0.34692  -0.33944  -0.33190  -0.32709  -0.32010
  Beta  occ. eigenvalues --   -0.30976  -0.30105  -0.29507  -0.28645  -0.27174
  Beta  occ. eigenvalues --   -0.26840  -0.25580  -0.25246  -0.24051  -0.23635
  Beta  occ. eigenvalues --   -0.23272  -0.20643  -0.18732  -0.17514  -0.16441
  Beta  occ. eigenvalues --   -0.15911  -0.10562
  Beta virt. eigenvalues --    0.05811   0.06737   0.07553   0.07718   0.08155
  Beta virt. eigenvalues --    0.08365   0.08806   0.09072   0.09273   0.09899
  Beta virt. eigenvalues --    0.10271   0.10862   0.11216   0.11729   0.12074

 Mulliken charges and spin densities:
               1          2
     1  C   -0.177499  -0.486939
     2  C   -1.086970   0.932411
     3  C    0.454798  -0.709416
     4  C    0.195948  -0.177332
     5  O   -0.369815   0.073679
     6  N   -0.296269  -0.029081
     7  C    0.408061  -0.172473
     8  O   -0.350764   0.035832
     9  O   -0.259679   0.014824
    10  N    0.321915  -0.043816
    11  C    0.385622  -0.970109
    12  C    0.533596  -0.020911
    13  C   -0.699108   0.349511
    14  C   -0.691285   0.037462
    15  C    0.188173   0.134537
    16  C   -0.006932  -0.195861
    17  O   -0.196773   0.034605
    18  C    0.468380  -0.802767
    19  H    0.142349   0.023246
    20  H    0.058092   0.107027
    21  H   -0.011938   0.163191
    22  H   -0.198651   0.364761
    23  H    0.231811  -0.047446
    24  H    0.057910   0.210567
    25  H    0.321762   0.002723
    26  H   -0.194347   0.519223
    27  H    0.283370  -0.047156
    28  H    0.148736   0.044779
    29  H    0.155379   0.024396
    30  H   -0.162439   0.357378
    31  H   -0.166189   0.316387
    32  H   -0.074300   0.223320
    33  H   -0.136892   0.291249
    34  H   -0.276052   0.442201
 Sum of Mulliken charges =  -1.00000   1.00000

 Dipole moment (field-independent basis, Debye):
    X=              1.1665    Y=              1.4294    Z=              2.7326  Tot=              3.2971
 Quadrupole moment (field-independent basis, Debye-Ang):
   XX=           -227.2659   YY=           -136.3254   ZZ=           -134.3084
   XY=              0.1220   XZ=             -1.8972   YZ=             -4.1541

 Summary of Natural Population Analysis:

                                       Natural Population
                Natural  -----------------------------------------------
    Atom  No    Charge         Core      Valence    Rydberg      Total
 -----------------------------------------------------------------------
      C    1   -0.29107      0.99964     2.28446    0.00697     3.29107
      C    2    0.00051      0.99960     1.98760    0.01229     2.99949
      C    3   -0.25054      0.99956     2.24235    0.00862     3.25054
      C    4    0.38340      0.99968     1.59329    0.02363     2.61660
      O    5   -0.30702      0.99987     3.30138    0.00577     4.30702
      N    6   -0.34105      0.99964     2.83275    0.00867     3.84105
      C    7    0.47578      0.99975     1.50003    0.02444     2.52422
      O    8   -0.31896      0.99987     3.31333    0.00576     4.31896
      O    9   -0.34875      0.99987     3.34162    0.00726     4.34875
      N   10   -0.33226      0.99969     2.82168    0.01089     3.83226
      C   11    0.07040      0.99947     1.91818    0.01194     2.92960
      C   12   -0.11056      0.99952     2.10312    0.00791     3.11056
      C   13   -0.11633      0.99953     2.10781    0.00899     3.11633
      C   14    0.14576      0.99938     1.84104    0.01382     2.85424
      C   15   -0.14004      0.99953     2.13198    0.00854     3.14004
      C   16   -0.10425      0.99952     2.09548    0.00925     3.10425
      O   17   -0.27628      0.99986     3.26686    0.00956     4.27628
      C   18   -0.10118      0.99961     2.09233    0.00924     3.10118
      H   19    0.09687      0.00000     0.40227    0.00085     0.40313
      H   20    0.10190      0.00000     0.39716    0.00094     0.39810
      H   21    0.10657      0.00000     0.39242    0.00100     0.39343
      H   22    0.09689      0.00000     0.40091    0.00220     0.40311
      H   23    0.11776      0.00000     0.38120    0.00104     0.38224
      H   24    0.11952      0.00000     0.37881    0.00167     0.38048
      H   25    0.20373      0.00000     0.29412    0.00214     0.29627
      H   26    0.24903      0.00000     0.24080    0.01017     0.25097
      H   27    0.18705      0.00000     0.31058    0.00237     0.31295
      H   28    0.11020      0.00000     0.38888    0.00092     0.38980
      H   29    0.10411      0.00000     0.39492    0.00097     0.39589
      H   30    0.10521      0.00000     0.39347    0.00132     0.39479
      H   31    0.10250      0.00000     0.39604    0.00146     0.39750
      H   32    0.08345      0.00000     0.41513    0.00142     0.41655
      H   33    0.08505      0.00000     0.41338    0.00156     0.41495
      H   34    0.09257      0.00000     0.40636    0.00107     0.40743
 =======================================================================
   * Total *    0.00000     17.99359    48.78175    0.22466    67.00000

 Normal termination of Gaussian 16 at Fri Dec 11 20:38:56 2020.
