 Gaussian 16, Revision A.03,

 -----------------------------------------------------------
 # opt freq B3LYP/6-31G(d) empiricaldispersion=gd3bj scf=xqc
 -----------------------------------------------------------

 -------------------------------
 CID_132380116_JID_6462_neutraal
 -------------------------------
 Symbolic Z-matrix:
 Charge =  0 Multiplicity = 1

 SCF Done:  E(RB3LYP) =  -759.014105727     A.U. after   15 cycles
 SCF Done:  E(RB3LYP) =  -759.014669652     A.U. after   14 cycles
 SCF Done:  E(RB3LYP) =  -759.020771547     A.U. after   14 cycles
 SCF Done:  E(RB3LYP) =  -759.022311595     A.U. after   12 cycles
 SCF Done:  E(RB3LYP) =  -759.022910512     A.U. after   13 cycles
 SCF Done:  E(RB3LYP) =  -759.023452641     A.U. after   12 cycles
 SCF Done:  E(RB3LYP) =  -759.023530783     A.U. after   12 cycles
 SCF Done:  E(RB3LYP) =  -759.023596669     A.U. after   11 cycles
 SCF Done:  E(RB3LYP) =  -759.023616569     A.U. after   10 cycles
 SCF Done:  E(RB3LYP) =  -759.023623320     A.U. after    9 cycles
 SCF Done:  E(RB3LYP) =  -759.023631450     A.U. after    9 cycles
 SCF Done:  E(RB3LYP) =  -759.023634192     A.U. after   10 cycles
 SCF Done:  E(RB3LYP) =  -759.023636069     A.U. after    9 cycles
 SCF Done:  E(RB3LYP) =  -759.023636453     A.U. after    8 cycles
 SCF Done:  E(RB3LYP) =  -759.023636526     A.U. after    8 cycles
 SCF Done:  E(RB3LYP) =  -759.023636579     A.U. after    8 cycles
 Optimization completed.
    -- Stationary point found.
 Normal termination of Gaussian 16 at Thu Dec 10 23:02:10 2020.

 --------------------------------------------------------------------
 #N Geom=AllCheck Guess=TCheck SCRF=Check GenChk RB3LYP/6-31G(d) Freq
 --------------------------------------------------------------------

 Structure from the checkpoint file:  "JID_6462.chk"
 -------------------------------
 CID_132380116_JID_6462_neutraal
 -------------------------------
 Charge =  0 Multiplicity = 1

 SCF Done:  E(RB3LYP) =  -759.023636579     A.U. after    1 cycles

  Exact polarizability: 153.415 -11.863 146.711  -5.180  -0.010  96.333
 Approx polarizability: 217.446 -10.412 223.291 -20.228   0.746 169.983

                      1                      2                      3
                      A                      A                      A
 Frequencies --     31.6941                47.0268                60.2028
 Red. masses --      5.6776                 4.4084                 5.4335
 Frc consts  --      0.0034                 0.0057                 0.0116
 IR Inten    --      1.8596                 0.8487                 1.3695

                      4                      5                      6
                      A                      A                      A
 Frequencies --     67.8008                85.3218               118.7567
 Red. masses --      5.1782                 2.8904                 3.0340
 Frc consts  --      0.0140                 0.0124                 0.0252
 IR Inten    --      0.6399                 1.6551                 0.6469

                      7                      8                      9
                      A                      A                      A
 Frequencies --    126.9670               152.9802               217.2645
 Red. masses --      4.3836                 2.7095                 2.6535
 Frc consts  --      0.0416                 0.0374                 0.0738
 IR Inten    --      0.7992                 1.5211                 2.1962

                     10                     11                     12
                      A                      A                      A
 Frequencies --    228.6292               237.3101               247.2186
 Red. masses --      1.4010                 2.7158                 1.6245
 Frc consts  --      0.0431                 0.0901                 0.0585
 IR Inten    --      1.9883                 8.4066                 4.8639

                     13                     14                     15
                      A                      A                      A
 Frequencies --    303.9878               306.9742               330.6445
 Red. masses --      4.8431                 3.2474                 2.9890
 Frc consts  --      0.2637                 0.1803                 0.1925
 IR Inten    --      2.3275                 4.1981                 2.1945

                     16                     17                     18
                      A                      A                      A
 Frequencies --    370.0699               383.9394               409.3320
 Red. masses --      2.8945                 7.1714                 5.7412
 Frc consts  --      0.2336                 0.6228                 0.5668
 IR Inten    --      8.9657                 3.5514                 4.4537

                     19                     20                     21
                      A                      A                      A
 Frequencies --    439.1497               508.0676               518.7940
 Red. masses --      2.5997                 1.5273                 2.3496
 Frc consts  --      0.2954                 0.2323                 0.3726
 IR Inten    --      3.5185               186.9712               130.3432

                     22                     23                     24
                      A                      A                      A
 Frequencies --    552.2625               592.5511               626.6661
 Red. masses --      4.2307                 3.7149                 5.9809
 Frc consts  --      0.7602                 0.7685                 1.3838
 IR Inten    --     19.2320                 3.4749                 6.3482

                     25                     26                     27
                      A                      A                      A
 Frequencies --    649.1339               663.3779               701.8371
 Red. masses --      3.9039                 1.4857                 4.0912
 Frc consts  --      0.9692                 0.3852                 1.1873
 IR Inten    --     11.2535                74.4668                 9.2999

                     28                     29                     30
                      A                      A                      A
 Frequencies --    757.3277               775.8344               791.7033
 Red. masses --      5.0920                 4.3230                 1.3699
 Frc consts  --      1.7207                 1.5331                 0.5059
 IR Inten    --      4.5318                 9.1024                 1.1577

                     31                     32                     33
                      A                      A                      A
 Frequencies --    802.2374               824.1136               855.9856
 Red. masses --      1.1894                 3.1202                10.1540
 Frc consts  --      0.4510                 1.2486                 4.3835
 IR Inten    --      4.8249                17.6123                 2.3835

                     34                     35                     36
                      A                      A                      A
 Frequencies --    887.8236               908.3354               964.1220
 Red. masses --      1.2954                 2.8969                 2.1846
 Frc consts  --      0.6016                 1.4082                 1.1964
 IR Inten    --     10.2680                18.1841                 6.0601

                     37                     38                     39
                      A                      A                      A
 Frequencies --    987.2679              1020.6319              1095.6313
 Red. masses --      1.4481                 2.9481                 2.8783
 Frc consts  --      0.8316                 1.8094                 2.0357
 IR Inten    --      0.0277                 3.8192                 1.8717

                     40                     41                     42
                      A                      A                      A
 Frequencies --   1102.6337              1107.8981              1119.1301
 Red. masses --      2.1930                 2.9554                 1.8599
 Frc consts  --      1.5709                 2.1373                 1.3724
 IR Inten    --     27.3423                36.7030                30.7564

                     43                     44                     45
                      A                      A                      A
 Frequencies --   1135.4406              1156.5099              1177.7591
 Red. masses --      1.7314                 1.8399                 2.3389
 Frc consts  --      1.3152                 1.4499                 1.9115
 IR Inten    --     12.6789                 0.5432                33.6613

                     46                     47                     48
                      A                      A                      A
 Frequencies --   1238.0577              1246.3928              1255.7493
 Red. masses --      4.2685                 3.5514                 2.6429
 Frc consts  --      3.8549                 3.2505                 2.4555
 IR Inten    --      3.2744                37.0663                14.6100

                     49                     50                     51
                      A                      A                      A
 Frequencies --   1273.9440              1333.5052              1356.9909
 Red. masses --      2.0289                 1.4039                 1.3863
 Frc consts  --      1.9401                 1.4709                 1.5040
 IR Inten    --      8.2200                49.5171                43.4742

                     52                     53                     54
                      A                      A                      A
 Frequencies --   1388.7681              1397.2488              1415.4947
 Red. masses --      2.6651                 1.2786                 1.3507
 Frc consts  --      3.0284                 1.4707                 1.5945
 IR Inten    --     96.0708                13.8297                 8.6379

                     55                     56                     57
                      A                      A                      A
 Frequencies --   1424.9155              1436.9874              1440.3396
 Red. masses --      2.6196                 1.2897                 1.2606
 Frc consts  --      3.1337                 1.5691                 1.5408
 IR Inten    --     12.9278                10.1757                28.5812

                     58                     59                     60
                      A                      A                      A
 Frequencies --   1488.4235              1504.3536              1513.4913
 Red. masses --      2.3880                 1.2999                 1.3227
 Frc consts  --      3.1171                 1.7332                 1.7852
 IR Inten    --     13.2515                44.6920                34.1940

                     61                     62                     63
                      A                      A                      A
 Frequencies --   1520.0254              1523.6329              1533.6997
 Red. masses --      1.0467                 1.1124                 1.0617
 Frc consts  --      1.4248                 1.5215                 1.4714
 IR Inten    --      4.0278                 4.7879                 7.5959

                     64                     65                     66
                      A                      A                      A
 Frequencies --   1536.8062              1543.6563              1597.0873
 Red. masses --      1.3470                 1.2112                 7.2465
 Frc consts  --      1.8744                 1.7004                10.8902
 IR Inten    --     56.6132                17.1797                 3.6034

                     67                     68                     69
                      A                      A                      A
 Frequencies --   1602.0731              1659.4736              1714.8121
 Red. masses --      6.0218                 1.3686                 5.3990
 Frc consts  --      9.1063                 2.2206                 9.3540
 IR Inten    --      5.3502               208.6385               229.6464

                     70                     71                     72
                      A                      A                      A
 Frequencies --   1803.1265              3057.6239              3058.5280
 Red. masses --      9.8449                 1.0377                 1.0367
 Frc consts  --     18.8587                 5.7159                 5.7140
 IR Inten    --    295.5225                12.0157                20.8973

                     73                     74                     75
                      A                      A                      A
 Frequencies --   3063.9682              3085.8183              3118.0595
 Red. masses --      1.0675                 1.0646                 1.1008
 Frc consts  --      5.9044                 5.9727                 6.3059
 IR Inten    --     31.6254                27.0125                 7.5480

                     76                     77                     78
                      A                      A                      A
 Frequencies --   3120.5092              3137.3085              3141.0299
 Red. masses --      1.1024                 1.0961                 1.0992
 Frc consts  --      6.3249                 6.3563                 6.3894
 IR Inten    --     25.1630                28.1611                18.8504

                     79                     80                     81
                      A                      A                      A
 Frequencies --   3153.7486              3156.7676              3182.0530
 Red. masses --      1.1042                 1.1030                 1.0878
 Frc consts  --      6.4710                 6.4762                 6.4897
 IR Inten    --     12.3709                21.1880                 3.0217

                     82                     83                     84
                      A                      A                      A
 Frequencies --   3199.9284              3495.5579              3666.2892
 Red. masses --      1.0970                 1.0544                 1.0978
 Frc consts  --      6.6184                 7.5905                 8.6938
 IR Inten    --     42.2668               151.6295                85.2484

 - Thermochemistry -
 -------------------
 Temperature   298.150 Kelvin.  Pressure   1.00000 Atm.
 Atom     1 has atomic number  6 and mass  12.00000

 Molecular mass:   222.11168 amu.
 Principal axes and moments of inertia in atomic units:
                           1         2         3
     Eigenvalues --  2551.684143909.205995380.76828
           X            0.99964  -0.02179   0.01558
           Y            0.02143   0.99952   0.02250
           Z           -0.01606  -0.02215   0.99963
 This molecule is an asymmetric top.
 Rotational symmetry number  1.
 Warning -- assumption of classical behavior for rotation
           may cause significant error
 Rotational temperatures (Kelvin)      0.03394     0.02216     0.01610
 Rotational constants (GHZ):           0.70727     0.46166     0.33541
 Zero-point vibrational energy     644994.1 (Joules/Mol)
                                  154.15729 (Kcal/Mol)
 Warning -- explicit consideration of  23 degrees of freedom as
           vibrations may cause significant error
 Vibrational temperatures:     45.60    67.66    86.62    97.55   122.76
          (Kelvin)            170.86   182.68   220.10   312.60   328.95
                              341.44   355.69   437.37   441.67   475.72
                              532.45   552.40   588.94   631.84   731.00
                              746.43   794.58   852.55   901.63   933.96
                              954.45  1009.79  1089.63  1116.25  1139.08
                             1154.24  1185.72  1231.57  1277.38  1306.89
                             1387.16  1420.46  1468.46  1576.37  1586.44
                             1594.02  1610.18  1633.65  1663.96  1694.53
                             1781.29  1793.28  1806.74  1832.92  1918.62
                             1952.41  1998.13  2010.33  2036.58  2050.14
                             2067.50  2072.33  2141.51  2164.43  2177.58
                             2186.98  2192.17  2206.65  2211.12  2220.98
                             2297.85  2305.03  2387.61  2467.23  2594.30
                             4399.24  4400.54  4408.37  4439.80  4486.19
                             4489.72  4513.89  4519.24  4537.54  4541.88
                             4578.26  4603.98  5029.33  5274.97

 Zero-point correction=                           0.245665 (Hartree/Particle)
 Thermal correction to Energy=                    0.261422
 Thermal correction to Enthalpy=                  0.262366
 Thermal correction to Gibbs Free Energy=         0.201588
 Sum of electronic and zero-point Energies=           -758.777971
 Sum of electronic and thermal Energies=              -758.762215
 Sum of electronic and thermal Enthalpies=            -758.761271
 Sum of electronic and thermal Free Energies=         -758.822048

                     E (Thermal)             CV                S
                      KCal/Mol        Cal/Mol-Kelvin    Cal/Mol-Kelvin
 Total                  164.045             58.006            127.917
 Electronic               0.000              0.000              0.000
 Translational            0.889              2.981             42.097
 Rotational               0.889              2.981             32.351
 Vibrational            162.267             52.044             53.470
 Vibration     1          0.594              1.983              5.720
 Vibration     2          0.595              1.979              4.939
 Vibration     3          0.597              1.973              4.451
 Vibration     4          0.598              1.970              4.216
 Vibration     5          0.601              1.959              3.765
 Vibration     6          0.609              1.934              3.121
 Vibration     7          0.611              1.926              2.991
 Vibration     8          0.619              1.899              2.635
 Vibration     9          0.646              1.815              1.982
 Vibration    10          0.651              1.797              1.890
 Vibration    11          0.656              1.784              1.823
 Vibration    12          0.661              1.767              1.750
 Vibration    13          0.695              1.666              1.395
 Vibration    14          0.697              1.660              1.379
 Vibration    15          0.713              1.614              1.257
 Vibration    16          0.742              1.534              1.080
 Vibration    17          0.753              1.504              1.024
 Vibration    18          0.774              1.450              0.929
 Vibration    19          0.799              1.385              0.829
 Vibration    20          0.863              1.232              0.638
 Vibration    21          0.874              1.208              0.613
 Vibration    22          0.908              1.135              0.540
 Vibration    23          0.950              1.048              0.463

 Optimization completed.
    -- Stationary point found.
 Normal termination of Gaussian 16 at Thu Dec 10 23:12:14 2020.

 ----------------------------------------------------------------------
 # B3LYP/6-311++G(d,p) empiricaldispersion=gd3bj scf=xqc pop=npa geom=c
 heck
 ----------------------------------------------------------------------

 ---------------------------------------
 CID_132380116_JID_6462_Energie_neutraal
 ---------------------------------------
 Structure from the checkpoint file:  "JID_6462.chk"
 Charge =  0 Multiplicity = 1

 SCF Done:  E(RB3LYP) =  -759.241141384     A.U. after   16 cycles
 Normal termination of Gaussian 16 at Thu Dec 10 23:16:21 2020.

 ----------------------------------------------------------------------
 # B3LYP/6-311++G(d,p) empiricaldispersion=gd3bj scf=xqc pop=npa geom=c
 heck
 ----------------------------------------------------------------------

 -------------------------------------
 CID_132380116_JID_6462_Energie_kation
 -------------------------------------
 Structure from the checkpoint file:  "JID_6462.chk"
 Charge =  1 Multiplicity = 2

 SCF Done:  E(UB3LYP) =  -758.918468629     A.U. after   31 cycles
 Normal termination of Gaussian 16 at Thu Dec 10 23:26:51 2020.
 Gaussian 16:  ES64L-G16RevA.03 25-Dec-2016

 ----------------------------------------------------------------------
 # B3LYP/6-311++G(d,p) empiricaldispersion=gd3bj scf=xqc pop=npa geom=c
 heck
 ----------------------------------------------------------------------

 ------------------------------------
 CID_132380116_JID_6462_Energie_anion
 ------------------------------------
 Structure from the checkpoint file:  "JID_6462.chk"
 Charge = -1 Multiplicity = 2

                         Standard orientation:
 ---------------------------------------------------------------------
 Center     Atomic      Atomic             Coordinates (Angstroms)
 Number     Number       Type             X           Y           Z
 ---------------------------------------------------------------------
      1          6           0        3.350796   -1.602809    0.290574
      2          6           0        3.099489   -0.243573   -0.362586
      3          7           0        1.776042    0.291104   -0.020714
      4          6           0        1.676114    1.165927    1.150700
      5          6           0        2.050606    2.614938    0.842969
      6          6           0        0.722897   -0.121306   -0.759081
      7          8           0        0.833764   -0.919551   -1.699831
      8          6           0       -0.642295    0.444093   -0.432204
      9          7           0       -0.798214    1.753988   -0.679212
     10          6           0       -2.021323    2.260325   -0.517791
     11          6           0       -3.086381    1.468006   -0.086312
     12          7           0       -2.928011    0.178459    0.207617
     13          6           0       -1.711138   -0.352117    0.025029
     14          6           0       -1.587880   -1.802804    0.475882
     15          8           0       -2.055191   -2.144096    1.551787
     16          7           0       -0.977699   -2.641633   -0.400098
     17          1           0        3.283899   -1.538370    1.382311
     18          1           0        4.348821   -1.972542    0.031527
     19          1           0        2.610565   -2.326905   -0.060625
     20          1           0        3.843907    0.490925   -0.040625
     21          1           0        3.154488   -0.328808   -1.449321
     22          1           0        0.658561    1.110765    1.542293
     23          1           0        2.332605    0.749116    1.923507
     24          1           0        1.361049    3.023709    0.100311
     25          1           0        1.995559    3.220500    1.754379
     26          1           0        3.071023    2.687379    0.451043
     27          1           0       -2.150422    3.319288   -0.728825
     28          1           0       -4.083425    1.884472    0.038977
     29          1           0       -0.447937   -2.277796   -1.188145
     30          1           0       -0.817412   -3.590066   -0.088691
 ---------------------------------------------------------------------

 SCF Done:  E(UB3LYP) =  -759.257810783     A.U. after   31 cycles

 The electronic state is 2-A.
 Alpha  occ. eigenvalues --  -18.97310 -18.95070 -14.23454 -14.19743 -14.14198
 Alpha  occ. eigenvalues --  -14.13453 -10.15217 -10.13541 -10.10705 -10.10519
 Alpha  occ. eigenvalues --  -10.07063 -10.06787 -10.06168 -10.06083 -10.04833
 Alpha  occ. eigenvalues --  -10.04729  -0.92565  -0.90146  -0.83200  -0.81606
 Alpha  occ. eigenvalues --   -0.77327  -0.74360  -0.67493  -0.64978  -0.62716
 Alpha  occ. eigenvalues --   -0.55612  -0.54132  -0.52428  -0.50724  -0.45485
 Alpha  occ. eigenvalues --   -0.43406  -0.41433  -0.40537  -0.38383  -0.37149
 Alpha  occ. eigenvalues --   -0.35289  -0.34489  -0.34358  -0.33029  -0.31782
 Alpha  occ. eigenvalues --   -0.30437  -0.30155  -0.28635  -0.28343  -0.27545
 Alpha  occ. eigenvalues --   -0.27139  -0.26379  -0.25844  -0.25290  -0.24979
 Alpha  occ. eigenvalues --   -0.24248  -0.18005  -0.15519  -0.14802  -0.14560
 Alpha  occ. eigenvalues --   -0.13511  -0.12966  -0.11522  -0.08653   0.04275
 Alpha virt. eigenvalues --    0.06308   0.07894   0.09001   0.09529   0.10055
 Alpha virt. eigenvalues --    0.10398   0.10765   0.11251   0.12041   0.12607
 Alpha virt. eigenvalues --    0.13358   0.13630   0.14467   0.14781   0.14903

  Beta  occ. eigenvalues --  -18.97296 -18.95024 -14.23441 -14.19727 -14.13513
  Beta  occ. eigenvalues --  -14.12724 -10.15188 -10.13520 -10.10702 -10.10517
  Beta  occ. eigenvalues --  -10.07051 -10.06771 -10.06141 -10.06081 -10.04811
  Beta  occ. eigenvalues --  -10.04615  -0.92519  -0.90061  -0.83155  -0.80750
  Beta  occ. eigenvalues --   -0.77274  -0.73156  -0.67462  -0.64897  -0.62410
  Beta  occ. eigenvalues --   -0.55516  -0.54114  -0.51974  -0.50263  -0.45256
  Beta  occ. eigenvalues --   -0.43333  -0.41317  -0.40427  -0.38267  -0.36932
  Beta  occ. eigenvalues --   -0.35106  -0.34404  -0.34185  -0.32997  -0.31688
  Beta  occ. eigenvalues --   -0.30313  -0.30123  -0.28386  -0.28260  -0.27243
  Beta  occ. eigenvalues --   -0.27030  -0.26266  -0.25305  -0.25167  -0.24456
  Beta  occ. eigenvalues --   -0.23739  -0.15669  -0.14927  -0.14336  -0.13891
  Beta  occ. eigenvalues --   -0.13131  -0.12407  -0.10690  -0.07940
  Beta virt. eigenvalues --    0.06376   0.07850   0.08939   0.09482   0.09993
  Beta virt. eigenvalues --    0.10689   0.10753   0.10987   0.11531   0.11970
  Beta virt. eigenvalues --    0.12565   0.13546   0.13932   0.14464   0.14709

 Mulliken charges and spin densities:
               1          2
     1  C   -0.123376  -0.269395
     2  C   -0.199040   0.023470
     3  N    0.289065   0.015121
     4  C   -0.213826  -0.026300
     5  C   -0.503058  -0.015281
     6  C   -0.495798  -0.014594
     7  O   -0.330896   0.011068
     8  C    0.539907   0.002942
     9  N   -0.071986   0.296789
    10  C   -0.124926   0.152174
    11  C    0.058873   0.040560
    12  N   -0.002361   0.328669
    13  C   -0.661438   0.052115
    14  C   -0.311994  -0.019597
    15  O   -0.355566   0.016036
    16  N   -0.358807   0.004640
    17  H    0.111867   0.006082
    18  H   -0.011673   0.136770
    19  H    0.096473   0.071225
    20  H   -0.038707   0.161679
    21  H    0.189277  -0.011179
    22  H    0.213756   0.011736
    23  H    0.102567   0.016647
    24  H    0.191554  -0.000833
    25  H    0.113177  -0.000448
    26  H    0.093918   0.017334
    27  H    0.119147  -0.010159
    28  H    0.139640  -0.006230
    29  H    0.297177  -0.005989
    30  H    0.247052   0.014948
 Sum of Mulliken charges =  -1.00000   1.00000

 Dipole moment (field-independent basis, Debye):
    X=              7.0128    Y=              0.9340    Z=              0.3068  Tot=              7.0814
 Quadrupole moment (field-independent basis, Debye-Ang):
   XX=           -134.9021   YY=           -113.7226   ZZ=           -114.8031
   XY=             -3.7596   XZ=              8.7580   YZ=              7.3877

 Summary of Natural Population Analysis:

                                       Natural Population
                Natural  -----------------------------------------------
    Atom  No    Charge         Core      Valence    Rydberg      Total
 -----------------------------------------------------------------------
      C    1   -0.29116      0.99966     2.28706    0.00444     3.29116
      C    2   -0.08805      0.99963     2.07732    0.01110     3.08805
      N    3   -0.24648      0.99962     2.73505    0.01180     3.74648
      C    4   -0.08361      0.99962     2.07428    0.00970     3.08361
      C    5   -0.29430      0.99966     2.29084    0.00380     3.29430
      C    6    0.35150      0.99958     1.62407    0.02485     2.64850
      O    7   -0.34755      0.99988     3.34245    0.00522     4.34755
      C    8    0.04102      0.99946     1.94424    0.01527     2.95898
      N    9   -0.15186      0.99967     2.63710    0.01508     3.65186
      C   10    0.02160      0.99960     1.96514    0.01366     2.97840
      C   11    0.00229      0.99960     1.98415    0.01396     2.99771
      N   12   -0.11126      0.99968     2.60075    0.01083     3.61126
      C   13    0.04362      0.99945     1.93726    0.01968     2.95638
      C   14    0.33071      0.99967     1.64709    0.02253     2.66929
      O   15   -0.31822      0.99988     3.31144    0.00691     4.31822
      N   16   -0.40761      0.99970     2.90125    0.00666     3.90761
      H   17    0.09496      0.00000     0.40390    0.00114     0.40504
      H   18    0.09447      0.00000     0.40430    0.00123     0.40553
      H   19    0.10725      0.00000     0.39116    0.00159     0.39275
      H   20    0.09065      0.00000     0.40814    0.00121     0.40935
      H   21    0.10764      0.00000     0.39117    0.00120     0.39236
      H   22    0.11370      0.00000     0.38541    0.00089     0.38630
      H   23    0.08735      0.00000     0.41156    0.00108     0.41265
      H   24    0.11865      0.00000     0.38016    0.00119     0.38135
      H   25    0.09363      0.00000     0.40561    0.00075     0.40637
      H   26    0.08973      0.00000     0.40884    0.00144     0.41027
      H   27    0.07877      0.00000     0.41987    0.00136     0.42123
      H   28    0.07924      0.00000     0.41923    0.00152     0.42076
      H   29    0.21079      0.00000     0.28769    0.00152     0.28921
      H   30    0.18250      0.00000     0.31407    0.00342     0.31750
 =======================================================================
   * Total *    0.00000     15.99435    42.79062    0.21503    59.00000

 Normal termination of Gaussian 16 at Thu Dec 10 23:37:06 2020.
