 Gaussian 16, Revision A.03,

 -----------------------------------------------------------
 # opt freq B3LYP/6-31G(d) empiricaldispersion=gd3bj scf=xqc
 -----------------------------------------------------------

 ------------------------------
 CID_54286117_JID_3932_neutraal
 ------------------------------
 Symbolic Z-matrix:
 Charge =  0 Multiplicity = 1

 SCF Done:  E(RB3LYP) =  -954.147155005     A.U. after   15 cycles
 SCF Done:  E(RB3LYP) =  -954.152644159     A.U. after   12 cycles
 SCF Done:  E(RB3LYP) =  -954.154251265     A.U. after   12 cycles
 SCF Done:  E(RB3LYP) =  -954.155579201     A.U. after   13 cycles
 SCF Done:  E(RB3LYP) =  -954.156513051     A.U. after   13 cycles
 SCF Done:  E(RB3LYP) =  -954.156961670     A.U. after   12 cycles
 SCF Done:  E(RB3LYP) =  -954.157042671     A.U. after   11 cycles
 SCF Done:  E(RB3LYP) =  -954.157058600     A.U. after   10 cycles
 SCF Done:  E(RB3LYP) =  -954.157065696     A.U. after    9 cycles
 SCF Done:  E(RB3LYP) =  -954.157069674     A.U. after    9 cycles
 SCF Done:  E(RB3LYP) =  -954.157073236     A.U. after    8 cycles
 SCF Done:  E(RB3LYP) =  -954.157077851     A.U. after    9 cycles
 SCF Done:  E(RB3LYP) =  -954.157081402     A.U. after   10 cycles
 SCF Done:  E(RB3LYP) =  -954.157082070     A.U. after    8 cycles
 SCF Done:  E(RB3LYP) =  -954.157082194     A.U. after    8 cycles
 SCF Done:  E(RB3LYP) =  -954.157082218     A.U. after    6 cycles
 Optimization completed.
    -- Stationary point found.
 Normal termination of Gaussian 16 at Sun Dec 13 15:59:37 2020.

 --------------------------------------------------------------------
 #N Geom=AllCheck Guess=TCheck SCRF=Check GenChk RB3LYP/6-31G(d) Freq
 --------------------------------------------------------------------

 Structure from the checkpoint file:  "JID_3932.chk"
 ------------------------------
 CID_54286117_JID_3932_neutraal
 ------------------------------
 Charge =  0 Multiplicity = 1

 SCF Done:  E(RB3LYP) =  -954.157082218     A.U. after    1 cycles

  Exact polarizability: 167.101  -6.051 132.759   0.208  -0.297  74.326
 Approx polarizability: 235.623 -18.063 226.899  -5.443  -3.787 111.621

                      1                      2                      3
                      A                      A                      A
 Frequencies --     29.9324                55.7072                69.3398
 Red. masses --      4.8282                 2.8209                 2.5385
 Frc consts  --      0.0025                 0.0052                 0.0072
 IR Inten    --      2.2729                 1.3250                 5.9620

                      4                      5                      6
                      A                      A                      A
 Frequencies --    112.0338               124.7262               153.6914
 Red. masses --      3.0946                 4.7151                 1.5390
 Frc consts  --      0.0229                 0.0432                 0.0214
 IR Inten    --      4.1870                 1.6960                 0.4921

                      7                      8                      9
                      A                      A                      A
 Frequencies --    199.3190               207.9073               245.8714
 Red. masses --      1.1435                 1.1745                 4.6248
 Frc consts  --      0.0268                 0.0299                 0.1647
 IR Inten    --      0.0715                 0.0172                 0.3214

                     10                     11                     12
                      A                      A                      A
 Frequencies --    269.6909               278.8822               290.0550
 Red. masses --      2.7364                 3.2003                 3.6694
 Frc consts  --      0.1173                 0.1467                 0.1819
 IR Inten    --      0.9243                 2.4560                 1.8654

                     13                     14                     15
                      A                      A                      A
 Frequencies --    311.3312               384.3994               423.5446
 Red. masses --      3.5123                 3.9126                 3.8921
 Frc consts  --      0.2006                 0.3406                 0.4114
 IR Inten    --      0.5054                 1.1199                 3.4729

                     16                     17                     18
                      A                      A                      A
 Frequencies --    433.8926               482.2395               511.3176
 Red. masses --      4.3259                 4.3599                 4.3298
 Frc consts  --      0.4798                 0.5974                 0.6670
 IR Inten    --     11.1833                21.3798                 5.6917

                     19                     20                     21
                      A                      A                      A
 Frequencies --    526.2721               560.8591               598.2346
 Red. masses --      6.2433                 3.5549                 5.0209
 Frc consts  --      1.0188                 0.6588                 1.0587
 IR Inten    --     73.8017                 1.0894                 3.0956

                     22                     23                     24
                      A                      A                      A
 Frequencies --    688.0223               694.4985               743.8031
 Red. masses --      6.2641                 2.3712                 5.5016
 Frc consts  --      1.7471                 0.6738                 1.7933
 IR Inten    --      4.7087                 5.7385               105.8606

                     25                     26                     27
                      A                      A                      A
 Frequencies --    789.6613               830.4941               873.3815
 Red. masses --      1.4593                 5.1369                 1.5844
 Frc consts  --      0.5362                 2.0875                 0.7121
 IR Inten    --     20.9241                15.6199                11.9041

                     28                     29                     30
                      A                      A                      A
 Frequencies --    883.4255               971.3546               984.8249
 Red. masses --      1.3097                 1.2753                 1.6776
 Frc consts  --      0.6022                 0.7089                 0.9586
 IR Inten    --      1.0209                 0.5620                29.2276

                     31                     32                     33
                      A                      A                      A
 Frequencies --    987.3524               993.4175              1010.4357
 Red. masses --      1.4004                 2.4368                 4.5853
 Frc consts  --      0.8044                 1.4169                 2.7583
 IR Inten    --     23.4335                17.8352                21.0702

                     34                     35                     36
                      A                      A                      A
 Frequencies --   1094.3453              1102.7426              1127.2133
 Red. masses --      1.5164                 3.9578                 1.8595
 Frc consts  --      1.0700                 2.8357                 1.3920
 IR Inten    --     21.1370                76.1513                21.4458

                     37                     38                     39
                      A                      A                      A
 Frequencies --   1147.4056              1154.2242              1157.6316
 Red. masses --      2.6174                 1.3432                 1.2333
 Frc consts  --      2.0303                 1.0543                 0.9738
 IR Inten    --    124.7984                22.9396                 0.2759

                     40                     41                     42
                      A                      A                      A
 Frequencies --   1207.9147              1225.8572              1290.9999
 Red. masses --      1.3756                 1.3454                 2.7363
 Frc consts  --      1.1825                 1.1912                 2.6869
 IR Inten    --      3.5228                15.4784                40.3351

                     43                     44                     45
                      A                      A                      A
 Frequencies --   1313.0618              1349.7428              1368.9223
 Red. masses --     14.0785                 1.5735                 1.2114
 Frc consts  --     14.3014                 1.6890                 1.3375
 IR Inten    --    173.1460                17.1005                10.5577

                     46                     47                     48
                      A                      A                      A
 Frequencies --   1381.2437              1401.6818              1471.6517
 Red. masses --      6.2323                 2.8577                 1.2489
 Frc consts  --      7.0055                 3.3080                 1.5937
 IR Inten    --      2.6380               140.0148                 5.7753

                     49                     50                     51
                      A                      A                      A
 Frequencies --   1480.7860              1484.8275              1492.4257
 Red. masses --      1.0533                 1.0518                 2.1479
 Frc consts  --      1.3608                 1.3663                 2.8187
 IR Inten    --      8.5759                 3.3613                39.2761

                     52                     53                     54
                      A                      A                      A
 Frequencies --   1511.4897              1512.4556              1519.2440
 Red. masses --      1.0854                 1.3090                 1.0598
 Frc consts  --      1.4611                 1.7642                 1.4412
 IR Inten    --      8.1390                19.8171                10.2383

                     55                     56                     57
                      A                      A                      A
 Frequencies --   1545.8381              1549.5671              1563.7534
 Red. masses --      1.1443                 1.6653                 1.2149
 Frc consts  --      1.6111                 2.3560                 1.7503
 IR Inten    --      8.1651                22.5025               146.3792

                     58                     59                     60
                      A                      A                      A
 Frequencies --   1620.7434              1666.6576              3002.5381
 Red. masses --      5.4890                 5.5729                 1.0482
 Frc consts  --      8.4951                 9.1207                 5.5676
 IR Inten    --      6.4626               169.5100                77.5817

                     61                     62                     63
                      A                      A                      A
 Frequencies --   3010.6529              3068.4528              3077.4601
 Red. masses --      1.0527                 1.0924                 1.0910
 Frc consts  --      5.6219                 6.0600                 6.0877
 IR Inten    --     65.3208                33.5190                33.8141

                     64                     65                     66
                      A                      A                      A
 Frequencies --   3083.1676              3148.2589              3160.3711
 Red. masses --      1.0289                 1.0980                 1.0954
 Frc consts  --      5.7626                 6.4119                 6.4462
 IR Inten    --      0.6444                 2.0963                39.2915

                     67                     68                     69
                      A                      A                      A
 Frequencies --   3184.2649              3190.9447              3195.3442
 Red. masses --      1.1063                 1.1080                 1.0887
 Frc consts  --      6.6093                 6.6468                 6.5491
 IR Inten    --      1.2816                 1.8477                14.5811

                     70                     71                     72
                      A                      A                      A
 Frequencies --   3233.5947              3237.0371              3253.2618
 Red. masses --      1.0907                 1.0929                 1.0890
 Frc consts  --      6.7191                 6.7471                 6.7906
 IR Inten    --      1.3891                12.8867                 3.7172

 - Thermochemistry -
 -------------------
 Temperature   298.150 Kelvin.  Pressure   1.00000 Atm.
 Atom     1 has atomic number  6 and mass  12.00000

 Molecular mass:   199.06670 amu.
 Principal axes and moments of inertia in atomic units:
                           1         2         3
     Eigenvalues --  1312.740454243.924505104.66436
           X            0.99986  -0.01217   0.01164
           Y            0.01207   0.99989   0.00840
           Z           -0.01174  -0.00826   0.99990
 This molecule is an asymmetric top.
 Rotational symmetry number  1.
 Warning -- assumption of classical behavior for rotation
           may cause significant error
 Rotational temperatures (Kelvin)      0.06598     0.02041     0.01697
 Rotational constants (GHZ):           1.37479     0.42525     0.35355
 Zero-point vibrational energy     558103.9 (Joules/Mol)
                                  133.39005 (Kcal/Mol)
 Warning -- explicit consideration of  21 degrees of freedom as
           vibrations may cause significant error
 Vibrational temperatures:     43.07    80.15    99.76   161.19   179.45
          (Kelvin)            221.13   286.78   299.13   353.75   388.03
                              401.25   417.32   447.94   553.07   609.39
                              624.27   693.84   735.67   757.19   806.95
                              860.73   989.91   999.23  1070.17  1136.15
                             1194.90  1256.60  1271.05  1397.56  1416.94
                             1420.58  1429.31  1453.79  1574.52  1586.60
                             1621.81  1650.86  1660.67  1665.57  1737.92
                             1763.74  1857.46  1889.20  1941.98  1969.57
                             1987.30  2016.71  2117.38  2130.52  2136.34
                             2147.27  2174.70  2176.09  2185.85  2224.12
                             2229.48  2249.89  2331.89  2397.95  4319.98
                             4331.66  4414.82  4427.78  4435.99  4529.64
                             4547.07  4581.45  4591.06  4597.39  4652.42
                             4657.37  4680.72

 Zero-point correction=                           0.212571 (Hartree/Particle)
 Thermal correction to Energy=                    0.226238
 Thermal correction to Enthalpy=                  0.227182
 Thermal correction to Gibbs Free Energy=         0.171440
 Sum of electronic and zero-point Energies=           -953.944512
 Sum of electronic and thermal Energies=              -953.930844
 Sum of electronic and thermal Enthalpies=            -953.929900
 Sum of electronic and thermal Free Energies=         -953.985642

                     E (Thermal)             CV                S
                      KCal/Mol        Cal/Mol-Kelvin    Cal/Mol-Kelvin
 Total                  141.966             50.260            117.319
 Electronic               0.000              0.000              0.000
 Translational            0.889              2.981             41.770
 Rotational               0.889              2.981             31.720
 Vibrational            140.189             44.298             43.829
 Vibration     1          0.594              1.984              5.834
 Vibration     2          0.596              1.975              4.604
 Vibration     3          0.598              1.969              4.172
 Vibration     4          0.607              1.939              3.233
 Vibration     5          0.610              1.928              3.026
 Vibration     6          0.619              1.899              2.626
 Vibration     7          0.637              1.841              2.139
 Vibration     8          0.641              1.829              2.062
 Vibration     9          0.660              1.770              1.760
 Vibration    10          0.674              1.729              1.598
 Vibration    11          0.679              1.713              1.541
 Vibration    12          0.686              1.692              1.474
 Vibration    13          0.700              1.652              1.355
 Vibration    14          0.753              1.503              1.022
 Vibration    15          0.786              1.419              0.880
 Vibration    16          0.795              1.396              0.846
 Vibration    17          0.838              1.289              0.704
 Vibration    18          0.866              1.225              0.630
 Vibration    19          0.881              1.192              0.596
 Vibration    20          0.917              1.116              0.522
 Vibration    21          0.956              1.036              0.453

                           ! Non-Optimized Parameters !
 Normal termination of Gaussian 16 at Sun Dec 13 16:05:49 2020.

 ----------------------------------------------------------------------
 # B3LYP/6-311++G(d,p) empiricaldispersion=gd3bj scf=xqc pop=npa geom=c
 heck
 ----------------------------------------------------------------------

 --------------------------------------
 CID_54286117_JID_3932_Energie_neutraal
 --------------------------------------
 Structure from the checkpoint file:  "JID_3932.chk"
 Charge =  0 Multiplicity = 1

 SCF Done:  E(RB3LYP) =  -954.338499658     A.U. after   16 cycles
 Normal termination of Gaussian 16 at Sun Dec 13 16:08:20 2020.

 ----------------------------------------------------------------------
 # B3LYP/6-311++G(d,p) empiricaldispersion=gd3bj scf=xqc pop=npa geom=c
 heck
 ----------------------------------------------------------------------

 ------------------------------------
 CID_54286117_JID_3932_Energie_kation
 ------------------------------------
 Structure from the checkpoint file:  "JID_3932.chk"
 Charge =  1 Multiplicity = 2

 SCF Done:  E(UB3LYP) =  -954.058278477     A.U. after   22 cycles
 Normal termination of Gaussian 16 at Sun Dec 13 16:12:59 2020.
 Gaussian 16:  ES64L-G16RevA.03 25-Dec-2016

 ----------------------------------------------------------------------
 # B3LYP/6-311++G(d,p) empiricaldispersion=gd3bj scf=xqc pop=npa geom=c
 heck
 ----------------------------------------------------------------------

 -----------------------------------
 CID_54286117_JID_3932_Energie_anion
 -----------------------------------
 Structure from the checkpoint file:  "JID_3932.chk"
 Charge = -1 Multiplicity = 2

                         Standard orientation:
 ---------------------------------------------------------------------
 Center     Atomic      Atomic             Coordinates (Angstroms)
 Number     Number       Type             X           Y           Z
 ---------------------------------------------------------------------
      1          6           0        4.152447    0.007364   -0.149039
      2          7           0        2.855927   -0.598506    0.089551
      3          6           0        2.725034   -2.042819    0.017139
      4          6           0        1.720159    0.187810    0.059249
      5          6           0        0.433196   -0.391177    0.117661
      6          6           0       -0.690644    0.425873    0.120805
      7          6           0       -0.619701    1.816352    0.064055
      8          6           0        0.650675    2.386036   -0.012698
      9          6           0        1.797836    1.598220   -0.023761
     10         16           0       -2.303328   -0.362420    0.155889
     11          8           0       -2.132930   -1.743382    0.637754
     12          8           0       -3.253489    0.555246    0.803582
     13          6           0       -2.743469   -0.451709   -1.596022
     14          1           0        4.923255   -0.761716   -0.081334
     15          1           0        4.376874    0.770664    0.606165
     16          1           0        4.222138    0.479208   -1.141572
     17          1           0        2.133029   -2.426636    0.856233
     18          1           0        2.247584   -2.376791   -0.917124
     19          1           0        3.716618   -2.493974    0.075896
     20          1           0        0.292274   -1.461433    0.184373
     21          1           0       -1.520192    2.418100    0.099642
     22          1           0        0.754817    3.466299   -0.061402
     23          1           0        2.762576    2.085621   -0.088443
     24          1           0       -2.785090    0.559854   -2.003457
     25          1           0       -1.998003   -1.054676   -2.117449
     26          1           0       -3.725963   -0.926876   -1.647626
 ---------------------------------------------------------------------

 SCF Done:  E(UB3LYP) =  -954.333365780     A.U. after   31 cycles

 The electronic state is 2-A.
 Alpha  occ. eigenvalues --  -88.93531 -19.00289 -19.00267 -14.22740 -10.10882
 Alpha  occ. eigenvalues --  -10.10613 -10.09423 -10.09322 -10.08391 -10.06835
 Alpha  occ. eigenvalues --  -10.06381 -10.06297 -10.05619  -7.99933  -5.96215
 Alpha  occ. eigenvalues --   -5.96113  -5.96022  -0.99540  -0.89310  -0.84634
 Alpha  occ. eigenvalues --   -0.74776  -0.68026  -0.64805  -0.64503  -0.61982
 Alpha  occ. eigenvalues --   -0.55956  -0.54298  -0.48930  -0.46210  -0.43085
 Alpha  occ. eigenvalues --   -0.38764  -0.38155  -0.37684  -0.37185  -0.36233
 Alpha  occ. eigenvalues --   -0.36062  -0.33616  -0.32883  -0.32745  -0.31641
 Alpha  occ. eigenvalues --   -0.30294  -0.29568  -0.28278  -0.26758  -0.26379
 Alpha  occ. eigenvalues --   -0.24617  -0.22456  -0.21253  -0.19638  -0.18945
 Alpha  occ. eigenvalues --   -0.18212  -0.15652  -0.09445   0.04225
 Alpha virt. eigenvalues --    0.06382   0.07089   0.07647   0.08920   0.09281
 Alpha virt. eigenvalues --    0.09945   0.10402   0.11161   0.11314   0.11536
 Alpha virt. eigenvalues --    0.12611   0.13259   0.13500   0.13833   0.14919

  Beta  occ. eigenvalues --  -88.93526 -19.00264 -19.00249 -14.22746 -10.10898
  Beta  occ. eigenvalues --  -10.10601 -10.09380 -10.09271 -10.08247 -10.06827
  Beta  occ. eigenvalues --  -10.06358 -10.06224 -10.05454  -7.99927  -5.96213
  Beta  occ. eigenvalues --   -5.96095  -5.96018  -0.99456  -0.89246  -0.84617
  Beta  occ. eigenvalues --   -0.74593  -0.67896  -0.64618  -0.64379  -0.61890
  Beta  occ. eigenvalues --   -0.55843  -0.54083  -0.48827  -0.46078  -0.43012
  Beta  occ. eigenvalues --   -0.38678  -0.38011  -0.37612  -0.37065  -0.36199
  Beta  occ. eigenvalues --   -0.36012  -0.33549  -0.32828  -0.32681  -0.31571
  Beta  occ. eigenvalues --   -0.30237  -0.29513  -0.28216  -0.26444  -0.26204
  Beta  occ. eigenvalues --   -0.24534  -0.22403  -0.21233  -0.19578  -0.18722
  Beta  occ. eigenvalues --   -0.18118  -0.14911  -0.09090
  Beta virt. eigenvalues --    0.06713   0.07441   0.07853   0.08113   0.09264
  Beta virt. eigenvalues --    0.09976   0.10200   0.10703   0.11336   0.11584
  Beta virt. eigenvalues --    0.11718   0.12813   0.13316   0.13769   0.13958

 Mulliken charges and spin densities:
               1          2
     1  C    0.953581  -1.293856
     2  N   -0.227158   0.292727
     3  C    0.387654  -0.788341
     4  C   -1.319935   0.494493
     5  C   -0.339431  -0.171280
     6  C    1.416383  -0.203851
     7  C   -0.686071   0.280522
     8  C   -0.073144  -0.297578
     9  C    0.043848   0.014636
    10  S    0.754497  -0.406859
    11  O   -0.206804  -0.015999
    12  O   -0.202541  -0.014865
    13  C   -0.391489  -0.188461
    14  H   -0.542741   0.679377
    15  H   -0.389684   0.542347
    16  H   -0.252834   0.409246
    17  H    0.026558   0.125203
    18  H   -0.231825   0.397554
    19  H   -0.385064   0.529753
    20  H    0.308294  -0.072809
    21  H    0.128371   0.053287
    22  H   -0.070351   0.226262
    23  H    0.056348   0.060532
    24  H    0.053416   0.151412
    25  H   -0.008245   0.207152
    26  H    0.198369  -0.010606
 Sum of Mulliken charges =  -1.00000   1.00000

 Dipole moment (field-independent basis, Debye):
    X=             -5.3337    Y=              1.5482    Z=             -1.7599  Tot=              5.8260
 Quadrupole moment (field-independent basis, Debye-Ang):
   XX=           -165.5963   YY=           -118.0943   ZZ=           -109.6853
   XY=              5.3301   XZ=             11.5539   YZ=             -0.6307

 Summary of Natural Population Analysis:

                                       Natural Population
                Natural  -----------------------------------------------
    Atom  No    Charge         Core      Valence    Rydberg      Total
 -----------------------------------------------------------------------
      C    1   -0.17341      0.99964     2.16522    0.00855     3.17341
      N    2   -0.25023      0.99966     2.73856    0.01202     3.75023
      C    3   -0.17363      0.99964     2.16542    0.00857     3.17363
      C    4    0.09327      0.99951     1.89487    0.01236     2.90673
      C    5   -0.10176      0.99947     2.09555    0.00674     3.10176
      C    6   -0.11619      0.99939     2.09943    0.01736     3.11619
      C    7   -0.12360      0.99950     2.11233    0.01177     3.12360
      C    8   -0.09313      0.99957     2.08398    0.00958     3.09313
      C    9   -0.09482      0.99954     2.08582    0.00946     3.09482
      S   10    1.03427      4.99919     1.87112    0.09541     6.96573
      O   11   -0.47364      0.99991     3.46760    0.00613     4.47364
      O   12   -0.47388      0.99991     3.46820    0.00577     4.47388
      C   13   -0.38971      0.99961     2.38322    0.00688     3.38971
      H   14    0.10110      0.00000     0.39719    0.00172     0.39890
      H   15    0.09592      0.00000     0.40225    0.00183     0.40408
      H   16    0.09071      0.00000     0.40728    0.00201     0.40929
      H   17    0.09429      0.00000     0.40433    0.00138     0.40571
      H   18    0.09269      0.00000     0.40547    0.00184     0.40731
      H   19    0.10024      0.00000     0.39857    0.00119     0.39976
      H   20    0.11411      0.00000     0.38409    0.00180     0.38589
      H   21    0.10926      0.00000     0.38977    0.00096     0.39074
      H   22    0.09750      0.00000     0.40171    0.00079     0.40250
      H   23    0.10176      0.00000     0.39704    0.00120     0.39824
      H   24    0.11266      0.00000     0.38609    0.00126     0.38734
      H   25    0.11529      0.00000     0.38325    0.00146     0.38471
      H   26    0.11099      0.00000     0.38792    0.00109     0.38901
 =======================================================================
   * Total *    0.00006     16.99454    35.77627    0.22913    52.99994

 Normal termination of Gaussian 16 at Sun Dec 13 16:19:33 2020.
