 Gaussian 16, Revision A.03,

 -----------------------------------------------------------
 # opt freq B3LYP/6-31G(d) empiricaldispersion=gd3bj scf=xqc
 -----------------------------------------------------------

 ------------------------------
 CID_66249184_JID_9220_neutraal
 ------------------------------
 Symbolic Z-matrix:
 Charge =  0 Multiplicity = 1

 SCF Done:  E(RB3LYP) =  -948.740102046     A.U. after   14 cycles
 SCF Done:  E(RB3LYP) =  -948.746910426     A.U. after   14 cycles
 SCF Done:  E(RB3LYP) =  -948.742534967     A.U. after   14 cycles
 SCF Done:  E(RB3LYP) =  -948.748013996     A.U. after   13 cycles
 SCF Done:  E(RB3LYP) =  -948.749851063     A.U. after   14 cycles
 SCF Done:  E(RB3LYP) =  -948.752971495     A.U. after   13 cycles
 SCF Done:  E(RB3LYP) =  -948.753765145     A.U. after   12 cycles
 SCF Done:  E(RB3LYP) =  -948.755757453     A.U. after   13 cycles
 SCF Done:  E(RB3LYP) =  -948.757287349     A.U. after   13 cycles
 SCF Done:  E(RB3LYP) =  -948.758515819     A.U. after   13 cycles
 SCF Done:  E(RB3LYP) =  -948.759676858     A.U. after    9 cycles
 SCF Done:  E(RB3LYP) =  -948.759676947     A.U. after    7 cycles
 SCF Done:  E(RB3LYP) =  -948.759676984     A.U. after    7 cycles
 SCF Done:  E(RB3LYP) =  -948.759676981     A.U. after    6 cycles
 Optimization completed.
    -- Stationary point found.
 Normal termination of Gaussian 16 at Sun Dec 13 12:58:10 2020.

 --------------------------------------------------------------------
 #N Geom=AllCheck Guess=TCheck SCRF=Check GenChk RB3LYP/6-31G(d) Freq
 --------------------------------------------------------------------

 Structure from the checkpoint file:  "JID_9220.chk"
 ------------------------------
 CID_66249184_JID_9220_neutraal
 ------------------------------
 Charge =  0 Multiplicity = 1

 SCF Done:  E(RB3LYP) =  -948.759676981     A.U. after    1 cycles

  Exact polarizability: 140.372  -3.618 147.682  -6.572   1.764 127.747
 Approx polarizability: 190.623 -12.605 241.614 -12.734   7.584 203.869

                      1                      2                      3
                      A                      A                      A
 Frequencies --     21.3488                26.9848                34.0702
 Red. masses --      6.5212                 7.8784                 7.2256
 Frc consts  --      0.0018                 0.0034                 0.0049
 IR Inten    --      0.2670                 0.3375                 2.1698

                      4                      5                      6
                      A                      A                      A
 Frequencies --     46.8546                52.8417                65.8883
 Red. masses --      4.2866                 4.9621                 8.5037
 Frc consts  --      0.0055                 0.0082                 0.0218
 IR Inten    --      2.5953                 1.1385                 3.9630

                      7                      8                      9
                      A                      A                      A
 Frequencies --     97.0638               120.4609               175.4287
 Red. masses --      5.0441                 5.5160                 5.0720
 Frc consts  --      0.0280                 0.0472                 0.0920
 IR Inten    --      0.5584                 2.3064                 0.8247

                     10                     11                     12
                      A                      A                      A
 Frequencies --    188.6475               203.6821               252.9862
 Red. masses --      4.6998                 4.6028                 4.1339
 Frc consts  --      0.0985                 0.1125                 0.1559
 IR Inten    --      2.2225                 5.7781                 1.3888

                     13                     14                     15
                      A                      A                      A
 Frequencies --    258.7559               272.1113               307.5857
 Red. masses --      1.4144                 3.9200                 2.1884
 Frc consts  --      0.0558                 0.1710                 0.1220
 IR Inten    --      0.2771                 3.2401                 3.5053

                     16                     17                     18
                      A                      A                      A
 Frequencies --    323.0673               351.0089               362.8408
 Red. masses --      2.1288                 2.3409                 2.8556
 Frc consts  --      0.1309                 0.1699                 0.2215
 IR Inten    --      1.3700                 3.3202                 3.8765

                     19                     20                     21
                      A                      A                      A
 Frequencies --    390.0025               427.5137               453.2403
 Red. masses --      4.2531                 4.7971                 5.2098
 Frc consts  --      0.3811                 0.5166                 0.6306
 IR Inten    --      6.8178                 1.8805                 5.6501

                     22                     23                     24
                      A                      A                      A
 Frequencies --    507.7732               538.0404               552.3673
 Red. masses --      1.6592                 2.0541                 3.8136
 Frc consts  --      0.2521                 0.3503                 0.6855
 IR Inten    --     62.5203                25.4656                22.4871

                     25                     26                     27
                      A                      A                      A
 Frequencies --    576.9506               620.5753               639.1546
 Red. masses --      2.7313                 1.3614                 2.4867
 Frc consts  --      0.5357                 0.3089                 0.5985
 IR Inten    --     11.5262                69.2746                15.3421

                     28                     29                     30
                      A                      A                      A
 Frequencies --    663.7488               664.8299               689.2988
 Red. masses --      1.8352                 3.4603                 2.1478
 Frc consts  --      0.4764                 0.9011                 0.6013
 IR Inten    --     73.8434                65.7891                12.2372

                     31                     32                     33
                      A                      A                      A
 Frequencies --    694.2876               714.6831               743.3107
 Red. masses --      2.7517                 2.9089                 3.6234
 Frc consts  --      0.7815                 0.8754                 1.1795
 IR Inten    --     43.0843                 9.1961                20.2620

                     34                     35                     36
                      A                      A                      A
 Frequencies --    773.1975               784.0533               806.8195
 Red. masses --      7.0308                 4.8980                 1.4233
 Frc consts  --      2.4765                 1.7740                 0.5459
 IR Inten    --     53.3498                27.9011                14.6785

                     37                     38                     39
                      A                      A                      A
 Frequencies --    810.5116               859.8631               863.8298
 Red. masses --      3.3299                 2.2392                 1.3273
 Frc consts  --      1.2888                 0.9754                 0.5836
 IR Inten    --     12.1749                12.3331                16.9434

                     40                     41                     42
                      A                      A                      A
 Frequencies --    886.2221               947.5766               958.5660
 Red. masses --      2.6295                 3.9716                 5.5062
 Frc consts  --      1.2168                 2.1011                 2.9809
 IR Inten    --     11.6699                23.0256                13.5645

                     43                     44                     45
                      A                      A                      A
 Frequencies --    963.8576               980.2542              1001.5463
 Red. masses --      2.1146                 2.4082                 1.6247
 Frc consts  --      1.1574                 1.3634                 0.9602
 IR Inten    --      6.0653                15.5099                 4.1755

                     46                     47                     48
                      A                      A                      A
 Frequencies --   1021.9438              1027.5711              1062.2150
 Red. masses --      2.8754                 1.8563                 1.8529
 Frc consts  --      1.7693                 1.1549                 1.2317
 IR Inten    --     30.4180                11.4955                12.7145

                     49                     50                     51
                      A                      A                      A
 Frequencies --   1078.2063              1099.8477              1139.3772
 Red. masses --      2.3391                 4.9383                 3.4366
 Frc consts  --      1.6021                 3.5196                 2.6285
 IR Inten    --     24.6300                51.5598               147.0847

                     52                     53                     54
                      A                      A                      A
 Frequencies --   1152.6083              1168.7621              1173.2003
 Red. masses --      2.8158                 2.0623                 2.0492
 Frc consts  --      2.2041                 1.6598                 1.6618
 IR Inten    --     25.1618                 4.8176                16.8758

                     55                     56                     57
                      A                      A                      A
 Frequencies --   1190.7689              1204.5495              1223.3974
 Red. masses --      3.0093                 2.2328                 1.9268
 Frc consts  --      2.5140                 1.9088                 1.6991
 IR Inten    --     27.4378                24.3243                67.2963

                     58                     59                     60
                      A                      A                      A
 Frequencies --   1240.1791              1270.7495              1279.3648
 Red. masses --      1.7258                 1.5254                 1.3241
 Frc consts  --      1.5639                 1.4512                 1.2769
 IR Inten    --      1.9120                18.6548                16.7855

                     61                     62                     63
                      A                      A                      A
 Frequencies --   1291.1658              1300.8762              1337.5690
 Red. masses --      1.3410                 1.3261                 2.1438
 Frc consts  --      1.3171                 1.3222                 2.2598
 IR Inten    --      8.8497                14.4594                 3.8298

                     64                     65                     66
                      A                      A                      A
 Frequencies --   1349.5243              1361.9825              1364.8006
 Red. masses --      2.3495                 2.0785                 1.3255
 Frc consts  --      2.5211                 2.2716                 1.4547
 IR Inten    --     38.7524                 8.0915                11.7298

                     67                     68                     69
                      A                      A                      A
 Frequencies --   1384.2594              1415.5373              1417.6795
 Red. masses --      1.3457                 1.8003                 2.1796
 Frc consts  --      1.5193                 2.1254                 2.5810
 IR Inten    --      7.0406                46.4302                24.3813

                     70                     71                     72
                      A                      A                      A
 Frequencies --   1432.4243              1447.9651              1474.6832
 Red. masses --      3.6981                 1.2391                 2.0407
 Frc consts  --      4.4707                 1.5306                 2.6148
 IR Inten    --    110.6205                10.4865               172.8318

                     73                     74                     75
                      A                      A                      A
 Frequencies --   1482.3297              1502.1055              1512.4995
 Red. masses --      1.5761                 1.3956                 2.2732
 Frc consts  --      2.0405                 1.8553                 3.0640
 IR Inten    --     31.9682                 8.2690                16.1245

                     76                     77                     78
                      A                      A                      A
 Frequencies --   1529.0133              1533.3386              1536.0534
 Red. masses --      1.0644                 1.0563                 1.0839
 Frc consts  --      1.4661                 1.4633                 1.5068
 IR Inten    --     22.2765                 5.8268                 2.8708

                     79                     80                     81
                      A                      A                      A
 Frequencies --   1548.7205              1550.2335              1625.8866
 Red. masses --      1.0983                 1.1200                 4.0706
 Frc consts  --      1.5521                 1.5858                 6.3400
 IR Inten    --      1.3553                42.4981                 4.2889

                     82                     83                     84
                      A                      A                      A
 Frequencies --   1783.6706              1837.3822              3019.0988
 Red. masses --      5.5584                 9.8814                 1.0710
 Frc consts  --     10.4191                19.6548                 5.7517
 IR Inten    --    458.4322               253.0724                44.1361

                     85                     86                     87
                      A                      A                      A
 Frequencies --   3054.8456              3067.1711              3076.7413
 Red. masses --      1.0613                 1.0408                 1.0565
 Frc consts  --      5.8351                 5.7691                 5.8925
 IR Inten    --     28.2369                10.6671                42.8764

                     88                     89                     90
                      A                      A                      A
 Frequencies --   3081.4951              3124.1750              3137.0447
 Red. masses --      1.1034                 1.1109                 1.0980
 Frc consts  --      6.1730                 6.3882                 6.3664
 IR Inten    --     10.9231                15.3789                10.4645

                     91                     92                     93
                      A                      A                      A
 Frequencies --   3141.2849              3170.5516              3205.9658
 Red. masses --      1.0957                 1.1023                 1.0849
 Frc consts  --      6.3701                 6.5287                 6.5698
 IR Inten    --     22.4701                 8.7755                 4.9371

                     94                     95                     96
                      A                      A                      A
 Frequencies --   3249.5558              3285.4744              3580.7832
 Red. masses --      1.0957                 1.0985                 1.0749
 Frc consts  --      6.8167                 6.9861                 8.1204
 IR Inten    --      5.3344                 0.1152                36.6500

                     97                     98                     99
                      A                      A                      A
 Frequencies --   3616.7295              3667.9897              3684.2018
 Red. masses --      1.0761                 1.0817                 1.0642
 Frc consts  --      8.2934                 8.5749                 8.5103
 IR Inten    --     33.5847                78.0403                58.9409

 - Thermochemistry -
 -------------------
 Temperature   298.150 Kelvin.  Pressure   1.00000 Atm.
 Atom     1 has atomic number  6 and mass  12.00000

 Molecular mass:   268.11716 amu.
 Principal axes and moments of inertia in atomic units:
                           1         2         3
     Eigenvalues --  3347.815746322.799267016.57061
           X            0.99995   0.00964  -0.00018
           Y           -0.00964   0.99984  -0.01511
           Z            0.00004   0.01511   0.99989
 This molecule is an asymmetric top.
 Rotational symmetry number  1.
 Warning -- assumption of classical behavior for rotation
           may cause significant error
 Rotational temperatures (Kelvin)      0.02587     0.01370     0.01234
 Rotational constants (GHZ):           0.53908     0.28543     0.25721
 Zero-point vibrational energy     754779.3 (Joules/Mol)
                                  180.39659 (Kcal/Mol)
 Warning -- explicit consideration of  26 degrees of freedom as
           vibrations may cause significant error
 Vibrational temperatures:     30.72    38.83    49.02    67.41    76.03
          (Kelvin)             94.80   139.65   173.32   252.40   271.42
                              293.05   363.99   372.29   391.51   442.55
                              464.82   505.02   522.05   561.13   615.10
                              652.11   730.57   774.12   794.73   830.10
                              892.87   919.60   954.99   956.54   991.75
                              998.93  1028.27  1069.46  1112.46  1128.08
                             1160.83  1166.15  1237.15  1242.86  1275.08
                             1363.35  1379.16  1386.78  1410.37  1441.00
                             1470.35  1478.45  1528.29  1551.30  1582.44
                             1639.31  1658.35  1681.59  1687.97  1713.25
                             1733.08  1760.20  1784.34  1828.33  1840.72
                             1857.70  1871.67  1924.46  1941.66  1959.59
                             1963.64  1991.64  2036.64  2039.72  2060.94
                             2083.30  2121.74  2132.74  2161.19  2176.15
                             2199.91  2206.13  2210.04  2228.26  2230.44
                             2339.29  2566.30  2643.58  4343.81  4395.24
                             4412.98  4426.74  4433.58  4494.99  4513.51
                             4519.61  4561.72  4612.67  4675.39  4727.06
                             5151.95  5203.67  5277.42  5300.74

 Zero-point correction=                           0.287480 (Hartree/Particle)
 Thermal correction to Energy=                    0.305314
 Thermal correction to Enthalpy=                  0.306258
 Thermal correction to Gibbs Free Energy=         0.238862
 Sum of electronic and zero-point Energies=           -948.472197
 Sum of electronic and thermal Energies=              -948.454363
 Sum of electronic and thermal Enthalpies=            -948.453419
 Sum of electronic and thermal Free Energies=         -948.520815

                     E (Thermal)             CV                S
                      KCal/Mol        Cal/Mol-Kelvin    Cal/Mol-Kelvin
 Total                  191.587             66.763            141.847
 Electronic               0.000              0.000              0.000
 Translational            0.889              2.981             42.658
 Rotational               0.889              2.981             33.362
 Vibrational            189.810             60.801             65.827
 Vibration     1          0.593              1.985              6.505
 Vibration     2          0.593              1.984              6.040
 Vibration     3          0.594              1.983              5.577
 Vibration     4          0.595              1.979              4.946
 Vibration     5          0.596              1.976              4.708
 Vibration     6          0.597              1.971              4.273
 Vibration     7          0.603              1.951              3.512
 Vibration     8          0.609              1.932              3.093
 Vibration     9          0.627              1.873              2.377
 Vibration    10          0.633              1.855              2.241
 Vibration    11          0.639              1.835              2.100
 Vibration    12          0.664              1.758              1.710
 Vibration    13          0.668              1.748              1.670
 Vibration    14          0.675              1.725              1.583
 Vibration    15          0.697              1.659              1.375
 Vibration    16          0.708              1.629              1.295
 Vibration    17          0.728              1.573              1.162
 Vibration    18          0.737              1.549              1.110
 Vibration    19          0.758              1.492              1.000
 Vibration    20          0.789              1.410              0.867
 Vibration    21          0.812              1.354              0.786
 Vibration    22          0.863              1.233              0.639
 Vibration    23          0.893              1.166              0.570
 Vibration    24          0.908              1.135              0.539
 Vibration    25          0.933              1.081              0.491
 Vibration    26          0.981              0.988              0.416

                           ! Non-Optimized Parameters !
 Normal termination of Gaussian 16 at Sun Dec 13 13:19:05 2020.

 ----------------------------------------------------------------------
 # B3LYP/6-311++G(d,p) empiricaldispersion=gd3bj scf=xqc pop=npa geom=c
 heck
 ----------------------------------------------------------------------

 --------------------------------------
 CID_66249184_JID_9220_Energie_neutraal
 --------------------------------------
 Structure from the checkpoint file:  "JID_9220.chk"
 Charge =  0 Multiplicity = 1

 SCF Done:  E(RB3LYP) =  -949.048278820     A.U. after   15 cycles
 Normal termination of Gaussian 16 at Sun Dec 13 13:27:39 2020.

 ----------------------------------------------------------------------
 # B3LYP/6-311++G(d,p) empiricaldispersion=gd3bj scf=xqc pop=npa geom=c
 heck
 ----------------------------------------------------------------------

 ------------------------------------
 CID_66249184_JID_9220_Energie_kation
 ------------------------------------
 Structure from the checkpoint file:  "JID_9220.chk"
 Charge =  1 Multiplicity = 2

 SCF Done:  E(UB3LYP) =  -948.729265854     A.U. after   33 cycles
 SCF Done:  E(UB3LYP) =  -948.729265854     a.u. after    1 cycles
 Normal termination of Gaussian 16 at Sun Dec 13 13:54:52 2020.
 Gaussian 16:  ES64L-G16RevA.03 25-Dec-2016

 ----------------------------------------------------------------------
 # B3LYP/6-311++G(d,p) empiricaldispersion=gd3bj scf=xqc pop=npa geom=c
 heck
 ----------------------------------------------------------------------

 -----------------------------------
 CID_66249184_JID_9220_Energie_anion
 -----------------------------------
 Structure from the checkpoint file:  "JID_9220.chk"
 Charge = -1 Multiplicity = 2

                         Standard orientation:
 ---------------------------------------------------------------------
 Center     Atomic      Atomic             Coordinates (Angstroms)
 Number     Number       Type             X           Y           Z
 ---------------------------------------------------------------------
      1          6           0        2.245533    1.210440   -1.148171
      2          6           0        2.097128    0.086779   -0.111293
      3          6           0        2.981827    0.316717    1.146284
      4          8           0        2.137354    0.182416    2.298409
      5          6           0        1.018275   -0.597322    1.897121
      6          6           0        0.657129   -0.035361    0.521760
      7          7           0       -0.013656    1.234218    0.711706
      8          6           0       -0.639796    2.058425   -0.203032
      9          8           0       -0.769124    3.258673    0.031648
     10          7           0       -1.130165    1.527404   -1.385847
     11          6           0       -1.587289    0.166962   -1.673475
     12          6           0       -2.444414   -0.449560   -0.602874
     13          6           0       -3.174999    0.195707    0.380015
     14          7           0       -3.778936   -0.779959    1.106302
     15          7           0       -3.493465   -2.026902    0.674408
     16          6           0       -2.681072   -1.826971   -0.363616
     17          6           0        2.426999   -1.252166   -0.761641
     18          8           0        3.263493   -2.050713   -0.403294
     19          8           0        1.631922   -1.492594   -1.840913
     20          1           0        1.574090    1.068407   -1.996468
     21          1           0        3.274942    1.246830   -1.521546
     22          1           0        2.018122    2.174644   -0.686979
     23          1           0        3.796383   -0.413459    1.183343
     24          1           0        3.399478    1.327033    1.164344
     25          1           0        0.222981   -0.469366    2.634328
     26          1           0        1.277391   -1.664490    1.822170
     27          1           0        0.021620   -0.717119   -0.034546
     28          1           0        0.362467    1.787743    1.473285
     29          1           0       -1.616142    2.260306   -1.884403
     30          1           0       -2.147091    0.242453   -2.613085
     31          1           0       -0.734167   -0.484412   -1.895090
     32          1           0       -3.282124    1.243920    0.617407
     33          1           0       -4.374980   -0.669626    1.912599
     34          1           0       -2.290812   -2.677263   -0.908588
     35          1           0        1.906317   -2.363080   -2.186026
 ---------------------------------------------------------------------

 SCF Done:  E(UB3LYP) =  -949.043047908     A.U. after   33 cycles
 SCF Done:  E(UB3LYP) =  -949.043047908     a.u. after    1 cycles

 The electronic state is 2-A.
 Alpha  occ. eigenvalues --  -19.08199 -19.05075 -19.03501 -18.99238 -14.29621
 Alpha  occ. eigenvalues --  -14.24797 -14.24486 -14.24232 -10.22318 -10.20979
 Alpha  occ. eigenvalues --  -10.14070 -10.14026 -10.13796 -10.12834 -10.12553
 Alpha  occ. eigenvalues --  -10.11783 -10.09933 -10.08769 -10.08596  -1.02587
 Alpha  occ. eigenvalues --   -0.97126  -0.96030  -0.95800  -0.93740  -0.84676
 Alpha  occ. eigenvalues --   -0.82622  -0.73654  -0.73014  -0.70631  -0.67388
 Alpha  occ. eigenvalues --   -0.62271  -0.61178  -0.57724  -0.54036  -0.53177
 Alpha  occ. eigenvalues --   -0.51626  -0.49486  -0.49058  -0.46028  -0.44027
 Alpha  occ. eigenvalues --   -0.43660  -0.41138  -0.40892  -0.40198  -0.39156
 Alpha  occ. eigenvalues --   -0.37944  -0.36874  -0.36246  -0.35804  -0.35424
 Alpha  occ. eigenvalues --   -0.34723  -0.34046  -0.33333  -0.32644  -0.32223
 Alpha  occ. eigenvalues --   -0.31501  -0.31132  -0.30415  -0.28735  -0.27772
 Alpha  occ. eigenvalues --   -0.27178  -0.25018  -0.24197  -0.21147  -0.20956
 Alpha  occ. eigenvalues --   -0.19089  -0.18643  -0.17557  -0.16971  -0.16468
 Alpha  occ. eigenvalues --   -0.15371   0.03686
 Alpha virt. eigenvalues --    0.05291   0.06383   0.06818   0.07354   0.08295
 Alpha virt. eigenvalues --    0.08866   0.09262   0.09581   0.10030   0.10120
 Alpha virt. eigenvalues --    0.10596   0.11605   0.11978   0.12236   0.12738

  Beta  occ. eigenvalues --  -19.08130 -19.05074 -19.03474 -18.99235 -14.29579
  Beta  occ. eigenvalues --  -14.24792 -14.24475 -14.24230 -10.22295 -10.20979
  Beta  occ. eigenvalues --  -10.14063 -10.14020 -10.13792 -10.12807 -10.12546
  Beta  occ. eigenvalues --  -10.11768 -10.09920 -10.08751 -10.08596  -1.02493
  Beta  occ. eigenvalues --   -0.97119  -0.96022  -0.95768  -0.93655  -0.84664
  Beta  occ. eigenvalues --   -0.82599  -0.73622  -0.72963  -0.70604  -0.67374
  Beta  occ. eigenvalues --   -0.62219  -0.61151  -0.57625  -0.54011  -0.53142
  Beta  occ. eigenvalues --   -0.51566  -0.49447  -0.48998  -0.45972  -0.44004
  Beta  occ. eigenvalues --   -0.43613  -0.41106  -0.40842  -0.40158  -0.39142
  Beta  occ. eigenvalues --   -0.37904  -0.36829  -0.36202  -0.35770  -0.35387
  Beta  occ. eigenvalues --   -0.34691  -0.34018  -0.33286  -0.32627  -0.32201
  Beta  occ. eigenvalues --   -0.31480  -0.31104  -0.30391  -0.28702  -0.27751
  Beta  occ. eigenvalues --   -0.27160  -0.24994  -0.24121  -0.21128  -0.20905
  Beta  occ. eigenvalues --   -0.19071  -0.18627  -0.17535  -0.16958  -0.16454
  Beta  occ. eigenvalues --   -0.15352
  Beta virt. eigenvalues --    0.06157   0.06703   0.07195   0.07376   0.07631
  Beta virt. eigenvalues --    0.08428   0.09027   0.09551   0.09803   0.10079
  Beta virt. eigenvalues --    0.10523   0.10789   0.11939   0.12093   0.12287

 Mulliken charges and spin densities:
               1          2
     1  C    0.268058  -0.897923
     2  C   -0.246173   0.608643
     3  C   -0.671004   0.247627
     4  O   -0.113243   0.018035
     5  C   -0.108997  -0.660468
     6  C    0.537766  -0.334117
     7  N   -0.227052   0.098422
     8  C    0.093940  -0.091191
     9  O   -0.323469   0.012666
    10  N   -0.341668   0.064033
    11  C    0.063919  -1.069194
    12  C    0.372759  -0.057777
    13  C    0.497444  -0.619997
    14  N    0.014574  -0.048731
    15  N   -0.107239   0.022674
    16  C   -0.779428   0.493846
    17  C    0.079226  -0.314180
    18  O   -0.247054   0.034782
    19  O   -0.180040   0.053186
    20  H    0.038369   0.155262
    21  H   -0.052019   0.241157
    22  H    0.256479  -0.045171
    23  H    0.213789  -0.001540
    24  H    0.140847   0.018120
    25  H    0.089070   0.122698
    26  H    0.089813   0.099081
    27  H    0.343790  -0.067048
    28  H    0.331119   0.008885
    29  H    0.170625   0.184223
    30  H   -0.733135   0.929592
    31  H    0.812959  -0.547135
    32  H   -0.228049   0.442417
    33  H   -0.203799   0.537998
    34  H   -0.291986   0.464749
    35  H   -0.560190   0.896374
 Sum of Mulliken charges =  -1.00000   1.00000

 Dipole moment (field-independent basis, Debye):
    X=              3.4479    Y=              3.3344    Z=              2.3704  Tot=              5.3503
 Quadrupole moment (field-independent basis, Debye-Ang):
   XX=           -176.5025   YY=           -170.9336   ZZ=           -157.8094
   XY=              6.6290   XZ=              7.4340   YZ=             -8.4100

 Summary of Natural Population Analysis:

                                       Natural Population
                Natural  -----------------------------------------------
    Atom  No    Charge         Core      Valence    Rydberg      Total
 -----------------------------------------------------------------------
      C    1   -0.28576      0.99963     2.27860    0.00754     3.28576
      C    2   -0.09634      0.99952     2.08405    0.01278     3.09634
      C    3   -0.00982      0.99955     1.99856    0.01171     3.00982
      O    4   -0.30199      0.99990     3.29433    0.00776     4.30199
      C    5   -0.01350      0.99957     2.00051    0.01342     3.01350
      C    6   -0.02241      0.99954     2.00875    0.01413     3.02241
      N    7   -0.33316      0.99966     2.82304    0.01046     3.83316
      C    8    0.40693      0.99969     1.56936    0.02402     2.59307
      O    9   -0.34339      0.99988     3.33867    0.00485     4.34339
      N   10   -0.33179      0.99968     2.82202    0.01009     3.83179
      C   11   -0.10060      0.99957     2.08854    0.01249     3.10060
      C   12   -0.08893      0.99952     2.07809    0.01133     3.08893
      C   13   -0.00858      0.99951     1.99717    0.01190     3.00858
      N   14   -0.16443      0.99970     2.65121    0.01353     3.66443
      N   15   -0.15272      0.99974     2.63946    0.01352     3.65272
      C   16   -0.01156      0.99956     1.99853    0.01346     3.01156
      C   17    0.41549      0.99962     1.55812    0.02677     2.58451
      O   18   -0.30271      0.99987     3.29663    0.00621     4.30271
      O   19   -0.34864      0.99988     3.34064    0.00812     4.34864
      H   20    0.11529      0.00000     0.38327    0.00144     0.38471
      H   21    0.10271      0.00000     0.39657    0.00072     0.39729
      H   22    0.10675      0.00000     0.39241    0.00085     0.39325
      H   23    0.09863      0.00000     0.40010    0.00127     0.40137
      H   24    0.08813      0.00000     0.41081    0.00106     0.41187
      H   25    0.09928      0.00000     0.39933    0.00139     0.40072
      H   26    0.08835      0.00000     0.41047    0.00118     0.41165
      H   27    0.11738      0.00000     0.37891    0.00371     0.38262
      H   28    0.19780      0.00000     0.29979    0.00241     0.30220
      H   29    0.19722      0.00000     0.30079    0.00198     0.30278
      H   30    0.10858      0.00000     0.38970    0.00172     0.39142
      H   31    0.10744      0.00000     0.39001    0.00255     0.39256
      H   32    0.11157      0.00000     0.38718    0.00125     0.38843
      H   33    0.20292      0.00000     0.29095    0.00613     0.29708
      H   34    0.10222      0.00000     0.39621    0.00156     0.39778
      H   35    0.24964      0.00000     0.22623    0.02413     0.25036
 =======================================================================
   * Total *   -0.00000     18.99356    51.71900    0.28744    71.00000

 Normal termination of Gaussian 16 at Sun Dec 13 14:21:50 2020.
