 Gaussian 16, Revision A.03,

 -----------------------------------------------------------
 # opt freq B3LYP/6-31G(d) empiricaldispersion=gd3bj scf=xqc
 -----------------------------------------------------------

 ----------------------------
 CID_437909_JID_4634_neutraal
 ----------------------------
 Symbolic Z-matrix:
 Charge =  0 Multiplicity = 1

 SCF Done:  E(RB3LYP) =  -998.213436134     A.U. after   16 cycles
 SCF Done:  E(RB3LYP) =  -998.230357541     A.U. after   13 cycles
 SCF Done:  E(RB3LYP) =  -998.231531737     A.U. after   15 cycles
 SCF Done:  E(RB3LYP) =  -998.230553347     A.U. after   14 cycles
 SCF Done:  E(RB3LYP) =  -998.230518884     A.U. after   14 cycles
 SCF Done:  E(RB3LYP) =  -998.228558137     A.U. after   14 cycles
 SCF Done:  E(RB3LYP) =  -998.231702414     A.U. after   11 cycles
 SCF Done:  E(RB3LYP) =  -998.233977424     A.U. after   14 cycles
 SCF Done:  E(RB3LYP) =  -998.234548374     A.U. after   12 cycles
 SCF Done:  E(RB3LYP) =  -998.234682048     A.U. after   13 cycles
 SCF Done:  E(RB3LYP) =  -998.235156598     A.U. after   10 cycles
 SCF Done:  E(RB3LYP) =  -998.235158958     A.U. after   10 cycles
 SCF Done:  E(RB3LYP) =  -998.235160009     A.U. after   10 cycles
 SCF Done:  E(RB3LYP) =  -998.235160611     A.U. after    9 cycles
 SCF Done:  E(RB3LYP) =  -998.235160845     A.U. after    8 cycles
 Optimization completed.
    -- Stationary point found.
 Normal termination of Gaussian 16 at Thu Dec 10 10:19:43 2020.

 --------------------------------------------------------------------
 #N Geom=AllCheck Guess=TCheck SCRF=Check GenChk RB3LYP/6-31G(d) Freq
 --------------------------------------------------------------------

 Structure from the checkpoint file:  "JID_4634.chk"
 ----------------------------
 CID_437909_JID_4634_neutraal
 ----------------------------
 Charge =  0 Multiplicity = 1

 SCF Done:  E(RB3LYP) =  -998.235160845     A.U. after    1 cycles

  Exact polarizability: 132.944   4.719 140.285 -13.181  -0.333  90.348
 Approx polarizability: 208.328   6.727 263.789 -35.054   2.301 159.721

                      1                      2                      3
                      A                      A                      A
 Frequencies --     27.5628                62.4623                88.1855
 Red. masses --      5.7011                 7.0544                 8.0973
 Frc consts  --      0.0026                 0.0162                 0.0371
 IR Inten    --      0.4600                 0.9705                 0.1363

                      4                      5                      6
                      A                      A                      A
 Frequencies --    115.0079               134.7703               172.8599
 Red. masses --      5.5261                 5.7294                 5.8714
 Frc consts  --      0.0431                 0.0613                 0.1034
 IR Inten    --      1.9763                 5.2002                 0.2806

                      7                      8                      9
                      A                      A                      A
 Frequencies --    198.3423               265.4152               317.6104
 Red. masses --      6.4182                 3.1785                 4.3462
 Frc consts  --      0.1488                 0.1319                 0.2583
 IR Inten    --      1.1577                 3.9577                 0.8968

                     10                     11                     12
                      A                      A                      A
 Frequencies --    391.4396               433.8151               444.4671
 Red. masses --      4.1265                 3.9574                 3.9589
 Frc consts  --      0.3725                 0.4388                 0.4608
 IR Inten    --      1.8593                 8.7578                 3.7438

                     13                     14                     15
                      A                      A                      A
 Frequencies --    486.1512               515.9566               534.8539
 Red. masses --      1.8854                 2.4057                 4.2154
 Frc consts  --      0.2625                 0.3773                 0.7105
 IR Inten    --     11.2183                 8.9551                23.4890

                     16                     17                     18
                      A                      A                      A
 Frequencies --    549.8835               576.0811               600.1783
 Red. masses --      6.1948                 3.0630                 2.5644
 Frc consts  --      1.1036                 0.5989                 0.5442
 IR Inten    --     22.7284                46.8564                34.0903

                     19                     20                     21
                      A                      A                      A
 Frequencies --    630.5264               655.5390               694.4506
 Red. masses --      5.4433                 3.9503                 5.2718
 Frc consts  --      1.2750                 1.0002                 1.4979
 IR Inten    --     14.7760                13.1701                18.8403

                     22                     23                     24
                      A                      A                      A
 Frequencies --    707.2565               737.1340               854.9235
 Red. masses --      5.5065                 1.8449                 3.3823
 Frc consts  --      1.6229                 0.5906                 1.4565
 IR Inten    --     15.1420               197.3973                 8.8291

                     25                     26                     27
                      A                      A                      A
 Frequencies --    864.6985               877.1539               896.9247
 Red. masses --      1.5997                 2.9421                10.2402
 Frc consts  --      0.7047                 1.3337                 4.8537
 IR Inten    --      5.3579                10.6455                 1.3825

                     28                     29                     30
                      A                      A                      A
 Frequencies --    911.9009               976.8237               980.4647
 Red. masses --      2.5850                 1.6185                 1.6897
 Frc consts  --      1.2665                 0.9099                 0.9570
 IR Inten    --      7.6095                10.5168                 1.9202

                     31                     32                     33
                      A                      A                      A
 Frequencies --    993.4858              1066.6746              1091.7375
 Red. masses --      2.0485                 3.9376                 4.3364
 Frc consts  --      1.1913                 2.6397                 3.0452
 IR Inten    --     13.5563                36.3970                44.3738

                     34                     35                     36
                      A                      A                      A
 Frequencies --   1107.5054              1140.2040              1145.0813
 Red. masses --      1.9366                 2.0900                 1.8413
 Frc consts  --      1.3995                 1.6009                 1.4225
 IR Inten    --     96.9609                33.6037                46.1974

                     37                     38                     39
                      A                      A                      A
 Frequencies --   1171.5222              1193.9488              1216.2958
 Red. masses --      1.3584                 1.2669                 2.0691
 Frc consts  --      1.0985                 1.0641                 1.8035
 IR Inten    --     41.8967                 6.2766                39.6739

                     40                     41                     42
                      A                      A                      A
 Frequencies --   1276.9996              1316.0884              1328.0722
 Red. masses --      1.6813                 2.8401                 1.5258
 Frc consts  --      1.6154                 2.8984                 1.5855
 IR Inten    --     17.2431                11.1451                 8.7772

                     43                     44                     45
                      A                      A                      A
 Frequencies --   1341.6732              1345.9426              1444.3216
 Red. masses --      1.9616                 2.1804                 1.6434
 Frc consts  --      2.0805                 2.3272                 2.0198
 IR Inten    --     38.7184               157.6950                 8.4267

                     46                     47                     48
                      A                      A                      A
 Frequencies --   1486.8625              1502.6747              1555.7308
 Red. masses --      1.2662                 5.2625                 7.7501
 Frc consts  --      1.6493                 7.0011                11.0516
 IR Inten    --      8.0722               113.3548               155.6372

                     49                     50                     51
                      A                      A                      A
 Frequencies --   1638.4317              1641.2079              1667.3531
 Red. masses --      3.6151                 1.5038                 8.2179
 Frc consts  --      5.7178                 2.3865                13.4607
 IR Inten    --     55.6504                26.9991               188.0372

                     52                     53                     54
                      A                      A                      A
 Frequencies --   1729.3539              2967.6461              3100.7128
 Red. masses --      5.3372                 1.0779                 1.0589
 Frc consts  --      9.4044                 5.5929                 5.9985
 IR Inten    --    185.6133                 2.6368                 1.5898

                     55                     56                     57
                      A                      A                      A
 Frequencies --   3171.6073              3199.0546              3230.6245
 Red. masses --      1.1074                 1.0915                 1.0953
 Frc consts  --      6.5631                 6.5813                 6.7352
 IR Inten    --      0.7542                25.2839                17.1571

                     58                     59                     60
                      A                      A                      A
 Frequencies --   3510.0719              3528.6472              3641.7087
 Red. masses --      1.0759                 1.0474                 1.0994
 Frc consts  --      7.8097                 7.6837                 8.5903
 IR Inten    --      6.9574                20.9644                18.2153

 - Thermochemistry -
 -------------------
 Temperature   298.150 Kelvin.  Pressure   1.00000 Atm.
 Atom     1 has atomic number  6 and mass  12.00000

 Molecular mass:   208.05312 amu.
 Principal axes and moments of inertia in atomic units:
                           1         2         3
     Eigenvalues --  1803.516883078.743423814.52659
           X            0.99988   0.01555  -0.00179
           Y           -0.01553   0.99985   0.00709
           Z            0.00189  -0.00706   0.99997
 This molecule is an asymmetric top.
 Rotational symmetry number  1.
 Warning -- assumption of classical behavior for rotation
           may cause significant error
 Rotational temperatures (Kelvin)      0.04803     0.02813     0.02271
 Rotational constants (GHZ):           1.00068     0.58619     0.47312
 Zero-point vibrational energy     427390.3 (Joules/Mol)
                                  102.14874 (Kcal/Mol)
 Warning -- explicit consideration of  18 degrees of freedom as
           vibrations may cause significant error
 Vibrational temperatures:     39.66    89.87   126.88   165.47   193.90
          (Kelvin)            248.71   285.37   381.87   456.97   563.19
                              624.16   639.49   699.46   742.35   769.54
                              791.16   828.85   863.52   907.19   943.17
                              999.16  1017.58  1060.57  1230.04  1244.11
                             1262.03  1290.47  1312.02  1405.43  1410.67
                             1429.40  1534.71  1570.77  1593.45  1640.50
                             1647.52  1685.56  1717.83  1749.98  1837.32
                             1893.56  1910.80  1930.37  1936.51  2078.06
                             2139.26  2162.01  2238.35  2357.34  2361.33
                             2398.95  2488.15  4269.78  4461.23  4563.24
                             4602.73  4648.15  5050.21  5076.94  5239.61

 Zero-point correction=                           0.162784 (Hartree/Particle)
 Thermal correction to Energy=                    0.174770
 Thermal correction to Enthalpy=                  0.175714
 Thermal correction to Gibbs Free Energy=         0.123300
 Sum of electronic and zero-point Energies=           -998.072376
 Sum of electronic and thermal Energies=              -998.060391
 Sum of electronic and thermal Enthalpies=            -998.059447
 Sum of electronic and thermal Free Energies=         -998.111860

                     E (Thermal)             CV                S
                      KCal/Mol        Cal/Mol-Kelvin    Cal/Mol-Kelvin
 Total                  109.670             45.278            110.313
 Electronic               0.000              0.000              0.000
 Translational            0.889              2.981             41.902
 Rotational               0.889              2.981             31.427
 Vibrational            107.892             39.317             36.984
 Vibration     1          0.593              1.984              5.998
 Vibration     2          0.597              1.972              4.378
 Vibration     3          0.601              1.957              3.700
 Vibration     4          0.608              1.937              3.183
 Vibration     5          0.613              1.919              2.877
 Vibration     6          0.626              1.876              2.404
 Vibration     7          0.637              1.842              2.148
 Vibration     8          0.671              1.736              1.626
 Vibration     9          0.704              1.640              1.322
 Vibration    10          0.759              1.488              0.995
 Vibration    11          0.795              1.397              0.846
 Vibration    12          0.804              1.373              0.813
 Vibration    13          0.842              1.281              0.694
 Vibration    14          0.871              1.215              0.619
 Vibration    15          0.890              1.173              0.576
 Vibration    16          0.905              1.140              0.544
 Vibration    17          0.932              1.083              0.493
 Vibration    18          0.958              1.031              0.449

 Optimization completed.
    -- Stationary point found.
 Normal termination of Gaussian 16 at Thu Dec 10 10:27:03 2020.

 ----------------------------------------------------------------------
 # B3LYP/6-311++G(d,p) empiricaldispersion=gd3bj scf=xqc pop=npa geom=c
 heck
 ----------------------------------------------------------------------

 ------------------------------------
 CID_437909_JID_4634_Energie_neutraal
 ------------------------------------
 Structure from the checkpoint file:  "JID_4634.chk"
 Charge =  0 Multiplicity = 1

 SCF Done:  E(RB3LYP) =  -998.431578594     A.U. after   17 cycles
 Normal termination of Gaussian 16 at Thu Dec 10 10:30:24 2020.

 ----------------------------------------------------------------------
 # B3LYP/6-311++G(d,p) empiricaldispersion=gd3bj scf=xqc pop=npa geom=c
 heck
 ----------------------------------------------------------------------

 ----------------------------------
 CID_437909_JID_4634_Energie_kation
 ----------------------------------
 Structure from the checkpoint file:  "JID_4634.chk"
 Charge =  1 Multiplicity = 2

 SCF Done:  E(UB3LYP) =  -998.102825844     A.U. after   33 cycles
 SCF Done:  E(UB3LYP) =  -998.102825844     a.u. after    1 cycles
 Normal termination of Gaussian 16 at Thu Dec 10 10:39:39 2020.
 Gaussian 16:  ES64L-G16RevA.03 25-Dec-2016

 ----------------------------------------------------------------------
 # B3LYP/6-311++G(d,p) empiricaldispersion=gd3bj scf=xqc pop=npa geom=c
 heck
 ----------------------------------------------------------------------

 ---------------------------------
 CID_437909_JID_4634_Energie_anion
 ---------------------------------
 Structure from the checkpoint file:  "JID_4634.chk"
 Charge = -1 Multiplicity = 2

                         Standard orientation:
 ---------------------------------------------------------------------
 Center     Atomic      Atomic             Coordinates (Angstroms)
 Number     Number       Type             X           Y           Z
 ---------------------------------------------------------------------
      1          6           0       -1.418716    2.144658   -0.610273
      2          7           0       -0.738053    1.368723   -1.392882
      3          6           0       -1.194226    0.042402   -1.003206
      4          6           0       -0.243749   -1.067674   -0.641464
      5          7           0       -0.633484   -2.006305    0.159942
      6          6           0       -1.862850   -1.835298    0.813866
      7          7           0       -2.578352   -0.754926    0.921384
      8          6           0       -2.107699    0.289920    0.159209
      9          7           0       -2.269921    1.563567    0.362845
     10          6           0        1.101971   -1.114401   -1.300538
     11         16           0        2.513403   -0.834536   -0.131128
     12          6           0        1.993611    0.702835    0.695100
     13          7           0        2.659242    1.785512    0.704530
     14          7           0        0.768434    0.590318    1.333117
     15          1           0       -1.350266    3.226691   -0.666181
     16          1           0       -1.770704   -0.351763   -1.862807
     17          1           0       -2.200184   -2.718361    1.352143
     18          1           0        1.287866   -2.115363   -1.699123
     19          1           0        1.156476   -0.374039   -2.099051
     20          1           0        3.459097    1.732462    0.074269
     21          1           0        0.617909   -0.273351    1.841134
     22          1           0        0.520247    1.423425    1.858944
 ---------------------------------------------------------------------

 SCF Done:  E(UB3LYP) =  -998.495905434     A.U. after   21 cycles

 The electronic state is 2-A.
 Alpha  occ. eigenvalues --  -88.73242 -14.21122 -14.17539 -14.16181 -14.15784
 Alpha  occ. eigenvalues --  -14.15393 -14.15173 -10.15508 -10.08841 -10.08651
 Alpha  occ. eigenvalues --  -10.08520 -10.08148 -10.07486 -10.06670  -7.81907
 Alpha  occ. eigenvalues --   -5.78304  -5.77949  -5.77275  -0.86104  -0.84101
 Alpha  occ. eigenvalues --   -0.81406  -0.75507  -0.74733  -0.70156  -0.66959
 Alpha  occ. eigenvalues --   -0.61600  -0.55977  -0.50583  -0.48085  -0.46754
 Alpha  occ. eigenvalues --   -0.43145  -0.40825  -0.38215  -0.37022  -0.35827
 Alpha  occ. eigenvalues --   -0.35013  -0.32311  -0.31484  -0.30163  -0.28344
 Alpha  occ. eigenvalues --   -0.27247  -0.26656  -0.24077  -0.22305  -0.21681
 Alpha  occ. eigenvalues --   -0.18900  -0.17487  -0.16691  -0.15044  -0.13747
 Alpha  occ. eigenvalues --   -0.12938  -0.12369  -0.10798  -0.10160  -0.00229
 Alpha virt. eigenvalues --    0.08931   0.09304   0.10163   0.10394   0.10733
 Alpha virt. eigenvalues --    0.11109   0.12126   0.12634   0.12983   0.13861
 Alpha virt. eigenvalues --    0.14018   0.15565   0.15790   0.16384   0.17246

  Beta  occ. eigenvalues --  -88.73194 -14.21114 -14.17501 -14.16310 -14.15595
  Beta  occ. eigenvalues --  -14.15255 -14.15027 -10.15509 -10.08865 -10.08555
  Beta  occ. eigenvalues --  -10.08508 -10.07758 -10.06832 -10.06741  -7.81859
  Beta  occ. eigenvalues --   -5.78224  -5.77872  -5.77239  -0.85779  -0.84055
  Beta  occ. eigenvalues --   -0.81002  -0.75057  -0.74649  -0.69815  -0.66732
  Beta  occ. eigenvalues --   -0.61099  -0.55737  -0.49935  -0.47781  -0.46609
  Beta  occ. eigenvalues --   -0.42859  -0.40689  -0.37934  -0.36412  -0.35756
  Beta  occ. eigenvalues --   -0.34650  -0.31993  -0.31147  -0.29812  -0.28057
  Beta  occ. eigenvalues --   -0.26975  -0.26335  -0.22918  -0.21725  -0.21149
  Beta  occ. eigenvalues --   -0.18596  -0.16841  -0.16447  -0.14718  -0.13475
  Beta  occ. eigenvalues --   -0.12731  -0.12153  -0.10010  -0.09694
  Beta virt. eigenvalues --    0.06310   0.08955   0.09576   0.10400   0.10498
  Beta virt. eigenvalues --    0.10926   0.11264   0.12244   0.12933   0.13318
  Beta virt. eigenvalues --    0.13965   0.14040   0.15720   0.16237   0.16649

 Mulliken charges and spin densities:
               1          2
     1  C    0.039548  -0.032530
     2  N   -0.166088   0.090262
     3  C   -0.123442  -0.176637
     4  C   -0.135618   0.448903
     5  N   -0.049452  -0.057708
     6  C   -0.041178   0.289253
     7  N   -0.118878   0.043394
     8  C   -0.583356   0.143179
     9  N   -0.193221   0.078697
    10  C   -0.382746   0.011198
    11  S    0.125162   0.049404
    12  C   -0.659283  -0.032428
    13  N   -0.213006   0.018613
    14  N   -0.124670  -0.003703
    15  H    0.134891  -0.000044
    16  H    0.179243   0.125638
    17  H    0.160758  -0.023207
    18  H    0.206245   0.022675
    19  H    0.231193   0.002215
    20  H    0.193547   0.003854
    21  H    0.227440   0.000699
    22  H    0.292909  -0.001727
 Sum of Mulliken charges =  -1.00000   1.00000

 Dipole moment (field-independent basis, Debye):
    X=              3.4635    Y=             -1.2121    Z=             -1.4436  Tot=              3.9433
 Quadrupole moment (field-independent basis, Debye-Ang):
   XX=           -125.0243   YY=           -111.0338   ZZ=            -97.3752
   XY=             -0.0543   XZ=              3.8867   YZ=              1.6881

 Summary of Natural Population Analysis:

                                       Natural Population
                Natural  -----------------------------------------------
    Atom  No    Charge         Core      Valence    Rydberg      Total
 -----------------------------------------------------------------------
      C    1    0.11903      0.99967     1.86283    0.01848     2.88097
      N    2   -0.23525      0.99973     2.72240    0.01312     3.73525
      C    3   -0.10528      0.99946     2.09099    0.01483     3.10528
      C    4    0.28378      0.99954     1.69765    0.01903     2.71622
      N    5   -0.31315      0.99964     2.80175    0.01176     3.81315
      C    6    0.22664      0.99965     1.75578    0.01792     2.77336
      N    7   -0.26012      0.99966     2.74717    0.01329     3.76012
      C    8    0.25064      0.99952     1.73024    0.01961     2.74936
      N    9   -0.26182      0.99968     2.74948    0.01267     3.76182
      C   10   -0.26264      0.99951     2.25344    0.00969     3.26264
      S   11    0.08552      4.99956     2.89761    0.01732     7.91448
      C   12    0.15697      0.99968     1.82148    0.02187     2.84303
      N   13   -0.35492      0.99967     2.84220    0.01305     3.85492
      N   14   -0.40195      0.99970     2.88846    0.01379     3.90195
      H   15    0.07908      0.00000     0.41989    0.00104     0.42092
      H   16    0.14227      0.00000     0.35617    0.00156     0.35773
      H   17    0.06881      0.00000     0.42998    0.00121     0.43119
      H   18    0.11281      0.00000     0.38537    0.00182     0.38719
      H   19    0.11136      0.00000     0.38668    0.00196     0.38864
      H   20    0.16844      0.00000     0.32979    0.00177     0.33156
      H   21    0.19714      0.00000     0.30132    0.00154     0.30286
      H   22    0.19263      0.00000     0.30564    0.00174     0.30737
 =======================================================================
   * Total *    0.00000     17.99466    35.77631    0.22903    54.00000

 Normal termination of Gaussian 16 at Thu Dec 10 10:45:40 2020.
