 Gaussian 16, Revision A.03,

 -----------------------------------------------------------
 # opt freq B3LYP/6-31G(d) empiricaldispersion=gd3bj scf=xqc
 -----------------------------------------------------------

 -------------------------------
 CID_142039384_JID_3429_neutraal
 -------------------------------
 Symbolic Z-matrix:
 Charge =  0 Multiplicity = 1

 SCF Done:  E(RB3LYP) =  -581.669720196     A.U. after   14 cycles
 SCF Done:  E(RB3LYP) =  -581.428873620     A.U. after   16 cycles
 SCF Done:  E(RB3LYP) =  -581.671252724     A.U. after   13 cycles
 SCF Done:  E(RB3LYP) =  -581.673332913     A.U. after   14 cycles
 SCF Done:  E(RB3LYP) =  -581.673785449     A.U. after   12 cycles
 SCF Done:  E(RB3LYP) =  -581.673756168     A.U. after   14 cycles
 SCF Done:  E(RB3LYP) =  -581.674513594     A.U. after   12 cycles
 SCF Done:  E(RB3LYP) =  -581.674565340     A.U. after   12 cycles
 SCF Done:  E(RB3LYP) =  -581.674878425     A.U. after   11 cycles
 SCF Done:  E(RB3LYP) =  -581.675099923     A.U. after   12 cycles
 SCF Done:  E(RB3LYP) =  -581.678757076     A.U. after    7 cycles
 SCF Done:  E(RB3LYP) =  -581.678757223     A.U. after    7 cycles
 SCF Done:  E(RB3LYP) =  -581.678757301     A.U. after    7 cycles
 SCF Done:  E(RB3LYP) =  -581.678757387     A.U. after    7 cycles
 SCF Done:  E(RB3LYP) =  -581.678757396     A.U. after    7 cycles
 Optimization completed.
    -- Stationary point found.
 Normal termination of Gaussian 16 at Sun Dec 13 13:06:31 2020.

 --------------------------------------------------------------------
 #N Geom=AllCheck Guess=TCheck SCRF=Check GenChk RB3LYP/6-31G(d) Freq
 --------------------------------------------------------------------

 Structure from the checkpoint file:  "JID_3429.chk"
 -------------------------------
 CID_142039384_JID_3429_neutraal
 -------------------------------
 Charge =  0 Multiplicity = 1

 SCF Done:  E(RB3LYP) =  -581.678757396     A.U. after    1 cycles

  Exact polarizability: 168.811  35.837 109.905  24.977  18.353 124.860
 Approx polarizability: 269.806  77.148 159.153  57.463  42.772 189.663

                      1                      2                      3
                      A                      A                      A
 Frequencies --     19.0940                31.6118                43.6822
 Red. masses --      3.8238                 3.9630                 2.7186
 Frc consts  --      0.0008                 0.0023                 0.0031
 IR Inten    --      0.0124                 0.0949                 0.5123

                      4                      5                      6
                      A                      A                      A
 Frequencies --     49.0464                49.7846                64.4422
 Red. masses --      3.6132                 3.2151                 3.5366
 Frc consts  --      0.0051                 0.0047                 0.0087
 IR Inten    --      0.2615                 0.0588                 1.1886

                      7                      8                      9
                      A                      A                      A
 Frequencies --     74.0953                78.1462                84.3924
 Red. masses --      4.1919                 5.6558                 2.5288
 Frc consts  --      0.0136                 0.0203                 0.0106
 IR Inten    --      0.8215                 0.3901                 1.6036

                     10                     11                     12
                      A                      A                      A
 Frequencies --     91.9033               101.4400               114.0555
 Red. masses --      3.3139                 2.0477                 1.7549
 Frc consts  --      0.0165                 0.0124                 0.0135
 IR Inten    --      1.2654                 0.5043                 0.0967

                     13                     14                     15
                      A                      A                      A
 Frequencies --    121.5146               147.3429               167.1726
 Red. masses --      1.7059                 1.1977                 1.8880
 Frc consts  --      0.0148                 0.0153                 0.0311
 IR Inten    --      0.1347                 0.0384                 0.0738

                     16                     17                     18
                      A                      A                      A
 Frequencies --    187.5840               196.2245               250.8353
 Red. masses --      3.1215                 1.1224                 1.7699
 Frc consts  --      0.0647                 0.0255                 0.0656
 IR Inten    --      0.2984                 0.8465                 0.9253

                     19                     20                     21
                      A                      A                      A
 Frequencies --    302.2994               338.9548               407.7546
 Red. masses --      2.6028                 1.0103                 3.1416
 Frc consts  --      0.1401                 0.0684                 0.3078
 IR Inten    --      2.2300                 0.1459                 0.9127

                     22                     23                     24
                      A                      A                      A
 Frequencies --    413.3575               427.4696               461.1259
 Red. masses --      1.8385                 2.9015                 2.8422
 Frc consts  --      0.1851                 0.3124                 0.3561
 IR Inten    --      3.6731                 4.0012                 3.8802

                     25                     26                     27
                      A                      A                      A
 Frequencies --    550.8230               584.6542               607.8935
 Red. masses --      1.7190                 3.9686                 2.9568
 Frc consts  --      0.3073                 0.7993                 0.6438
 IR Inten    --     24.5123                41.1196                 0.4650

                     28                     29                     30
                      A                      A                      A
 Frequencies --    663.0218               692.5811               744.6980
 Red. masses --      1.3859                 1.4422                 1.8463
 Frc consts  --      0.3590                 0.4076                 0.6033
 IR Inten    --     13.7741               137.3761                 0.1605

                     31                     32                     33
                      A                      A                      A
 Frequencies --    811.0377               832.8562               840.9879
 Red. masses --      2.8793                 1.0567                 1.0580
 Frc consts  --      1.1159                 0.4319                 0.4409
 IR Inten    --      0.4465                 5.1058                 5.6009

                     34                     35                     36
                      A                      A                      A
 Frequencies --    868.6707               921.5827               924.7176
 Red. masses --      3.9538                 1.2617                 1.3619
 Frc consts  --      1.7578                 0.6314                 0.6861
 IR Inten    --      2.6173                18.7447                33.4096

                     37                     38                     39
                      A                      A                      A
 Frequencies --    935.6666               973.8824              1013.4952
 Red. masses --      1.5120                 1.4503                 3.1452
 Frc consts  --      0.7799                 0.8104                 1.9035
 IR Inten    --     36.2960                 0.4729                 1.2387

                     40                     41                     42
                      A                      A                      A
 Frequencies --   1015.5385              1017.5447              1027.1743
 Red. masses --      1.6006                 1.1621                 1.5778
 Frc consts  --      0.9726                 0.7089                 0.9808
 IR Inten    --     57.1942                 1.8497                 0.5228

                     43                     44                     45
                      A                      A                      A
 Frequencies --   1037.2587              1082.6541              1086.4783
 Red. masses --      1.0921                 1.5077                 1.6677
 Frc consts  --      0.6923                 1.0412                 1.1599
 IR Inten    --     38.9281                11.0356                20.0048

                     46                     47                     48
                      A                      A                      A
 Frequencies --   1090.0047              1192.4095              1223.7395
 Red. masses --      1.4769                 2.4496                 1.9465
 Frc consts  --      1.0338                 2.0521                 1.7175
 IR Inten    --      5.4739                 1.1077               204.1282

                     49                     50                     51
                      A                      A                      A
 Frequencies --   1234.3049              1237.9622              1281.8692
 Red. masses --      1.4644                 1.4608                 1.8567
 Frc consts  --      1.3145                 1.3190                 1.7975
 IR Inten    --      0.3464                 0.8072                 5.9880

                     52                     53                     54
                      A                      A                      A
 Frequencies --   1329.2003              1358.1091              1372.3042
 Red. masses --      1.3528                 1.8489                 1.3163
 Frc consts  --      1.4082                 2.0093                 1.4606
 IR Inten    --      0.2303                21.0257                 1.4968

                     55                     56                     57
                      A                      A                      A
 Frequencies --   1394.2787              1434.9951              1436.0495
 Red. masses --      1.5539                 1.2005                 1.4451
 Frc consts  --      1.7798                 1.4565                 1.7558
 IR Inten    --      0.5012                 0.5939                41.9722

                     58                     59                     60
                      A                      A                      A
 Frequencies --   1444.2380              1455.9791              1462.9942
 Red. masses --      1.3141                 1.2547                 1.2886
 Frc consts  --      1.6149                 1.5671                 1.6250
 IR Inten    --      6.2548                 1.8480                 0.1954

                     61                     62                     63
                      A                      A                      A
 Frequencies --   1485.8373              1500.2995              1504.8557
 Red. masses --      1.2852                 1.0544                 1.0521
 Frc consts  --      1.6717                 1.3983                 1.4038
 IR Inten    --      5.7568                 7.8924                 3.4841

                     64                     65                     66
                      A                      A                      A
 Frequencies --   1506.6644              1530.1569              1532.1799
 Red. masses --      1.0502                 1.0908                 1.0326
 Frc consts  --      1.4046                 1.5047                 1.4282
 IR Inten    --     13.0740                 3.1609                 0.2519

                     67                     68                     69
                      A                      A                      A
 Frequencies --   1533.8462              1538.3945              1548.2902
 Red. masses --      1.0347                 1.0547                 1.0507
 Frc consts  --      1.4343                 1.4707                 1.4840
 IR Inten    --      2.4173                 6.3614                 3.7433

                     70                     71                     72
                      A                      A                      A
 Frequencies --   1651.3130              1697.5914              1707.5669
 Red. masses --      4.0271                 3.9937                 4.4978
 Frc consts  --      6.4699                 6.7809                 7.7269
 IR Inten    --      0.5501                21.2392                 1.0328

                     73                     74                     75
                      A                      A                      A
 Frequencies --   1845.1869              3041.8480              3043.1862
 Red. masses --      9.0265                 1.0363                 1.0404
 Frc consts  --     18.1072                 5.6494                 5.6767
 IR Inten    --    210.4106                33.8732                28.2907

                     76                     77                     78
                      A                      A                      A
 Frequencies --   3055.7803              3074.6789              3093.7240
 Red. masses --      1.0376                 1.0385                 1.1004
 Frc consts  --      5.7087                 5.7846                 6.2054
 IR Inten    --     31.0459                 4.9237                18.4111

                     79                     80                     81
                      A                      A                      A
 Frequencies --   3094.7138              3102.5729              3122.6922
 Red. masses --      1.0987                 1.1011                 1.1019
 Frc consts  --      6.1997                 6.2451                 6.3304
 IR Inten    --     18.2350                18.4654                53.7341

                     82                     83                     84
                      A                      A                      A
 Frequencies --   3139.0175              3141.6224              3148.1746
 Red. masses --      1.1023                 1.0989                 1.0989
 Frc consts  --      6.3995                 6.3904                 6.4170
 IR Inten    --     22.7776                 1.4786                 9.4646

                     85                     86                     87
                      A                      A                      A
 Frequencies --   3162.4773              3170.6823              3177.2072
 Red. masses --      1.0605                 1.0770                 1.0695
 Frc consts  --      6.2493                 6.3793                 6.3611
 IR Inten    --      3.4319                 0.4909                 5.6984

                     88                     89                     90
                      A                      A                      A
 Frequencies --   3185.1075              3191.8144              3194.0209
 Red. masses --      1.0858                 1.0887                 1.1030
 Frc consts  --      6.4901                 6.5348                 6.6300
 IR Inten    --      4.1363                25.6651                 3.4034

                     91                     92                     93
                      A                      A                      A
 Frequencies --   3250.0334              3255.7396              3684.5207
 Red. masses --      1.1164                 1.1159                 1.0640
 Frc consts  --      6.9476                 6.9692                 8.5108
 IR Inten    --     13.7748                16.6234                42.3198

 - Thermochemistry -
 -------------------
 Temperature   298.150 Kelvin.  Pressure   1.00000 Atm.
 Atom     1 has atomic number  6 and mass  12.00000

 Molecular mass:   184.14633 amu.
 Principal axes and moments of inertia in atomic units:
                           1         2         3
     Eigenvalues --  2678.519183694.798134641.12828
           X            0.99938   0.02511   0.02483
           Y           -0.02446   0.99936  -0.02612
           Z           -0.02547   0.02549   0.99935
 This molecule is an asymmetric top.
 Rotational symmetry number  1.
 Warning -- assumption of classical behavior for rotation
           may cause significant error
 Rotational temperatures (Kelvin)      0.03234     0.02344     0.01866
 Rotational constants (GHZ):           0.67378     0.48845     0.38886
 Zero-point vibrational energy     755542.1 (Joules/Mol)
                                  180.57890 (Kcal/Mol)
 Warning -- explicit consideration of  27 degrees of freedom as
           vibrations may cause significant error
 Vibrational temperatures:     27.47    45.48    62.85    70.57    71.63
          (Kelvin)             92.72   106.61   112.43   121.42   132.23
                              145.95   164.10   174.83   211.99   240.52
                              269.89   282.32   360.90   434.94   487.68
                              586.67   594.73   615.03   663.46   792.51
                              841.19   874.62   953.94   996.47  1071.45
                             1166.90  1198.29  1209.99  1249.82  1325.95
                             1330.46  1346.22  1401.20  1458.19  1461.13
                             1464.02  1477.87  1492.38  1557.70  1563.20
                             1568.27  1715.61  1760.69  1775.89  1781.15
                             1844.32  1912.42  1954.02  1974.44  2006.06
                             2064.64  2066.15  2077.94  2094.83  2104.92
                             2137.79  2158.60  2165.15  2167.75  2201.55
                             2204.47  2206.86  2213.41  2227.64  2375.87
                             2442.46  2456.81  2654.81  4376.54  4378.47
                             4396.59  4423.78  4451.18  4452.60  4463.91
                             4492.86  4516.35  4520.09  4529.52  4550.10
                             4561.90  4571.29  4582.66  4592.31  4595.48
                             4676.07  4684.28  5301.20

 Zero-point correction=                           0.287771 (Hartree/Particle)
 Thermal correction to Energy=                    0.307487
 Thermal correction to Enthalpy=                  0.308431
 Thermal correction to Gibbs Free Energy=         0.236007
 Sum of electronic and zero-point Energies=           -581.390987
 Sum of electronic and thermal Energies=              -581.371270
 Sum of electronic and thermal Enthalpies=            -581.370326
 Sum of electronic and thermal Free Energies=         -581.442750

                     E (Thermal)             CV                S
                      KCal/Mol        Cal/Mol-Kelvin    Cal/Mol-Kelvin
 Total                  192.951             64.794            152.428
 Electronic               0.000              0.000              0.000
 Translational            0.889              2.981             41.538
 Rotational               0.889              2.981             32.196
 Vibrational            191.173             58.832             78.694
 Vibration     1          0.593              1.986              6.726
 Vibration     2          0.594              1.983              5.726
 Vibration     3          0.595              1.980              5.085
 Vibration     4          0.595              1.978              4.855
 Vibration     5          0.595              1.978              4.826
 Vibration     6          0.597              1.971              4.316
 Vibration     7          0.599              1.966              4.041
 Vibration     8          0.599              1.964              3.937
 Vibration     9          0.601              1.960              3.786
 Vibration    10          0.602              1.955              3.619
 Vibration    11          0.604              1.948              3.426
 Vibration    12          0.607              1.938              3.199
 Vibration    13          0.609              1.931              3.076
 Vibration    14          0.617              1.906              2.706
 Vibration    15          0.624              1.883              2.467
 Vibration    16          0.632              1.857              2.252
 Vibration    17          0.636              1.845              2.168
 Vibration    18          0.663              1.761              1.725
 Vibration    19          0.694              1.669              1.404
 Vibration    20          0.719              1.598              1.217
 Vibration    21          0.772              1.453              0.935
 Vibration    22          0.777              1.441              0.915
 Vibration    23          0.789              1.410              0.867
 Vibration    24          0.819              1.336              0.763
 Vibration    25          0.906              1.138              0.542
 Vibration    26          0.942              1.065              0.477
 Vibration    27          0.967              1.015              0.436

 Optimization completed.
    -- Stationary point found.
 Normal termination of Gaussian 16 at Sun Dec 13 13:14:56 2020.

 ----------------------------------------------------------------------
 # B3LYP/6-311++G(d,p) empiricaldispersion=gd3bj scf=xqc pop=npa geom=c
 heck
 ----------------------------------------------------------------------

 ---------------------------------------
 CID_142039384_JID_3429_Energie_neutraal
 ---------------------------------------
 Structure from the checkpoint file:  "JID_3429.chk"
 Charge =  0 Multiplicity = 1

 SCF Done:  E(RB3LYP) =  -581.860745275     A.U. after   14 cycles
 Normal termination of Gaussian 16 at Sun Dec 13 13:19:02 2020.

 ----------------------------------------------------------------------
 # B3LYP/6-311++G(d,p) empiricaldispersion=gd3bj scf=xqc pop=npa geom=c
 heck
 ----------------------------------------------------------------------

 -------------------------------------
 CID_142039384_JID_3429_Energie_kation
 -------------------------------------
 Structure from the checkpoint file:  "JID_3429.chk"
 Charge =  1 Multiplicity = 2

 SCF Done:  E(UB3LYP) =  -581.575319726     A.U. after   20 cycles
 Normal termination of Gaussian 16 at Sun Dec 13 13:27:29 2020.
 Gaussian 16:  ES64L-G16RevA.03 25-Dec-2016

 ----------------------------------------------------------------------
 # B3LYP/6-311++G(d,p) empiricaldispersion=gd3bj scf=xqc pop=npa geom=c
 heck
 ----------------------------------------------------------------------

 ------------------------------------
 CID_142039384_JID_3429_Energie_anion
 ------------------------------------
 Structure from the checkpoint file:  "JID_3429.chk"
 Charge = -1 Multiplicity = 2

                         Standard orientation:
 ---------------------------------------------------------------------
 Center     Atomic      Atomic             Coordinates (Angstroms)
 Number     Number       Type             X           Y           Z
 ---------------------------------------------------------------------
      1          6           0        0.654795    2.269846   -0.608560
      2          6           0        0.232726    3.690445   -0.986359
      3          6           0        1.500707   -0.435146    1.954098
      4          6           0        1.546410   -0.891801    0.518161
      5          6           0        0.450308   -1.475032   -0.033637
      6          6           0        0.268132   -1.937518   -1.395823
      7          6           0       -0.890499   -2.450811   -1.846250
      8          6           0        2.781176   -0.673825   -0.231017
      9          6           0        3.895415   -0.106122    0.256935
     10          6           0       -2.581494    0.725633   -0.710850
     11          6           0       -2.416458    0.203943    0.688966
     12          8           0       -1.828428    0.747280    1.598473
     13          8           0       -2.995314   -1.019390    0.837690
     14          1           0        0.480985    1.567858   -1.432152
     15          1           0        0.093821    1.904140    0.256911
     16          1           0        1.721031    2.218349   -0.363631
     17          1           0        0.788984    4.059036   -1.856247
     18          1           0       -0.834677    3.739108   -1.235569
     19          1           0        0.406444    4.390451   -0.161007
     20          1           0        0.508039   -0.584482    2.384559
     21          1           0        1.732855    0.633934    2.028285
     22          1           0        2.237430   -0.969464    2.567770
     23          1           0       -0.417481   -1.608472    0.607842
     24          1           0        1.103683   -1.855603   -2.087379
     25          1           0       -1.005075   -2.786574   -2.872258
     26          1           0       -1.756172   -2.547285   -1.195028
     27          1           0        2.791656   -1.003398   -1.266826
     28          1           0        4.777665    0.019530   -0.363092
     29          1           0        3.968396    0.249685    1.279934
     30          1           0       -3.601135    0.557374   -1.067660
     31          1           0       -1.899891    0.175737   -1.369371
     32          1           0       -2.332294    1.785912   -0.738312
     33          1           0       -2.821618   -1.286624    1.759960
 ---------------------------------------------------------------------

 SCF Done:  E(UB3LYP) =  -581.861341451     A.U. after   33 cycles
 SCF Done:  E(UB3LYP) =  -581.861341451     a.u. after    1 cycles

 The electronic state is 2-A.
 Alpha  occ. eigenvalues --  -19.07094 -19.01088 -10.20398 -10.07441 -10.05183
 Alpha  occ. eigenvalues --  -10.02976 -10.01980 -10.01821 -10.01222 -10.00894
 Alpha  occ. eigenvalues --  -10.00070 -10.00037  -9.99884  -1.00850  -0.91770
 Alpha  occ. eigenvalues --   -0.67039  -0.65453  -0.63701  -0.62302  -0.58148
 Alpha  occ. eigenvalues --   -0.53202  -0.51086  -0.49889  -0.45327  -0.41967
 Alpha  occ. eigenvalues --   -0.39205  -0.37910  -0.37228  -0.35896  -0.33814
 Alpha  occ. eigenvalues --   -0.32555  -0.32080  -0.30431  -0.30217  -0.29846
 Alpha  occ. eigenvalues --   -0.28827  -0.27600  -0.27377  -0.25139  -0.24614
 Alpha  occ. eigenvalues --   -0.24437  -0.23079  -0.22627  -0.22335  -0.21978
 Alpha  occ. eigenvalues --   -0.20902  -0.18208  -0.17660  -0.17396  -0.13676
 Alpha  occ. eigenvalues --   -0.06759   0.05277
 Alpha virt. eigenvalues --    0.07243   0.08058   0.09095   0.09704   0.09993
 Alpha virt. eigenvalues --    0.10528   0.10986   0.11631   0.11855   0.12492
 Alpha virt. eigenvalues --    0.13144   0.13662   0.13964   0.14306   0.14489

  Beta  occ. eigenvalues --  -19.07089 -19.01053 -10.20357 -10.07442 -10.05172
  Beta  occ. eigenvalues --  -10.02974 -10.02000 -10.01797 -10.01166 -10.00643
  Beta  occ. eigenvalues --   -9.99764  -9.99742  -9.99675  -1.00810  -0.91723
  Beta  occ. eigenvalues --   -0.66523  -0.65411  -0.63688  -0.61819  -0.57823
  Beta  occ. eigenvalues --   -0.52829  -0.51056  -0.49869  -0.44522  -0.41584
  Beta  occ. eigenvalues --   -0.39144  -0.37887  -0.37034  -0.35678  -0.33627
  Beta  occ. eigenvalues --   -0.32542  -0.32071  -0.30390  -0.30088  -0.29783
  Beta  occ. eigenvalues --   -0.28768  -0.27297  -0.27135  -0.25113  -0.24510
  Beta  occ. eigenvalues --   -0.24233  -0.23009  -0.22613  -0.22249  -0.21858
  Beta  occ. eigenvalues --   -0.20687  -0.18156  -0.17274  -0.16338  -0.12226
  Beta  occ. eigenvalues --   -0.04769
  Beta virt. eigenvalues --    0.07184   0.08027   0.09103   0.09631   0.09991
  Beta virt. eigenvalues --    0.10274   0.10795   0.11063   0.11716   0.11822
  Beta virt. eigenvalues --    0.12409   0.13123   0.13554   0.14038   0.14215

 Mulliken charges and spin densities:
               1          2
     1  C   -0.516037   0.202543
     2  C   -0.115289  -0.439236
     3  C   -0.840609  -0.031591
     4  C    0.904920   0.107996
     5  C   -0.285884   0.199228
     6  C    0.033435  -0.065232
     7  C   -0.889142   0.367374
     8  C    0.145387   0.034359
     9  C   -0.824087   0.282522
    10  C   -0.326844  -0.071100
    11  C   -0.157975   0.047912
    12  O   -0.251614   0.008367
    13  O   -0.115277   0.004757
    14  H    0.119961   0.003697
    15  H    0.207358  -0.042434
    16  H    0.138860   0.060277
    17  H    0.030812   0.085673
    18  H    0.036055   0.070448
    19  H    0.018217   0.103890
    20  H    0.116846   0.000958
    21  H    0.078032   0.043719
    22  H    0.101138   0.024130
    23  H    0.068789  -0.024428
    24  H    0.087503   0.002472
    25  H    0.096123  -0.018371
    26  H    0.091549  -0.001223
    27  H    0.112924  -0.004950
    28  H    0.079012  -0.006217
    29  H    0.101584  -0.018772
    30  H    0.117744   0.023646
    31  H    0.269989  -0.014681
    32  H    0.096595   0.045867
    33  H    0.269926   0.018401
 Sum of Mulliken charges =  -1.00000   1.00000

 Dipole moment (field-independent basis, Debye):
    X=             -5.2351    Y=              1.7214    Z=              0.5259  Tot=              5.5359
 Quadrupole moment (field-independent basis, Debye-Ang):
   XX=           -118.8866   YY=           -118.7367   ZZ=            -98.4555
   XY=              0.2866   XZ=             -4.9718   YZ=             -6.8858

 Summary of Natural Population Analysis:

                                       Natural Population
                Natural  -----------------------------------------------
    Atom  No    Charge         Core      Valence    Rydberg      Total
 -----------------------------------------------------------------------
      C    1   -0.29704      0.99968     2.29121    0.00615     3.29704
      C    2   -0.28435      0.99969     2.28135    0.00331     3.28435
      C    3   -0.29556      0.99964     2.29004    0.00588     3.29556
      C    4    0.01220      0.99949     1.97744    0.01088     2.98780
      C    5   -0.07662      0.99948     2.06601    0.01113     3.07662
      C    6   -0.10771      0.99956     2.09967    0.00848     3.10771
      C    7   -0.14635      0.99960     2.13812    0.00863     3.14635
      C    8   -0.09895      0.99954     2.08968    0.00973     3.09895
      C    9   -0.15533      0.99960     2.14651    0.00922     3.15533
      C   10   -0.34349      0.99960     2.33866    0.00522     3.34349
      C   11    0.40943      0.99976     1.56639    0.02443     2.59057
      O   12   -0.30312      0.99987     3.29648    0.00678     4.30312
      O   13   -0.34889      0.99988     3.34221    0.00680     4.34889
      H   14    0.09773      0.00000     0.40098    0.00129     0.40227
      H   15    0.10662      0.00000     0.39179    0.00159     0.39338
      H   16    0.10491      0.00000     0.39371    0.00138     0.39509
      H   17    0.09025      0.00000     0.40858    0.00117     0.40975
      H   18    0.08829      0.00000     0.41048    0.00123     0.41171
      H   19    0.09160      0.00000     0.40717    0.00123     0.40840
      H   20    0.09918      0.00000     0.40010    0.00072     0.40082
      H   21    0.09935      0.00000     0.39922    0.00144     0.40065
      H   22    0.09589      0.00000     0.40312    0.00099     0.40411
      H   23    0.07898      0.00000     0.41920    0.00182     0.42102
      H   24    0.08564      0.00000     0.41294    0.00142     0.41436
      H   25    0.07964      0.00000     0.41935    0.00102     0.42036
      H   26    0.08270      0.00000     0.41608    0.00121     0.41730
      H   27    0.08566      0.00000     0.41286    0.00148     0.41434
      H   28    0.08097      0.00000     0.41815    0.00089     0.41903
      H   29    0.08273      0.00000     0.41638    0.00089     0.41727
      H   30    0.10593      0.00000     0.39303    0.00104     0.39407
      H   31    0.13402      0.00000     0.36486    0.00112     0.36598
      H   32    0.10896      0.00000     0.38973    0.00131     0.39104
      H   33    0.23672      0.00000     0.25971    0.00358     0.26328
 =======================================================================
   * Total *    0.00000     12.99538    37.86119    0.14342    51.00000

 Normal termination of Gaussian 16 at Sun Dec 13 13:41:22 2020.
