 Gaussian 16, Revision A.03,

 ----------------------------------------------------------------------
 # opt=(cartesian,calcfc) freq B3LYP/6-31G(d) empiricaldispersion=gd3bj
  scf=xqc
 ----------------------------------------------------------------------

 ------------------------------
 CID_59047328_JID_5303_neutraal
 ------------------------------
 Symbolic Z-matrix:
 Charge =  0 Multiplicity = 1

 SCF Done:  E(RB3LYP) =  -746.994005810     A.U. after   14 cycles
 SCF Done:  E(RB3LYP) =  -746.994434445     A.U. after   11 cycles
 SCF Done:  E(RB3LYP) =  -746.994676194     A.U. after   11 cycles
 SCF Done:  E(RB3LYP) =  -746.994625689     A.U. after   12 cycles
 SCF Done:  E(RB3LYP) =  -746.994533233     A.U. after   12 cycles
 SCF Done:  E(RB3LYP) =  -746.994720031     A.U. after   11 cycles
 SCF Done:  E(RB3LYP) =  -746.994763478     A.U. after   11 cycles
 SCF Done:  E(RB3LYP) =  -746.994822957     A.U. after   11 cycles
 SCF Done:  E(RB3LYP) =  -746.994405199     A.U. after   12 cycles
 SCF Done:  E(RB3LYP) =  -746.994848381     A.U. after   12 cycles
 SCF Done:  E(RB3LYP) =  -746.994930094     A.U. after    8 cycles
 SCF Done:  E(RB3LYP) =  -746.994929982     A.U. after    8 cycles
 SCF Done:  E(RB3LYP) =  -746.994930335     A.U. after    7 cycles
 SCF Done:  E(RB3LYP) =  -746.994930461     A.U. after    7 cycles
 SCF Done:  E(RB3LYP) =  -746.994930535     A.U. after    7 cycles
 Optimization completed.
    -- Stationary point found.
 Normal termination of Gaussian 16 at Wed Dec 30 15:29:18 2020.

 --------------------------------------------------------------------
 #N Geom=AllCheck Guess=TCheck SCRF=Check GenChk RB3LYP/6-31G(d) Freq
 --------------------------------------------------------------------

 Structure from the checkpoint file:  "JID_5303.chk"
 ------------------------------
 CID_59047328_JID_5303_neutraal
 ------------------------------
 Charge =  0 Multiplicity = 1

 SCF Done:  E(RB3LYP) =  -746.994930535     A.U. after    1 cycles

  Exact polarizability: 131.001  -2.289 119.150  -0.662  -1.155 105.001
 Approx polarizability: 173.042   3.728 161.382  -0.264  -2.368 168.807

                      1                      2                      3
                      A                      A                      A
 Frequencies --     34.0052                48.8590                50.9478
 Red. masses --      7.5301                 7.5812                 3.5581
 Frc consts  --      0.0051                 0.0107                 0.0054
 IR Inten    --      0.7071                 0.5356                 2.7296

                      4                      5                      6
                      A                      A                      A
 Frequencies --     66.6008                95.3118               107.2839
 Red. masses --      5.6700                 3.2581                 3.4223
 Frc consts  --      0.0148                 0.0174                 0.0232
 IR Inten    --      4.8690                 1.9292                 0.7432

                      7                      8                      9
                      A                      A                      A
 Frequencies --    139.1373               165.8905               183.7248
 Red. masses --      1.3054                 5.0908                 2.4962
 Frc consts  --      0.0149                 0.0825                 0.0496
 IR Inten    --      1.4425                 2.1613                 2.2213

                     10                     11                     12
                      A                      A                      A
 Frequencies --    232.0152               256.3727               292.4768
 Red. masses --      3.6757                 4.5702                 2.7905
 Frc consts  --      0.1166                 0.1770                 0.1406
 IR Inten    --      7.5946                 4.2726                 1.0360

                     13                     14                     15
                      A                      A                      A
 Frequencies --    317.6633               363.6984               377.9170
 Red. masses --      4.2559                 2.1362                 2.2992
 Frc consts  --      0.2530                 0.1665                 0.1935
 IR Inten    --      3.7061                 0.4507                 4.8313

                     16                     17                     18
                      A                      A                      A
 Frequencies --    400.9005               406.6218               433.1934
 Red. masses --      2.4318                 2.1147                 2.3189
 Frc consts  --      0.2303                 0.2060                 0.2564
 IR Inten    --      4.3515                 0.2694                 3.7400

                     19                     20                     21
                      A                      A                      A
 Frequencies --    496.6044               503.2224               537.6730
 Red. masses --      3.5098                 1.7555                 3.3850
 Frc consts  --      0.5100                 0.2619                 0.5766
 IR Inten    --     11.8517                20.1125                11.2306

                     22                     23                     24
                      A                      A                      A
 Frequencies --    556.9171               602.8410               663.6559
 Red. masses --      4.0145                 2.8376                 4.1074
 Frc consts  --      0.7336                 0.6076                 1.0659
 IR Inten    --     21.3920                 6.1447                 9.9164

                     25                     26                     27
                      A                      A                      A
 Frequencies --    680.5432               718.7409               785.4521
 Red. masses --      1.4111                 2.7756                 3.4600
 Frc consts  --      0.3851                 0.8448                 1.2577
 IR Inten    --     98.2193                17.8956                 3.6858

                     28                     29                     30
                      A                      A                      A
 Frequencies --    788.8964               821.0222               844.4186
 Red. masses --      3.3568                 1.5495                 2.8568
 Frc consts  --      1.2309                 0.6154                 1.2002
 IR Inten    --      1.4959                 1.1150                 4.6381

                     31                     32                     33
                      A                      A                      A
 Frequencies --    851.9286               890.9036               914.4865
 Red. masses --      3.0893                 1.7646                 2.3665
 Frc consts  --      1.3210                 0.8252                 1.1660
 IR Inten    --      8.1894                 2.0111                 1.2544

                     34                     35                     36
                      A                      A                      A
 Frequencies --    941.0533              1004.3587              1024.8518
 Red. masses --      2.3923                 2.0244                 2.3333
 Frc consts  --      1.2483                 1.2032                 1.4439
 IR Inten    --     15.8909                12.2302                26.6052

                     37                     38                     39
                      A                      A                      A
 Frequencies --   1032.7567              1040.3634              1065.8406
 Red. masses --      1.6106                 1.7836                 2.1651
 Frc consts  --      1.0121                 1.1374                 1.4491
 IR Inten    --      4.2623                 7.5479                10.4585

                     40                     41                     42
                      A                      A                      A
 Frequencies --   1103.4583              1107.0637              1131.4154
 Red. masses --      2.1630                 2.4973                 1.8644
 Frc consts  --      1.5518                 1.8033                 1.4062
 IR Inten    --     39.2368                37.8083                61.7539

                     43                     44                     45
                      A                      A                      A
 Frequencies --   1148.3095              1155.4484              1162.6037
 Red. masses --      2.4245                 2.7717                 2.9874
 Frc consts  --      1.8836                 2.1802                 2.3791
 IR Inten    --     69.0040                10.6730               353.5009

                     46                     47                     48
                      A                      A                      A
 Frequencies --   1207.4010              1230.8504              1238.4648
 Red. masses --      2.0838                 1.1552                 1.3296
 Frc consts  --      1.7898                 1.0312                 1.2015
 IR Inten    --      3.3814                 0.1620                14.2581

                     49                     50                     51
                      A                      A                      A
 Frequencies --   1250.5382              1285.1297              1307.4322
 Red. masses --      2.3303                 1.2732                 1.2835
 Frc consts  --      2.1471                 1.2389                 1.2927
 IR Inten    --     31.9419                10.2069                30.1229

                     52                     53                     54
                      A                      A                      A
 Frequencies --   1328.5013              1357.3371              1360.6447
 Red. masses --      1.5243                 1.4468                 1.5782
 Frc consts  --      1.5850                 1.5705                 1.7215
 IR Inten    --     20.1642                27.3647                23.6648

                     55                     56                     57
                      A                      A                      A
 Frequencies --   1375.3778              1378.4866              1388.1202
 Red. masses --      1.5559                 1.2816                 1.3215
 Frc consts  --      1.7341                 1.4349                 1.5003
 IR Inten    --      4.2037                18.8410                 0.0386

                     58                     59                     60
                      A                      A                      A
 Frequencies --   1405.5779              1414.3414              1418.1237
 Red. masses --      1.5481                 1.4360                 1.3314
 Frc consts  --      1.8020                 1.6924                 1.5776
 IR Inten    --      3.7172                 6.5414                35.9612

                     61                     62                     63
                      A                      A                      A
 Frequencies --   1421.1911              1424.1624              1450.7234
 Red. masses --      1.7428                 1.4462                 1.3776
 Frc consts  --      2.0739                 1.7282                 1.7082
 IR Inten    --     11.6050                 1.1930                10.2092

                     64                     65                     66
                      A                      A                      A
 Frequencies --   1474.9681              1494.3096              1497.5629
 Red. masses --      1.1293                 1.0573                 1.0993
 Frc consts  --      1.4475                 1.3910                 1.4526
 IR Inten    --     17.0712                 8.1220                 3.0260

                     67                     68                     69
                      A                      A                      A
 Frequencies --   1500.8071              1510.7000              1520.5436
 Red. masses --      1.0536                 1.0840                 1.0857
 Frc consts  --      1.3983                 1.4576                 1.4790
 IR Inten    --     16.8554                 6.6649                12.9630

                     70                     71                     72
                      A                      A                      A
 Frequencies --   1535.3260              1547.5017              1814.4671
 Red. masses --      1.0821                 1.0942                10.2489
 Frc consts  --      1.5029                 1.5439                19.8804
 IR Inten    --      0.1213                11.5533               125.0669

                     73                     74                     75
                      A                      A                      A
 Frequencies --   1836.4231              2995.7572              3026.1978
 Red. masses --      9.5727                 1.0841                 1.0594
 Frc consts  --     19.0208                 5.7322                 5.7163
 IR Inten    --    256.7119                56.4170                44.6645

                     76                     77                     78
                      A                      A                      A
 Frequencies --   3031.5668              3039.3042              3046.0273
 Red. masses --      1.0584                 1.0581                 1.0589
 Frc consts  --      5.7308                 5.7587                 5.7887
 IR Inten    --     32.1366                32.1922                29.3847

                     79                     80                     81
                      A                      A                      A
 Frequencies --   3054.2218              3056.0749              3062.2652
 Red. masses --      1.0426                 1.0689                 1.0754
 Frc consts  --      5.7301                 5.8819                 5.9415
 IR Inten    --     11.9882                 3.8762                31.7224

                     82                     83                     84
                      A                      A                      A
 Frequencies --   3074.8279              3078.6591              3081.4389
 Red. masses --      1.0947                 1.0941                 1.1021
 Frc consts  --      6.0977                 6.1097                 6.1656
 IR Inten    --     32.4263                54.1859                15.4558

                     85                     86                     87
                      A                      A                      A
 Frequencies --   3089.3345              3110.6340              3112.4779
 Red. masses --      1.1047                 1.1022                 1.1029
 Frc consts  --      6.2119                 6.2835                 6.2952
 IR Inten    --     28.4685                19.1901                34.9518

                     88                     89                     90
                      A                      A                      A
 Frequencies --   3125.6219              3171.0583              3675.7043
 Red. masses --      1.0919                 1.1045                 1.0641
 Frc consts  --      6.2850                 6.5439                 8.4705
 IR Inten    --      4.0839                 9.1838                37.7616

 - Thermochemistry -
 -------------------
 Temperature   298.150 Kelvin.  Pressure   1.00000 Atm.
 Atom     1 has atomic number  6 and mass  12.00000

 Molecular mass:   215.11576 amu.
 Principal axes and moments of inertia in atomic units:
                           1         2         3
     Eigenvalues --  2165.111794229.359795338.10757
           X            0.99997   0.00117  -0.00729
           Y           -0.00129   0.99987  -0.01586
           Z            0.00727   0.01586   0.99985
 This molecule is an asymmetric top.
 Rotational symmetry number  1.
 Warning -- assumption of classical behavior for rotation
           may cause significant error
 Rotational temperatures (Kelvin)      0.04000     0.02048     0.01623
 Rotational constants (GHZ):           0.83356     0.42672     0.33809
 Zero-point vibrational energy     719874.6 (Joules/Mol)
                                  172.05416 (Kcal/Mol)
 Warning -- explicit consideration of  23 degrees of freedom as
           vibrations may cause significant error
 Vibrational temperatures:     48.93    70.30    73.30    95.82   137.13
          (Kelvin)            154.36   200.19   238.68   264.34   333.82
                              368.86   420.81   457.05   523.28   543.74
                              576.81   585.04   623.27   714.50   724.02
                              773.59   801.28   867.35   954.85   979.15
                             1034.11  1130.09  1135.05  1181.27  1214.93
                             1225.74  1281.81  1315.74  1353.97  1445.05
                             1474.53  1485.91  1496.85  1533.51  1587.63
                             1592.82  1627.85  1652.16  1662.43  1672.73
                             1737.18  1770.92  1781.87  1799.25  1849.01
                             1881.10  1911.42  1952.91  1957.66  1978.86
                             1983.33  1997.20  2022.31  2034.92  2040.36
                             2044.78  2049.05  2087.27  2122.15  2149.98
                             2154.66  2159.33  2173.56  2187.72  2208.99
                             2226.51  2610.61  2642.20  4310.23  4354.02
                             4361.75  4372.88  4382.55  4394.34  4397.01
                             4405.92  4423.99  4429.50  4433.50  4444.86
                             4475.51  4478.16  4497.07  4562.45  5288.52

 Zero-point correction=                           0.274186 (Hartree/Particle)
 Thermal correction to Energy=                    0.289446
 Thermal correction to Enthalpy=                  0.290391
 Thermal correction to Gibbs Free Energy=         0.230586
 Sum of electronic and zero-point Energies=           -746.720745
 Sum of electronic and thermal Energies=              -746.705484
 Sum of electronic and thermal Enthalpies=            -746.704540
 Sum of electronic and thermal Free Energies=         -746.764345

                     E (Thermal)             CV                S
                      KCal/Mol        Cal/Mol-Kelvin    Cal/Mol-Kelvin
 Total                  181.630             56.812            125.869
 Electronic               0.000              0.000              0.000
 Translational            0.889              2.981             42.001
 Rotational               0.889              2.981             32.258
 Vibrational            179.853             50.850             51.610
 Vibration     1          0.594              1.983              5.581
 Vibration     2          0.595              1.978              4.863
 Vibration     3          0.595              1.977              4.780
 Vibration     4          0.598              1.970              4.251
 Vibration     5          0.603              1.953              3.548
 Vibration     6          0.606              1.943              3.317
 Vibration     7          0.615              1.914              2.816
 Vibration     8          0.624              1.884              2.482
 Vibration     9          0.631              1.862              2.290
 Vibration    10          0.653              1.792              1.863
 Vibration    11          0.666              1.752              1.686
 Vibration    12          0.688              1.688              1.460
 Vibration    13          0.704              1.640              1.322
 Vibration    14          0.737              1.547              1.106
 Vibration    15          0.748              1.517              1.047
 Vibration    16          0.767              1.468              0.959
 Vibration    17          0.771              1.456              0.939
 Vibration    18          0.794              1.398              0.848
 Vibration    19          0.852              1.258              0.667
 Vibration    20          0.859              1.243              0.650
 Vibration    21          0.893              1.167              0.570
 Vibration    22          0.912              1.125              0.530
 Vibration    23          0.961              1.026              0.445

 Normal termination of Gaussian 16 at Wed Dec 30 15:39:33 2020.

 ----------------------------------------------------------------------
 # B3LYP/6-311++G(d,p) empiricaldispersion=gd3bj scf=xqc pop=npa geom=c
 heck
 ----------------------------------------------------------------------

 --------------------------------------
 CID_59047328_JID_5303_Energie_neutraal
 --------------------------------------
 Structure from the checkpoint file:  "JID_5303.chk"
 Charge =  0 Multiplicity = 1

 SCF Done:  E(RB3LYP) =  -747.221380464     A.U. after   14 cycles
 Normal termination of Gaussian 16 at Wed Dec 30 15:43:24 2020.

 ----------------------------------------------------------------------
 # B3LYP/6-311++G(d,p) empiricaldispersion=gd3bj scf=xqc pop=npa geom=c
 heck
 ----------------------------------------------------------------------

 ------------------------------------
 CID_59047328_JID_5303_Energie_kation
 ------------------------------------
 Structure from the checkpoint file:  "JID_5303.chk"
 Charge =  1 Multiplicity = 2

 SCF Done:  E(UB3LYP) =  -746.929852292     A.U. after   23 cycles
 Normal termination of Gaussian 16 at Wed Dec 30 15:51:55 2020.
 Gaussian 16:  ES64L-G16RevA.03 25-Dec-2016

 ----------------------------------------------------------------------
 # B3LYP/6-311++G(d,p) empiricaldispersion=gd3bj scf=xqc pop=npa geom=c
 heck
 ----------------------------------------------------------------------

 -----------------------------------
 CID_59047328_JID_5303_Energie_anion
 -----------------------------------
 Structure from the checkpoint file:  "JID_5303.chk"
 Charge = -1 Multiplicity = 2

                         Standard orientation:
 ---------------------------------------------------------------------
 Center     Atomic      Atomic             Coordinates (Angstroms)
 Number     Number       Type             X           Y           Z
 ---------------------------------------------------------------------
      1          6           0        1.553700    2.329427   -0.723296
      2          6           0        2.467764    1.457273    0.106956
      3          8           0        2.857038    1.769277    1.217345
      4          6           0        2.903933    0.132054   -0.532645
      5          8           0        1.791036   -0.636691   -0.959513
      6          6           0        1.417498   -1.711542   -0.085747
      7          6           0        0.267001   -2.432275   -0.784466
      8          6           0       -0.978677   -1.546980   -0.836341
      9          7           0       -1.366402   -1.133571    0.517228
     10          6           0       -0.312838   -0.411571    1.237519
     11          6           0        0.966977   -1.243986    1.303944
     12          6           0       -2.651246   -0.486659    0.579435
     13          6           0       -2.774177    0.866835   -0.123679
     14          8           0       -1.905337    1.456187   -0.729782
     15          8           0       -4.028843    1.363144    0.009292
     16          1           0        1.313732    3.242025   -0.174506
     17          1           0        0.633134    1.793484   -0.975274
     18          1           0        2.044353    2.585641   -1.671227
     19          1           0        3.502643    0.354903   -1.427306
     20          1           0        3.535000   -0.410871    0.180931
     21          1           0        2.280915   -2.387355    0.020157
     22          1           0        0.570708   -2.707575   -1.800025
     23          1           0        0.042180   -3.351610   -0.231327
     24          1           0       -0.788481   -0.687228   -1.493735
     25          1           0       -1.815350   -2.113645   -1.263420
     26          1           0       -0.673644   -0.219474    2.255416
     27          1           0       -0.100144    0.565141    0.782757
     28          1           0        0.787315   -2.139665    1.911293
     29          1           0        1.754081   -0.665722    1.798818
     30          1           0       -3.419230   -1.142699    0.148688
     31          1           0       -2.938340   -0.331018    1.627822
     32          1           0       -4.034810    2.219876   -0.458476
 ---------------------------------------------------------------------

 SCF Done:  E(UB3LYP) =  -747.210810458     A.U. after   33 cycles
 SCF Done:  E(UB3LYP) =  -747.210810458     a.u. after    1 cycles

 The electronic state is 2-A.
 Alpha  occ. eigenvalues --  -19.07210 -19.02895 -19.02178 -19.00311 -14.20989
 Alpha  occ. eigenvalues --  -10.21011 -10.14364 -10.12687 -10.12057 -10.11468
 Alpha  occ. eigenvalues --  -10.09186 -10.09008 -10.06957 -10.06940 -10.06065
 Alpha  occ. eigenvalues --   -1.01395  -0.94596  -0.93131  -0.92583  -0.83483
 Alpha  occ. eigenvalues --   -0.70871  -0.66274  -0.65199  -0.63187  -0.59353
 Alpha  occ. eigenvalues --   -0.54326  -0.53632  -0.49612  -0.45827  -0.43654
 Alpha  occ. eigenvalues --   -0.41188  -0.40454  -0.39248  -0.38691  -0.38423
 Alpha  occ. eigenvalues --   -0.37785  -0.36609  -0.35187  -0.34857  -0.33088
 Alpha  occ. eigenvalues --   -0.32226  -0.31938  -0.30655  -0.30154  -0.29562
 Alpha  occ. eigenvalues --   -0.28145  -0.27516  -0.27158  -0.25508  -0.25379
 Alpha  occ. eigenvalues --   -0.23911  -0.23536  -0.23001  -0.21270  -0.19790
 Alpha  occ. eigenvalues --   -0.18561  -0.13517  -0.11942   0.04268
 Alpha virt. eigenvalues --    0.05816   0.06648   0.07551   0.07768   0.08209
 Alpha virt. eigenvalues --    0.09124   0.09513   0.10176   0.10513   0.10827
 Alpha virt. eigenvalues --    0.11436   0.12491   0.12772   0.13116   0.14098

  Beta  occ. eigenvalues --  -19.07156 -19.02871 -19.02168 -19.00172 -14.20982
  Beta  occ. eigenvalues --  -10.21011 -10.14209 -10.12678 -10.12054 -10.11437
  Beta  occ. eigenvalues --  -10.09176 -10.08997 -10.06952 -10.06927 -10.06067
  Beta  occ. eigenvalues --   -1.01334  -0.94483  -0.92923  -0.92529  -0.83466
  Beta  occ. eigenvalues --   -0.70831  -0.66237  -0.65075  -0.63096  -0.59294
  Beta  occ. eigenvalues --   -0.54263  -0.53595  -0.49528  -0.45734  -0.43476
  Beta  occ. eigenvalues --   -0.41142  -0.40406  -0.39155  -0.38657  -0.38318
  Beta  occ. eigenvalues --   -0.37735  -0.36529  -0.35138  -0.34796  -0.32965
  Beta  occ. eigenvalues --   -0.32153  -0.31752  -0.30614  -0.30098  -0.29529
  Beta  occ. eigenvalues --   -0.28100  -0.27474  -0.27115  -0.25467  -0.24918
  Beta  occ. eigenvalues --   -0.23835  -0.23439  -0.22966  -0.21229  -0.19747
  Beta  occ. eigenvalues --   -0.18494  -0.13411  -0.11901
  Beta virt. eigenvalues --    0.06490   0.07217   0.07520   0.07971   0.08488
  Beta virt. eigenvalues --    0.09004   0.09220   0.09833   0.10381   0.10794
  Beta virt. eigenvalues --    0.11027   0.11557   0.12649   0.12932   0.13152

 Mulliken charges and spin densities:
               1          2
     1  C   -0.077525  -0.442198
     2  C   -0.411570   0.596446
     3  O   -0.249557   0.042104
     4  C    0.328344  -0.614468
     5  O   -0.015750   0.001829
     6  C   -0.566153   0.557258
     7  C    0.696596  -1.307349
     8  C   -0.240219  -0.019796
     9  N    0.046101   0.177187
    10  C   -0.358685   0.039692
    11  C    0.198439  -0.645908
    12  C    1.185803  -1.629225
    13  C   -0.338754   0.459638
    14  O   -0.273579  -0.035470
    15  O   -0.162112   0.041573
    16  H    0.005602   0.143801
    17  H    0.309108  -0.101009
    18  H   -0.045271   0.191759
    19  H   -0.229213   0.386416
    20  H    0.101934   0.065697
    21  H   -0.187257   0.379793
    22  H   -0.059196   0.245180
    23  H   -0.028579   0.167820
    24  H    0.203174  -0.035089
    25  H   -0.121752   0.283656
    26  H    0.045004   0.115827
    27  H    0.167497  -0.026341
    28  H   -0.013264   0.160864
    29  H    0.244803  -0.064582
    30  H   -0.312812   0.520026
    31  H   -0.190342   0.406766
    32  H   -0.650816   0.938102
 Sum of Mulliken charges =  -1.00000   1.00000

 Dipole moment (field-independent basis, Debye):
    X=              3.3391    Y=             -2.5287    Z=              0.7198  Tot=              4.2500
 Quadrupole moment (field-independent basis, Debye-Ang):
   XX=           -166.1685   YY=           -136.4753   ZZ=           -120.2226
   XY=              5.3940   XZ=             -1.9622   YZ=             -1.2966

 Summary of Natural Population Analysis:

                                       Natural Population
                Natural  -----------------------------------------------
    Atom  No    Charge         Core      Valence    Rydberg      Total
 -----------------------------------------------------------------------
      C    1   -0.34329      0.99961     2.33828    0.00540     3.34329
      C    2    0.29513      0.99970     1.68430    0.02087     2.70487
      O    3   -0.28015      0.99987     3.27392    0.00636     4.28015
      C    4   -0.05242      0.99953     2.04034    0.01255     3.05242
      O    5   -0.30699      0.99988     3.29666    0.01045     4.30699
      C    6    0.07332      0.99953     1.91282    0.01432     2.92668
      C    7   -0.19896      0.99960     2.18934    0.01002     3.19896
      C    8   -0.08723      0.99960     2.07648    0.01115     3.08723
      N    9   -0.28248      0.99972     2.76775    0.01502     3.78248
      C   10   -0.08716      0.99960     2.07713    0.01042     3.08716
      C   11   -0.21169      0.99960     2.20369    0.00841     3.21169
      C   12   -0.13182      0.99956     2.11963    0.01262     3.13182
      C   13    0.40205      0.99973     1.57386    0.02436     2.59795
      O   14   -0.30936      0.99987     3.30304    0.00646     4.30936
      O   15   -0.34595      0.99988     3.33896    0.00711     4.34595
      H   16    0.10697      0.00000     0.39213    0.00090     0.39303
      H   17    0.12614      0.00000     0.37183    0.00204     0.37386
      H   18    0.10726      0.00000     0.39161    0.00112     0.39274
      H   19    0.09526      0.00000     0.40311    0.00163     0.40474
      H   20    0.08828      0.00000     0.41037    0.00135     0.41172
      H   21    0.08335      0.00000     0.41530    0.00135     0.41665
      H   22    0.10384      0.00000     0.39503    0.00112     0.39616
      H   23    0.09973      0.00000     0.39871    0.00156     0.40027
      H   24    0.09598      0.00000     0.40205    0.00197     0.40402
      H   25    0.09470      0.00000     0.40403    0.00127     0.40530
      H   26    0.09469      0.00000     0.40427    0.00104     0.40531
      H   27    0.09336      0.00000     0.40421    0.00243     0.40664
      H   28    0.10076      0.00000     0.39786    0.00138     0.39924
      H   29    0.10855      0.00000     0.39033    0.00112     0.39145
      H   30    0.11262      0.00000     0.38583    0.00155     0.38738
      H   31    0.11094      0.00000     0.38774    0.00132     0.38906
      H   32    0.24457      0.00000     0.23538    0.02005     0.25543
 =======================================================================
   * Total *   -0.00000     14.99528    42.78599    0.21873    58.00000

 Normal termination of Gaussian 16 at Wed Dec 30 16:04:16 2020.
