 Gaussian 16, Revision A.03,

 -----------------------------------------------------------
 # opt freq B3LYP/6-31G(d) empiricaldispersion=gd3bj scf=xqc
 -----------------------------------------------------------

 ------------------------------
 CID_64906664_JID_1012_neutraal
 ------------------------------
 Symbolic Z-matrix:
 Charge =  0 Multiplicity = 1

 SCF Done:  E(RB3LYP) =  -897.758905385     A.U. after   14 cycles
 SCF Done:  E(RB3LYP) =  -897.765079321     A.U. after   12 cycles
 SCF Done:  E(RB3LYP) =  -897.765814924     A.U. after   11 cycles
 SCF Done:  E(RB3LYP) =  -897.765981755     A.U. after   11 cycles
 SCF Done:  E(RB3LYP) =  -897.766033435     A.U. after   11 cycles
 SCF Done:  E(RB3LYP) =  -897.766065904     A.U. after   11 cycles
 SCF Done:  E(RB3LYP) =  -897.766098208     A.U. after   11 cycles
 SCF Done:  E(RB3LYP) =  -897.766137753     A.U. after   12 cycles
 SCF Done:  E(RB3LYP) =  -897.766157758     A.U. after   12 cycles
 SCF Done:  E(RB3LYP) =  -897.766164152     A.U. after   11 cycles
 SCF Done:  E(RB3LYP) =  -897.766226756     A.U. after    7 cycles
 SCF Done:  E(RB3LYP) =  -897.766226816     A.U. after    7 cycles
 SCF Done:  E(RB3LYP) =  -897.766226935     A.U. after    8 cycles
 SCF Done:  E(RB3LYP) =  -897.766227315     A.U. after    9 cycles
 SCF Done:  E(RB3LYP) =  -897.766227418     A.U. after    8 cycles
 SCF Done:  E(RB3LYP) =  -897.766227471     A.U. after    7 cycles
 Optimization completed.
    -- Stationary point found.
 Normal termination of Gaussian 16 at Tue Dec  8 19:13:42 2020.

 --------------------------------------------------------------------
 #N Geom=AllCheck Guess=TCheck SCRF=Check GenChk RB3LYP/6-31G(d) Freq
 --------------------------------------------------------------------

 Structure from the checkpoint file:  "JID_1012.chk"
 ------------------------------
 CID_64906664_JID_1012_neutraal
 ------------------------------
 Charge =  0 Multiplicity = 1

 SCF Done:  E(RB3LYP) =  -897.766227471     A.U. after    1 cycles

  Exact polarizability: 107.797  -0.907  86.462  -1.669  -0.918  82.613
 Approx polarizability: 138.911  -4.441 131.983  -1.806   6.209 138.322

                      1                      2                      3
                      A                      A                      A
 Frequencies --     22.0236                69.8911               135.5537
 Red. masses --      5.0720                 4.2967                 1.0748
 Frc consts  --      0.0014                 0.0124                 0.0116
 IR Inten    --      3.6635                 1.7637                99.2711

                      4                      5                      6
                      A                      A                      A
 Frequencies --    146.7620               162.3255               246.5859
 Red. masses --      3.1596                 4.5434                 3.8964
 Frc consts  --      0.0401                 0.0705                 0.1396
 IR Inten    --      2.4696                 0.4725                 1.3270

                      7                      8                      9
                      A                      A                      A
 Frequencies --    279.8066               301.6603               348.1081
 Red. masses --      4.4225                 2.3179                 2.7221
 Frc consts  --      0.2040                 0.1243                 0.1943
 IR Inten    --      2.5100                 0.9675                 2.9037

                     10                     11                     12
                      A                      A                      A
 Frequencies --    380.6915               389.8773               424.4064
 Red. masses --      3.3306                 4.2233                 4.1921
 Frc consts  --      0.2844                 0.3782                 0.4449
 IR Inten    --     16.4562                20.9865                16.7476

                     13                     14                     15
                      A                      A                      A
 Frequencies --    454.8485               486.3564               538.4380
 Red. masses --      2.9577                 3.1986                 3.4308
 Frc consts  --      0.3605                 0.4458                 0.5860
 IR Inten    --      1.9504                 1.5333                10.4732

                     16                     17                     18
                      A                      A                      A
 Frequencies --    560.9543               670.4325               717.6890
 Red. masses --      4.9708                 4.1041                 4.5100
 Frc consts  --      0.9216                 1.0869                 1.3687
 IR Inten    --     10.9200                11.3840                13.0901

                     19                     20                     21
                      A                      A                      A
 Frequencies --    767.0479               777.1925               855.1860
 Red. masses --      2.0450                 1.1306                 1.9853
 Frc consts  --      0.7089                 0.4023                 0.8554
 IR Inten    --     28.1080                 2.2856                30.3188

                     22                     23                     24
                      A                      A                      A
 Frequencies --    877.2481               908.2612               928.6705
 Red. masses --      1.9415                 1.9739                 1.4909
 Frc consts  --      0.8803                 0.9594                 0.7576
 IR Inten    --      6.0341                15.3273                 6.8383

                     25                     26                     27
                      A                      A                      A
 Frequencies --    955.3900               981.0214               998.0903
 Red. masses --      1.9175                 2.2179                 2.3241
 Frc consts  --      1.0312                 1.2576                 1.3641
 IR Inten    --     10.8771                10.5643                 6.0920

                     28                     29                     30
                      A                      A                      A
 Frequencies --   1006.1872              1031.1249              1059.3835
 Red. masses --      1.4551                 2.1329                 1.6067
 Frc consts  --      0.8680                 1.3361                 1.0624
 IR Inten    --      0.8150                11.4905                20.1136

                     31                     32                     33
                      A                      A                      A
 Frequencies --   1076.3655              1087.1261              1110.4105
 Red. masses --      1.4954                 2.3470                 1.6918
 Frc consts  --      1.0208                 1.6343                 1.2290
 IR Inten    --      0.0802                24.0234                62.5241

                     34                     35                     36
                      A                      A                      A
 Frequencies --   1113.9437              1166.8540              1194.0403
 Red. masses --      3.4851                 1.3888                 1.3191
 Frc consts  --      2.5479                 1.1141                 1.1080
 IR Inten    --     81.9548                71.5280                 8.2666

                     37                     38                     39
                      A                      A                      A
 Frequencies --   1195.8212              1233.6583              1247.8096
 Red. masses --      1.5220                 1.4802                 1.3838
 Frc consts  --      1.2823                 1.3273                 1.2695
 IR Inten    --     34.1094                14.5418                23.3762

                     40                     41                     42
                      A                      A                      A
 Frequencies --   1286.6455              1304.7420              1327.3561
 Red. masses --      2.0446                 2.0925                 2.5051
 Frc consts  --      1.9942                 2.0988                 2.6004
 IR Inten    --      5.7577                68.4594                86.1600

                     43                     44                     45
                      A                      A                      A
 Frequencies --   1348.6400              1375.8601              1404.5039
 Red. masses --      1.5757                 1.2565                 1.4807
 Frc consts  --      1.6885                 1.4014                 1.7210
 IR Inten    --     44.8925                 6.9002                17.4857

                     46                     47                     48
                      A                      A                      A
 Frequencies --   1446.9448              1487.3373              1489.2853
 Red. masses --      2.0890                 1.0976                 1.0921
 Frc consts  --      2.5769                 1.4306                 1.4272
 IR Inten    --     14.7971                 5.1806                 2.6032

                     49                     50                     51
                      A                      A                      A
 Frequencies --   1490.3472              1524.2320              1534.8960
 Red. masses --      1.0906                 1.1068                 1.4465
 Frc consts  --      1.4272                 1.5151                 2.0078
 IR Inten    --      9.8033                 4.9084                22.8779

                     52                     53                     54
                      A                      A                      A
 Frequencies --   3049.8241              3075.5187              3100.7253
 Red. masses --      1.0836                 1.0615                 1.0610
 Frc consts  --      5.9384                 5.9158                 6.0100
 IR Inten    --     11.6117                18.3612                 4.0746

                     55                     56                     57
                      A                      A                      A
 Frequencies --   3115.4954              3127.9614              3139.0936
 Red. masses --      1.0597                 1.1006                 1.0560
 Frc consts  --      6.0600                 6.3447                 6.1306
 IR Inten    --      1.2788                 9.5880                12.3014

                     58                     59                     60
                      A                      A                      A
 Frequencies --   3149.0550              3172.6088              3187.9925
 Red. masses --      1.0567                 1.1080                 1.1074
 Frc consts  --      6.1738                 6.5707                 6.6310
 IR Inten    --     10.6290                 2.0476                 0.2149

                     61                     62                     63
                      A                      A                      A
 Frequencies --   3215.1756              3232.0991              3757.3596
 Red. masses --      1.1177                 1.1157                 1.0662
 Frc consts  --      6.8073                 6.8669                 8.8687
 IR Inten    --      2.7039                16.1659                14.7019

 - Thermochemistry -
 -------------------
 Temperature   298.150 Kelvin.  Pressure   1.00000 Atm.
 Atom     1 has atomic number  6 and mass  12.00000

 Molecular mass:   176.05072 amu.
 Principal axes and moments of inertia in atomic units:
                           1         2         3
     Eigenvalues --   870.155483090.759343274.05286
           X            0.99992  -0.00009  -0.01250
           Y           -0.00102   0.99605  -0.08875
           Z            0.01246   0.08876   0.99598
 This molecule is an asymmetric top.
 Rotational symmetry number  1.
 Warning -- assumption of classical behavior for rotation
           may cause significant error
 Rotational temperatures (Kelvin)      0.09954     0.02802     0.02645
 Rotational constants (GHZ):           2.07404     0.58392     0.55123
 Zero-point vibrational energy     497951.2 (Joules/Mol)
                                  119.01320 (Kcal/Mol)
 Warning -- explicit consideration of  16 degrees of freedom as
           vibrations may cause significant error
 Vibrational temperatures:     31.69   100.56   195.03   211.16   233.55
          (Kelvin)            354.78   402.58   434.02   500.85   547.73
                              560.95   610.63   654.43   699.76   774.69
                              807.09   964.60  1032.59  1103.61  1118.21
                             1230.42  1262.16  1306.79  1336.15  1374.59
                             1411.47  1436.03  1447.68  1483.56  1524.22
                             1548.65  1564.13  1597.63  1602.72  1678.84
                             1717.96  1720.52  1774.96  1795.32  1851.20
                             1877.23  1909.77  1940.39  1979.56  2020.77
                             2081.83  2139.95  2142.75  2144.28  2193.03
                             2208.37  4388.02  4424.99  4461.25  4482.50
                             4500.44  4516.46  4530.79  4564.68  4586.81
                             4625.92  4650.27  5406.00

 Zero-point correction=                           0.189660 (Hartree/Particle)
 Thermal correction to Energy=                    0.200765
 Thermal correction to Enthalpy=                  0.201709
 Thermal correction to Gibbs Free Energy=         0.151866
 Sum of electronic and zero-point Energies=           -897.576568
 Sum of electronic and thermal Energies=              -897.565462
 Sum of electronic and thermal Enthalpies=            -897.564518
 Sum of electronic and thermal Free Energies=         -897.614361

                     E (Thermal)             CV                S
                      KCal/Mol        Cal/Mol-Kelvin    Cal/Mol-Kelvin
 Total                  125.982             42.427            104.904
 Electronic               0.000              0.000              0.000
 Translational            0.889              2.981             41.404
 Rotational               0.889              2.981             30.555
 Vibrational            124.205             36.466             32.945
 Vibration     1          0.593              1.985              6.443
 Vibration     2          0.598              1.968              4.156
 Vibration     3          0.613              1.918              2.866
 Vibration     4          0.617              1.906              2.714
 Vibration     5          0.622              1.889              2.523
 Vibration     6          0.661              1.768              1.755
 Vibration     7          0.680              1.711              1.535
 Vibration     8          0.694              1.671              1.408
 Vibration     9          0.726              1.579              1.175
 Vibration    10          0.750              1.511              1.036
 Vibration    11          0.758              1.492              1.001
 Vibration    12          0.786              1.417              0.877
 Vibration    13          0.813              1.350              0.781
 Vibration    14          0.842              1.280              0.693
 Vibration    15          0.893              1.165              0.569
 Vibration    16          0.917              1.116              0.522

 Optimization completed.
    -- Stationary point found.
 Normal termination of Gaussian 16 at Tue Dec  8 19:18:19 2020.

 ----------------------------------------------------------------------
 # B3LYP/6-311++G(d,p) empiricaldispersion=gd3bj scf=xqc pop=npa geom=c
 heck
 ----------------------------------------------------------------------

 --------------------------------------
 CID_64906664_JID_1012_Energie_neutraal
 --------------------------------------
 Structure from the checkpoint file:  "JID_1012.chk"
 Charge =  0 Multiplicity = 1

 SCF Done:  E(RB3LYP) =  -897.948386546     A.U. after   14 cycles
 Normal termination of Gaussian 16 at Tue Dec  8 19:19:59 2020.

 ----------------------------------------------------------------------
 # B3LYP/6-311++G(d,p) empiricaldispersion=gd3bj scf=xqc pop=npa geom=c
 heck
 ----------------------------------------------------------------------

 ------------------------------------
 CID_64906664_JID_1012_Energie_kation
 ------------------------------------
 Structure from the checkpoint file:  "JID_1012.chk"
 Charge =  1 Multiplicity = 2

 SCF Done:  E(UB3LYP) =  -897.604836815     A.U. after   22 cycles
 Normal termination of Gaussian 16 at Tue Dec  8 19:23:23 2020.
 Gaussian 16:  ES64L-G16RevA.03 25-Dec-2016

 ----------------------------------------------------------------------
 # B3LYP/6-311++G(d,p) empiricaldispersion=gd3bj scf=xqc pop=npa geom=c
 heck
 ----------------------------------------------------------------------

 -----------------------------------
 CID_64906664_JID_1012_Energie_anion
 -----------------------------------
 Structure from the checkpoint file:  "JID_1012.chk"
 Charge = -1 Multiplicity = 2

                         Standard orientation:
 ---------------------------------------------------------------------
 Center     Atomic      Atomic             Coordinates (Angstroms)
 Number     Number       Type             X           Y           Z
 ---------------------------------------------------------------------
      1          6           0       -0.091085    1.383998   -0.484826
      2          6           0        1.399288    1.291869   -0.804742
      3         16           0        1.955862   -0.165873    0.147391
      4          8           0        2.254742    0.279990    1.519880
      5          8           0        2.938238   -0.944091   -0.622268
      6          6           0        0.316976   -0.991574    0.155020
      7          6           0       -0.649524   -0.051857   -0.594871
      8          6           0       -2.072814   -0.248976   -0.113337
      9          6           0       -2.549307    0.320872    1.193601
     10          6           0       -3.088865    0.860451   -0.125434
     11          8           0       -2.465728   -1.553055   -0.483965
     12          1           0       -0.218177    1.774611    0.530882
     13          1           0       -0.600061    2.061909   -1.175253
     14          1           0        1.992950    2.147344   -0.478100
     15          1           0        1.585446    1.083952   -1.861985
     16          1           0        0.420035   -1.971835   -0.309453
     17          1           0        0.040414   -1.104002    1.205638
     18          1           0       -0.637211   -0.328455   -1.656917
     19          1           0       -3.210302   -0.294176    1.800712
     20          1           0       -1.884136    0.950173    1.778669
     21          1           0       -2.795031    1.860677   -0.429482
     22          1           0       -4.105714    0.595186   -0.403737
     23          1           0       -3.288032   -1.772860   -0.020871
 ---------------------------------------------------------------------

 SCF Done:  E(UB3LYP) =  -897.940974128     A.U. after   25 cycles

 The electronic state is 2-A.
 Alpha  occ. eigenvalues --  -88.94671 -19.03003 -19.02251 -19.01966 -10.14142
 Alpha  occ. eigenvalues --  -10.11746 -10.11203 -10.10582 -10.09739 -10.07546
 Alpha  occ. eigenvalues --  -10.07248  -8.01228  -5.97493  -5.97360  -5.97324
 Alpha  occ. eigenvalues --   -1.01119  -0.93844  -0.90930  -0.77383  -0.74281
 Alpha  occ. eigenvalues --   -0.66706  -0.62867  -0.54673  -0.51418  -0.49637
 Alpha  occ. eigenvalues --   -0.47210  -0.42467  -0.41930  -0.41168  -0.38585
 Alpha  occ. eigenvalues --   -0.37305  -0.36257  -0.34790  -0.33734  -0.30855
 Alpha  occ. eigenvalues --   -0.29958  -0.29265  -0.28700  -0.27619  -0.26588
 Alpha  occ. eigenvalues --   -0.25582  -0.23382  -0.22436  -0.21135  -0.20039
 Alpha  occ. eigenvalues --   -0.19039  -0.15465   0.04176
 Alpha virt. eigenvalues --    0.06363   0.08065   0.08230   0.09351   0.10017
 Alpha virt. eigenvalues --    0.10183   0.11139   0.11989   0.12151   0.12899
 Alpha virt. eigenvalues --    0.13465   0.14070   0.15042   0.15114   0.15605

  Beta  occ. eigenvalues --  -88.94671 -19.02955 -19.02250 -19.01962 -10.14140
  Beta  occ. eigenvalues --  -10.11724 -10.11195 -10.10570 -10.09702 -10.07507
  Beta  occ. eigenvalues --  -10.07206  -8.01228  -5.97493  -5.97360  -5.97324
  Beta  occ. eigenvalues --   -1.01115  -0.93753  -0.90925  -0.77349  -0.74250
  Beta  occ. eigenvalues --   -0.66668  -0.62830  -0.54593  -0.51305  -0.49600
  Beta  occ. eigenvalues --   -0.47125  -0.42426  -0.41860  -0.41108  -0.38560
  Beta  occ. eigenvalues --   -0.37283  -0.36233  -0.34769  -0.33681  -0.30823
  Beta  occ. eigenvalues --   -0.29918  -0.29211  -0.28661  -0.27566  -0.26547
  Beta  occ. eigenvalues --   -0.25539  -0.23366  -0.22428  -0.21126  -0.19988
  Beta  occ. eigenvalues --   -0.19017  -0.15424
  Beta virt. eigenvalues --    0.06950   0.07979   0.08581   0.08855   0.09957
  Beta virt. eigenvalues --    0.10524   0.10893   0.11451   0.12262   0.12423
  Beta virt. eigenvalues --    0.13285   0.13918   0.14143   0.15172   0.15278

 Mulliken charges and spin densities:
               1          2
     1  C   -0.796525   0.465784
     2  C    0.834433  -1.891197
     3  S    0.990699  -0.219123
     4  O   -0.259659   0.018442
     5  O   -0.178412   0.014120
     6  C   -1.140694   0.009141
     7  C    2.602000  -2.084478
     8  C   -2.235751   1.829139
     9  C    0.934189  -1.235504
    10  C    0.612932  -0.683501
    11  O   -0.141514  -0.045422
    12  H    0.134574   0.077532
    13  H   -0.574602   0.759412
    14  H   -0.092452   0.345308
    15  H    0.071528   0.150617
    16  H    0.182456   0.068169
    17  H    0.272077   0.001922
    18  H    0.110749   0.147759
    19  H   -0.532955   0.711783
    20  H   -0.152568   0.282497
    21  H   -0.550956   0.706458
    22  H   -0.705582   0.898882
    23  H   -0.383969   0.672261
 Sum of Mulliken charges =  -1.00000   1.00000

 Dipole moment (field-independent basis, Debye):
    X=              5.8158    Y=             -0.5227    Z=             -0.1471  Tot=              5.8411
 Quadrupole moment (field-independent basis, Debye-Ang):
   XX=           -158.0811   YY=           -112.0913   ZZ=           -105.4592
   XY=             -0.9603   XZ=             -0.0940   YZ=              2.6261

 Summary of Natural Population Analysis:

                                       Natural Population
                Natural  -----------------------------------------------
    Atom  No    Charge         Core      Valence    Rydberg      Total
 -----------------------------------------------------------------------
      C    1   -0.20141      0.99961     2.19142    0.01037     3.20141
      C    2   -0.28334      0.99960     2.27234    0.01140     3.28334
      S    3    1.00905      4.99930     1.89736    0.09430     6.99095
      O    4   -0.47069      0.99991     3.46493    0.00585     4.47069
      O    5   -0.46831      0.99991     3.46271    0.00569     4.46831
      C    6   -0.27931      0.99957     2.27057    0.00917     3.27931
      C    7   -0.11957      0.99954     2.10663    0.01340     3.11957
      C    8    0.12790      0.99944     1.85543    0.01722     2.87210
      C    9   -0.21147      0.99959     2.20199    0.00988     3.21147
      C   10   -0.20519      0.99959     2.19544    0.01016     3.20519
      O   11   -0.36837      0.99988     3.36214    0.00635     4.36837
      H   12    0.10541      0.00000     0.39271    0.00188     0.39459
      H   13    0.11729      0.00000     0.37980    0.00291     0.38271
      H   14    0.11925      0.00000     0.37946    0.00129     0.38075
      H   15    0.11352      0.00000     0.38519    0.00129     0.38648
      H   16    0.12137      0.00000     0.37758    0.00105     0.37863
      H   17    0.11919      0.00000     0.37950    0.00131     0.38081
      H   18    0.10754      0.00000     0.39058    0.00188     0.39246
      H   19    0.10835      0.00000     0.38924    0.00241     0.39165
      H   20    0.10415      0.00000     0.39467    0.00118     0.39585
      H   21    0.10641      0.00000     0.39153    0.00207     0.39359
      H   22    0.10982      0.00000     0.38721    0.00297     0.39018
      H   23    0.23842      0.00000     0.25177    0.00981     0.26158
 =======================================================================
   * Total *    0.00000     14.99596    31.78020    0.22385    47.00000

 Normal termination of Gaussian 16 at Tue Dec  8 19:27:12 2020.
