 Gaussian 16, Revision A.03,

 -----------------------------------------------------------
 # opt freq B3LYP/6-31G(d) empiricaldispersion=gd3bj scf=xqc
 -----------------------------------------------------------

 ------------------------------
 CID_62834646_JID_5642_neutraal
 ------------------------------
 Symbolic Z-matrix:
 Charge =  0 Multiplicity = 1

 SCF Done:  E(RB3LYP) =  -621.755334143     A.U. after   12 cycles
 SCF Done:  E(RB3LYP) =  -621.762132993     A.U. after   11 cycles
 SCF Done:  E(RB3LYP) =  -621.762603152     A.U. after   11 cycles
 SCF Done:  E(RB3LYP) =  -621.764667118     A.U. after   10 cycles
 SCF Done:  E(RB3LYP) =  -621.765474677     A.U. after   10 cycles
 SCF Done:  E(RB3LYP) =  -621.766169374     A.U. after   12 cycles
 SCF Done:  E(RB3LYP) =  -621.767189094     A.U. after   11 cycles
 SCF Done:  E(RB3LYP) =  -621.765877144     A.U. after   11 cycles
 SCF Done:  E(RB3LYP) =  -621.767962603     A.U. after   10 cycles
 SCF Done:  E(RB3LYP) =  -621.768056942     A.U. after   10 cycles
 SCF Done:  E(RB3LYP) =  -621.773118916     A.U. after   10 cycles
 SCF Done:  E(RB3LYP) =  -621.773327481     A.U. after   10 cycles
 SCF Done:  E(RB3LYP) =  -621.773340665     A.U. after    8 cycles
 SCF Done:  E(RB3LYP) =  -621.773341696     A.U. after    7 cycles
 SCF Done:  E(RB3LYP) =  -621.773341901     A.U. after    7 cycles
 SCF Done:  E(RB3LYP) =  -621.773341941     A.U. after    6 cycles
 Optimization completed.
    -- Stationary point found.
 Normal termination of Gaussian 16 at Thu Dec 10 17:11:50 2020.

 --------------------------------------------------------------------
 #N Geom=AllCheck Guess=TCheck SCRF=Check GenChk RB3LYP/6-31G(d) Freq
 --------------------------------------------------------------------

 Structure from the checkpoint file:  "JID_5642.chk"
 ------------------------------
 CID_62834646_JID_5642_neutraal
 ------------------------------
 Charge =  0 Multiplicity = 1

 SCF Done:  E(RB3LYP) =  -621.773341941     A.U. after    1 cycles

  Exact polarizability: 163.413  -2.201 156.672   1.314  -0.126 130.855
 Approx polarizability: 204.832  -0.168 206.625   0.284  -1.445 198.741

                      1                      2                      3
                      A                      A                      A
 Frequencies --     37.6453                58.4908                68.2050
 Red. masses --      3.4099                 2.6779                 3.2935
 Frc consts  --      0.0028                 0.0054                 0.0090
 IR Inten    --      0.0327                 0.0366                 0.4393

                      4                      5                      6
                      A                      A                      A
 Frequencies --     89.3901                95.6834               102.0641
 Red. masses --      2.3974                 3.0667                 1.9488
 Frc consts  --      0.0113                 0.0165                 0.0120
 IR Inten    --      0.2775                 0.9125                 0.0482

                      7                      8                      9
                      A                      A                      A
 Frequencies --    116.2768               148.5961               172.0892
 Red. masses --      2.6353                 2.3889                 1.7400
 Frc consts  --      0.0210                 0.0311                 0.0304
 IR Inten    --      0.9134                 0.2006                 2.2891

                     10                     11                     12
                      A                      A                      A
 Frequencies --    179.2657               204.8719               224.5715
 Red. masses --      2.9442                 2.4504                 3.2442
 Frc consts  --      0.0557                 0.0606                 0.0964
 IR Inten    --      0.0929                 1.3232                 0.2032

                     13                     14                     15
                      A                      A                      A
 Frequencies --    238.2467               250.2574               264.5353
 Red. masses --      1.2073                 1.0644                 2.1048
 Frc consts  --      0.0404                 0.0393                 0.0868
 IR Inten    --      0.0798                 0.1143                 0.0349

                     16                     17                     18
                      A                      A                      A
 Frequencies --    277.8277               286.2437               316.3548
 Red. masses --      1.7092                 1.7639                 2.1344
 Frc consts  --      0.0777                 0.0852                 0.1259
 IR Inten    --      0.7823                 1.9236                 1.0376

                     19                     20                     21
                      A                      A                      A
 Frequencies --    326.5834               353.6455               362.5283
 Red. masses --      1.4955                 1.8512                 2.1389
 Frc consts  --      0.0940                 0.1364                 0.1656
 IR Inten    --      0.7638                 0.5745                 1.4419

                     22                     23                     24
                      A                      A                      A
 Frequencies --    386.9744               416.2797               436.4920
 Red. masses --      3.1054                 1.8107                 2.7188
 Frc consts  --      0.2740                 0.1849                 0.3052
 IR Inten    --      1.0691                 0.8616                 1.2511

                     25                     26                     27
                      A                      A                      A
 Frequencies --    461.4058               503.5230               557.3552
 Red. masses --      2.0409                 2.3918                 2.9340
 Frc consts  --      0.2560                 0.3573                 0.5370
 IR Inten    --      2.5264                 5.1104                 7.0892

                     28                     29                     30
                      A                      A                      A
 Frequencies --    590.3284               739.6805               753.2089
 Red. masses --      3.4638                 1.9140                 1.1013
 Frc consts  --      0.7112                 0.6170                 0.3681
 IR Inten    --      8.1958                46.8838                 2.8347

                     31                     32                     33
                      A                      A                      A
 Frequencies --    785.2126               800.8611               816.4613
 Red. masses --      1.1397                 1.9847                 1.3946
 Frc consts  --      0.4140                 0.7500                 0.5477
 IR Inten    --      0.8029                14.7355                 0.4770

                     34                     35                     36
                      A                      A                      A
 Frequencies --    833.3396               854.2716               868.5122
 Red. masses --      1.2711                 1.9462                 2.5037
 Frc consts  --      0.5201                 0.8368                 1.1127
 IR Inten    --      3.2971                11.3887                 7.5475

                     37                     38                     39
                      A                      A                      A
 Frequencies --    890.3205               897.3727               907.3463
 Red. masses --      1.5381                 1.4963                 1.6318
 Frc consts  --      0.7183                 0.7099                 0.7915
 IR Inten    --      2.2143                 7.4266                 6.2031

                     40                     41                     42
                      A                      A                      A
 Frequencies --    925.0798               930.6038               945.2454
 Red. masses --      2.1396                 1.7345                 1.4719
 Frc consts  --      1.0788                 0.8850                 0.7748
 IR Inten    --      8.2393                 3.8421                 2.0816

                     43                     44                     45
                      A                      A                      A
 Frequencies --    970.1212               983.4995              1002.1368
 Red. masses --      1.9946                 2.3304                 1.8768
 Frc consts  --      1.1060                 1.3281                 1.1105
 IR Inten    --      5.3750                 0.9157                10.3191

                     46                     47                     48
                      A                      A                      A
 Frequencies --   1032.8686              1037.7305              1044.1503
 Red. masses --      2.0933                 1.5414                 2.3428
 Frc consts  --      1.3158                 0.9780                 1.5049
 IR Inten    --     16.6959                 3.0325                 3.0443

                     49                     50                     51
                      A                      A                      A
 Frequencies --   1063.9689              1079.8314              1095.0668
 Red. masses --      1.4760                 1.3797                 2.3349
 Frc consts  --      0.9845                 0.9479                 1.6497
 IR Inten    --     10.7133                 4.4006                 3.8667

                     52                     53                     54
                      A                      A                      A
 Frequencies --   1103.4249              1121.9414              1133.4846
 Red. masses --      2.2199                 2.2515                 2.2134
 Frc consts  --      1.5925                 1.6698                 1.6755
 IR Inten    --     56.2643                30.2935                39.1507

                     55                     56                     57
                      A                      A                      A
 Frequencies --   1149.5819              1152.1770              1166.1678
 Red. masses --      1.8928                 1.2737                 1.5837
 Frc consts  --      1.4738                 0.9962                 1.2689
 IR Inten    --     10.0594                 2.8677                12.2015

                     58                     59                     60
                      A                      A                      A
 Frequencies --   1195.0730              1211.2309              1237.0141
 Red. masses --      1.7814                 1.4225                 2.6733
 Frc consts  --      1.4990                 1.2295                 2.4102
 IR Inten    --     16.0869                 0.9602                18.3871

                     61                     62                     63
                      A                      A                      A
 Frequencies --   1241.1095              1242.6835              1259.5401
 Red. masses --      1.8495                 2.2036                 2.7669
 Frc consts  --      1.6785                 2.0050                 2.5862
 IR Inten    --      3.0157                17.7503                 2.6798

                     64                     65                     66
                      A                      A                      A
 Frequencies --   1282.3912              1313.7377              1324.9903
 Red. masses --      2.1848                 1.2921                 1.3152
 Frc consts  --      2.1169                 1.3139                 1.3604
 IR Inten    --     21.2014                 1.7163                 2.4440

                     67                     68                     69
                      A                      A                      A
 Frequencies --   1331.5210              1346.7361              1360.6098
 Red. masses --      1.2365                 1.3125                 1.2324
 Frc consts  --      1.2916                 1.4025                 1.3442
 IR Inten    --      5.8347                 5.3258                12.1871

                     70                     71                     72
                      A                      A                      A
 Frequencies --   1392.0151              1395.7687              1407.3705
 Red. masses --      1.3390                 1.2628                 1.2775
 Frc consts  --      1.5287                 1.4495                 1.4909
 IR Inten    --     13.5649                 9.4678                 4.7310

                     73                     74                     75
                      A                      A                      A
 Frequencies --   1414.5245              1423.2272              1428.0249
 Red. masses --      1.2690                 1.2965                 1.3455
 Frc consts  --      1.4960                 1.5473                 1.6166
 IR Inten    --     11.9660                 6.8624                 5.8503

                     76                     77                     78
                      A                      A                      A
 Frequencies --   1438.8643              1440.9714              1446.2264
 Red. masses --      1.3082                 1.2295                 1.2714
 Frc consts  --      1.5957                 1.5042                 1.5667
 IR Inten    --      4.0429                 1.3532                25.8596

                     79                     80                     81
                      A                      A                      A
 Frequencies --   1461.1929              1496.1017              1505.4503
 Red. masses --      1.4967                 1.0873                 1.0849
 Frc consts  --      1.8827                 1.4339                 1.4487
 IR Inten    --      5.9439                 0.4093                 3.1789

                     82                     83                     84
                      A                      A                      A
 Frequencies --   1510.2005              1511.6703              1520.0968
 Red. masses --      1.0874                 1.0754                 1.0785
 Frc consts  --      1.4612                 1.4478                 1.4683
 IR Inten    --      5.2186                 1.1583                 1.5771

                     85                     86                     87
                      A                      A                      A
 Frequencies --   1521.0821              1523.1123              1524.5915
 Red. masses --      1.0508                 1.0579                 1.0627
 Frc consts  --      1.4324                 1.4459                 1.4553
 IR Inten    --      2.3975                 0.1650                 8.7572

                     88                     89                     90
                      A                      A                      A
 Frequencies --   1530.2432              1531.1603              1531.6410
 Red. masses --      1.0753                 1.0549                 1.0840
 Frc consts  --      1.4835                 1.4572                 1.4983
 IR Inten    --      3.0368                 3.4956                 7.9596

                     91                     92                     93
                      A                      A                      A
 Frequencies --   1539.8826              1542.8704              1544.1814
 Red. masses --      1.1476                 1.1908                 1.1118
 Frc consts  --      1.6033                 1.6701                 1.5619
 IR Inten    --      2.6143                 1.4112                 1.6686

                     94                     95                     96
                      A                      A                      A
 Frequencies --   1552.2082              1563.5379              2939.2931
 Red. masses --      1.1134                 1.0832                 1.0723
 Frc consts  --      1.5805                 1.5602                 5.4584
 IR Inten    --     14.0719                 5.4636                72.7746

                     97                     98                     99
                      A                      A                      A
 Frequencies --   2958.3557              2988.9159              3031.0059
 Red. masses --      1.0741                 1.0686                 1.0665
 Frc consts  --      5.5385                 5.6248                 5.7728
 IR Inten    --     71.6052                51.0119                10.1438

                    100                    101                    102
                      A                      A                      A
 Frequencies --   3039.4065              3041.2943              3041.6003
 Red. masses --      1.0401                 1.0390                 1.0370
 Frc consts  --      5.6614                 5.6623                 5.6524
 IR Inten    --     36.2321                29.4412                14.1305

                    103                    104                    105
                      A                      A                      A
 Frequencies --   3046.8147              3047.3073              3059.2455
 Red. masses --      1.0581                 1.0388                 1.0879
 Frc consts  --      5.7874                 5.6834                 5.9986
 IR Inten    --     54.3347                32.5131                24.1240

                    106                    107                    108
                      A                      A                      A
 Frequencies --   3071.6256              3089.1570              3094.2404
 Red. masses --      1.0981                 1.0926                 1.0995
 Frc consts  --      6.1042                 6.1434                 6.2025
 IR Inten    --      6.3570                14.2620                11.9500

                    109                    110                    111
                      A                      A                      A
 Frequencies --   3098.7103              3101.9745              3109.1829
 Red. masses --      1.0957                 1.1017                 1.1015
 Frc consts  --      6.1986                 6.2457                 6.2736
 IR Inten    --     32.6592                21.0273                82.3081

                    112                    113                    114
                      A                      A                      A
 Frequencies --   3110.1813              3114.3121              3126.3288
 Red. masses --      1.1020                 1.1015                 1.1024
 Frc consts  --      6.2807                 6.2944                 6.3483
 IR Inten    --     58.5098                40.1012                36.1687

                    115                    116                    117
                      A                      A                      A
 Frequencies --   3129.1680              3137.8535              3141.0155
 Red. masses --      1.1016                 1.0529                 1.0982
 Frc consts  --      6.3553                 6.1080                 6.3836
 IR Inten    --     40.5441                24.3454                19.5896

                    118                    119                    120
                      A                      A                      A
 Frequencies --   3145.5959              3149.4472              3166.7263
 Red. masses --      1.0583                 1.0880                 1.0897
 Frc consts  --      6.1695                 6.3584                 6.4384
 IR Inten    --     12.6178                11.0525                 2.8778

                    121                    122                    123
                      A                      A                      A
 Frequencies --   3213.4537              3230.6345              3463.8112
 Red. masses --      1.1177                 1.1146                 1.0737
 Frc consts  --      6.8001                 6.8543                 7.5901
 IR Inten    --      3.5545                24.0352                 3.8003

 - Thermochemistry -
 -------------------
 Temperature   298.150 Kelvin.  Pressure   1.00000 Atm.
 Atom     1 has atomic number  6 and mass  12.00000

 Molecular mass:   212.22525 amu.
 Principal axes and moments of inertia in atomic units:
                           1         2         3
     Eigenvalues --  3125.480453976.089955975.90036
           X            1.00000  -0.00173   0.00100
           Y            0.00173   1.00000  -0.00255
           Z           -0.00100   0.00256   1.00000
 This molecule is an asymmetric top.
 Rotational symmetry number  1.
 Warning -- assumption of classical behavior for rotation
           may cause significant error
 Rotational temperatures (Kelvin)      0.02771     0.02178     0.01449
 Rotational constants (GHZ):           0.57743     0.45390     0.30200
 Zero-point vibrational energy    1055937.2 (Joules/Mol)
                                  252.37504 (Kcal/Mol)
 Warning -- explicit consideration of  28 degrees of freedom as
           vibrations may cause significant error
 Vibrational temperatures:     54.16    84.16    98.13   128.61   137.67
          (Kelvin)            146.85   167.30   213.80   247.60   257.92
                              294.76   323.11   342.78   360.06   380.61
                              399.73   411.84   455.16   469.88   508.82
                              521.60   556.77   598.93   628.01   663.86
                              724.46   801.91   849.35  1064.24  1083.70
                             1129.75  1152.26  1174.71  1198.99  1229.11
                             1249.60  1280.97  1291.12  1305.47  1330.98
                             1338.93  1360.00  1395.79  1415.04  1441.85
                             1486.07  1493.06  1502.30  1530.81  1553.64
                             1575.56  1587.58  1614.22  1630.83  1653.99
                             1657.73  1677.86  1719.44  1742.69  1779.79
                             1785.68  1787.94  1812.20  1845.07  1890.18
                             1906.37  1915.76  1937.65  1957.61  2002.80
                             2008.20  2024.89  2035.19  2047.71  2054.61
                             2070.20  2073.24  2080.80  2102.33  2152.56
                             2166.01  2172.84  2174.96  2187.08  2188.50
                             2191.42  2193.55  2201.68  2203.00  2203.69
                             2215.55  2219.85  2221.73  2233.28  2249.58
                             4228.99  4256.41  4300.38  4360.94  4373.03
                             4375.74  4376.18  4383.69  4384.40  4401.57
                             4419.38  4444.61  4451.92  4458.35  4463.05
                             4473.42  4474.86  4480.80  4498.09  4502.17
                             4514.67  4519.22  4525.81  4531.35  4556.21
                             4623.44  4648.16  4983.65

 Zero-point correction=                           0.402185 (Hartree/Particle)
 Thermal correction to Energy=                    0.420536
 Thermal correction to Enthalpy=                  0.421480
 Thermal correction to Gibbs Free Energy=         0.356672
 Sum of electronic and zero-point Energies=           -621.371157
 Sum of electronic and thermal Energies=              -621.352806
 Sum of electronic and thermal Enthalpies=            -621.351862
 Sum of electronic and thermal Free Energies=         -621.416670

                     E (Thermal)             CV                S
                      KCal/Mol        Cal/Mol-Kelvin    Cal/Mol-Kelvin
 Total                  263.890             69.719            136.401
 Electronic               0.000              0.000              0.000
 Translational            0.889              2.981             41.961
 Rotational               0.889              2.981             32.674
 Vibrational            262.113             63.757             61.766
 Vibration     1          0.594              1.982              5.379
 Vibration     2          0.596              1.974              4.507
 Vibration     3          0.598              1.969              4.205
 Vibration     4          0.602              1.957              3.673
 Vibration     5          0.603              1.952              3.540
 Vibration     6          0.604              1.948              3.415
 Vibration     7          0.608              1.936              3.161
 Vibration     8          0.618              1.904              2.690
 Vibration     9          0.626              1.877              2.413
 Vibration    10          0.629              1.868              2.336
 Vibration    11          0.640              1.833              2.089
 Vibration    12          0.649              1.804              1.922
 Vibration    13          0.656              1.782              1.816
 Vibration    14          0.663              1.762              1.729
 Vibration    15          0.671              1.738              1.632
 Vibration    16          0.679              1.714              1.547
 Vibration    17          0.684              1.699              1.496
 Vibration    18          0.703              1.642              1.329
 Vibration    19          0.710              1.622              1.277
 Vibration    20          0.730              1.568              1.150
 Vibration    21          0.736              1.549              1.111
 Vibration    22          0.755              1.498              1.012
 Vibration    23          0.779              1.435              0.905
 Vibration    24          0.797              1.391              0.838
 Vibration    25          0.819              1.336              0.762
 Vibration    26          0.859              1.242              0.649
 Vibration    27          0.913              1.124              0.529
 Vibration    28          0.948              1.052              0.467

 Optimization completed.
    -- Stationary point found.
 Normal termination of Gaussian 16 at Thu Dec 10 17:30:39 2020.

 ----------------------------------------------------------------------
 # B3LYP/6-311++G(d,p) empiricaldispersion=gd3bj scf=xqc pop=npa geom=c
 heck
 ----------------------------------------------------------------------

 --------------------------------------
 CID_62834646_JID_5642_Energie_neutraal
 --------------------------------------
 Structure from the checkpoint file:  "JID_5642.chk"
 Charge =  0 Multiplicity = 1

 SCF Done:  E(RB3LYP) =  -621.949328659     A.U. after   13 cycles
 Normal termination of Gaussian 16 at Thu Dec 10 17:39:35 2020.

 ----------------------------------------------------------------------
 # B3LYP/6-311++G(d,p) empiricaldispersion=gd3bj scf=xqc pop=npa geom=c
 heck
 ----------------------------------------------------------------------

 ------------------------------------
 CID_62834646_JID_5642_Energie_kation
 ------------------------------------
 Structure from the checkpoint file:  "JID_5642.chk"
 Charge =  1 Multiplicity = 2

 SCF Done:  E(UB3LYP) =  -621.684835526     A.U. after   18 cycles
 Normal termination of Gaussian 16 at Thu Dec 10 17:56:41 2020.
 Gaussian 16:  ES64L-G16RevA.03 25-Dec-2016

 ----------------------------------------------------------------------
 # B3LYP/6-311++G(d,p) empiricaldispersion=gd3bj scf=xqc pop=npa geom=c
 heck
 ----------------------------------------------------------------------

 -----------------------------------
 CID_62834646_JID_5642_Energie_anion
 -----------------------------------
 Structure from the checkpoint file:  "JID_5642.chk"
 Charge = -1 Multiplicity = 2

                         Standard orientation:
 ---------------------------------------------------------------------
 Center     Atomic      Atomic             Coordinates (Angstroms)
 Number     Number       Type             X           Y           Z
 ---------------------------------------------------------------------
      1          6           0        4.606518    0.116397   -0.708219
      2          6           0        3.338701    0.350505    0.116655
      3          6           0        2.066845    0.132600   -0.722885
      4          7           0        0.783539    0.280891   -0.033476
      5          6           0        0.597511    1.614642    0.545339
      6          6           0       -0.856084    2.028947    0.632206
      7          6           0       -1.180329    3.484996    0.846050
      8          6           0       -1.467584    2.832473   -0.486370
      9          6           0        0.479017   -0.804015    0.904969
     10          6           0       -0.506061   -1.891396    0.408157
     11          6           0        0.037652   -2.610079   -0.839662
     12          6           0       -0.649400   -2.908767    1.551211
     13          7           0       -1.848017   -1.299374    0.211511
     14          6           0       -2.141220   -0.665240   -1.077481
     15          6           0       -3.549137   -0.078690   -1.048186
     16          1           0        4.643789   -0.910466   -1.092408
     17          1           0        5.510938    0.282866   -0.113057
     18          1           0        4.646582    0.792107   -1.571556
     19          1           0        3.333503   -0.323426    0.982990
     20          1           0        3.344102    1.370816    0.519989
     21          1           0        2.076336    0.835945   -1.567100
     22          1           0        2.101214   -0.870341   -1.161726
     23          1           0        1.060706    1.691929    1.547034
     24          1           0        1.124871    2.334928   -0.092563
     25          1           0       -1.505245    1.300512    1.113363
     26          1           0       -2.018794    3.742364    1.487245
     27          1           0       -0.351801    4.187939    0.900253
     28          1           0       -0.829954    3.090470   -1.328758
     29          1           0       -2.502382    2.645827   -0.756226
     30          1           0        1.405047   -1.310491    1.221818
     31          1           0        0.036419   -0.374488    1.809463
     32          1           0        1.004974   -3.080767   -0.627036
     33          1           0       -0.654572   -3.397345   -1.162100
     34          1           0        0.173550   -1.917480   -1.673931
     35          1           0       -1.091218   -2.432477    2.433533
     36          1           0       -1.298151   -3.740566    1.249916
     37          1           0        0.321504   -3.329549    1.832562
     38          1           0       -2.539084   -2.034384    0.359077
     39          1           0       -1.401831    0.120320   -1.239152
     40          1           0       -2.062846   -1.363180   -1.930159
     41          1           0       -3.650806    0.638172   -0.227429
     42          1           0       -3.781327    0.429692   -1.990702
     43          1           0       -4.302757   -0.863784   -0.900295
 ---------------------------------------------------------------------

 SCF Done:  E(UB3LYP) =  -621.934304925     A.U. after   29 cycles

 The electronic state is 2-A.
 Alpha  occ. eigenvalues --  -14.20214 -14.19246 -10.10610 -10.09887 -10.09127
 Alpha  occ. eigenvalues --  -10.08798 -10.08312 -10.08155 -10.08035 -10.07855
 Alpha  occ. eigenvalues --  -10.06612 -10.06298 -10.06283 -10.06113 -10.05612
 Alpha  occ. eigenvalues --   -0.82920  -0.80213  -0.76569  -0.69182  -0.67784
 Alpha  occ. eigenvalues --   -0.62560  -0.60991  -0.59644  -0.58974  -0.53091
 Alpha  occ. eigenvalues --   -0.51193  -0.50882  -0.49187  -0.47393  -0.44898
 Alpha  occ. eigenvalues --   -0.40908  -0.39356  -0.38187  -0.37962  -0.36604
 Alpha  occ. eigenvalues --   -0.35331  -0.34972  -0.34283  -0.32882  -0.31991
 Alpha  occ. eigenvalues --   -0.31660  -0.30628  -0.29425  -0.28776  -0.28460
 Alpha  occ. eigenvalues --   -0.27602  -0.27084  -0.26784  -0.26480  -0.25736
 Alpha  occ. eigenvalues --   -0.25274  -0.24802  -0.24186  -0.23717  -0.23414
 Alpha  occ. eigenvalues --   -0.22386  -0.20400  -0.19353  -0.13123  -0.10856
 Alpha  occ. eigenvalues --    0.04267
 Alpha virt. eigenvalues --    0.06051   0.06469   0.07193   0.07768   0.08115
 Alpha virt. eigenvalues --    0.08636   0.08787   0.09350   0.09725   0.10446
 Alpha virt. eigenvalues --    0.10620   0.11072   0.11473   0.12011   0.12137

  Beta  occ. eigenvalues --  -14.20209 -14.19232 -10.10606 -10.09877 -10.09115
  Beta  occ. eigenvalues --  -10.08786 -10.08304 -10.08145 -10.08032 -10.07847
  Beta  occ. eigenvalues --  -10.06596 -10.06280 -10.06247 -10.06085 -10.05589
  Beta  occ. eigenvalues --   -0.82905  -0.80193  -0.76560  -0.69160  -0.67755
  Beta  occ. eigenvalues --   -0.62530  -0.60964  -0.59606  -0.58926  -0.53036
  Beta  occ. eigenvalues --   -0.51163  -0.50835  -0.49137  -0.47360  -0.44862
  Beta  occ. eigenvalues --   -0.40889  -0.39334  -0.38166  -0.37937  -0.36581
  Beta  occ. eigenvalues --   -0.35306  -0.34947  -0.34260  -0.32852  -0.31965
  Beta  occ. eigenvalues --   -0.31622  -0.30601  -0.29398  -0.28746  -0.28436
  Beta  occ. eigenvalues --   -0.27585  -0.27047  -0.26755  -0.26447  -0.25700
  Beta  occ. eigenvalues --   -0.25252  -0.24770  -0.24160  -0.23691  -0.23394
  Beta  occ. eigenvalues --   -0.22361  -0.20387  -0.19343  -0.13103  -0.10838
  Beta virt. eigenvalues --    0.06146   0.06877   0.06974   0.07449   0.08176
  Beta virt. eigenvalues --    0.08644   0.08969   0.09114   0.09526   0.10187
  Beta virt. eigenvalues --    0.10692   0.10918   0.11320   0.11716   0.12215

 Mulliken charges and spin densities:
               1          2
     1  C    1.122316  -1.794217
     2  C   -0.879458   1.012986
     3  C    0.284919  -0.587584
     4  N    0.436787   0.061123
     5  C    0.031717  -0.914085
     6  C   -0.502733   1.009543
     7  C   -0.168144  -0.245123
     8  C   -0.068325  -0.390915
     9  C    0.046789  -0.983160
    10  C   -1.767837   1.805985
    11  C    0.988113  -1.546300
    12  C    0.322463  -0.772131
    13  N    0.141081  -0.034949
    14  C   -0.643896   0.417849
    15  C    0.454596  -1.026897
    16  H   -0.267928   0.405816
    17  H   -0.406734   0.550818
    18  H   -0.141592   0.274393
    19  H   -0.219730   0.351668
    20  H   -0.036246   0.162573
    21  H   -0.138136   0.302586
    22  H    0.532035  -0.412653
    23  H   -0.092187   0.246668
    24  H    0.236162  -0.070131
    25  H    0.009864   0.175622
    26  H    0.003962   0.135958
    27  H   -0.038184   0.177956
    28  H   -0.083412   0.227492
    29  H    0.238120  -0.104584
    30  H    0.143657  -0.015784
    31  H    0.359754  -0.193727
    32  H   -0.103815   0.268331
    33  H   -0.183405   0.351000
    34  H   -0.103415   0.241279
    35  H   -0.066666   0.222740
    36  H   -0.392802   0.543942
    37  H   -0.222755   0.368605
    38  H    0.240971  -0.011830
    39  H    0.239228  -0.050342
    40  H   -0.014356   0.142556
    41  H   -0.002517   0.148142
    42  H   -0.015226   0.152066
    43  H   -0.273033   0.396710
 Sum of Mulliken charges =  -1.00000   1.00000

 Dipole moment (field-independent basis, Debye):
    X=             -2.8984    Y=              3.6054    Z=              0.2494  Tot=              4.6327
 Quadrupole moment (field-independent basis, Debye-Ang):
   XX=           -183.2587   YY=           -160.4518   ZZ=           -133.5207
   XY=             -4.4913   XZ=              0.6416   YZ=              1.9441

 Summary of Natural Population Analysis:

                                       Natural Population
                Natural  -----------------------------------------------
    Atom  No    Charge         Core      Valence    Rydberg      Total
 -----------------------------------------------------------------------
      C    1   -0.28294      0.99967     2.27899    0.00428     3.28294
      C    2   -0.20230      0.99963     2.19534    0.00733     3.20230
      C    3   -0.07816      0.99960     2.06737    0.01120     3.07816
      N    4   -0.29026      0.99971     2.77776    0.01279     3.79026
      C    5   -0.07977      0.99958     2.06803    0.01216     3.07977
      C    6   -0.12609      0.99958     2.11562    0.01089     3.12609
      C    7   -0.19881      0.99962     2.19301    0.00618     3.19881
      C    8   -0.19696      0.99962     2.19064    0.00670     3.19696
      C    9   -0.08325      0.99953     2.07114    0.01258     3.08325
      C   10    0.05349      0.99957     1.93274    0.01420     2.94651
      C   11   -0.29786      0.99962     2.29110    0.00714     3.29786
      C   12   -0.28727      0.99962     2.28043    0.00722     3.28727
      N   13   -0.34783      0.99971     2.83526    0.01286     3.84783
      C   14   -0.09595      0.99962     2.08587    0.01046     3.09595
      C   15   -0.28621      0.99967     2.28081    0.00574     3.28621
      H   16    0.09671      0.00000     0.40188    0.00140     0.40329
      H   17    0.09974      0.00000     0.39898    0.00128     0.40026
      H   18    0.09489      0.00000     0.40380    0.00130     0.40511
      H   19    0.09518      0.00000     0.40340    0.00142     0.40482
      H   20    0.09363      0.00000     0.40506    0.00131     0.40637
      H   21    0.09119      0.00000     0.40767    0.00114     0.40881
      H   22    0.09592      0.00000     0.40254    0.00155     0.40408
      H   23    0.08403      0.00000     0.41469    0.00128     0.41597
      H   24    0.09528      0.00000     0.40315    0.00156     0.40472
      H   25    0.11294      0.00000     0.38467    0.00239     0.38706
      H   26    0.10020      0.00000     0.39894    0.00087     0.39980
      H   27    0.09935      0.00000     0.39974    0.00092     0.40065
      H   28    0.09954      0.00000     0.39940    0.00106     0.40046
      H   29    0.10248      0.00000     0.39657    0.00095     0.39752
      H   30    0.09030      0.00000     0.40807    0.00163     0.40970
      H   31    0.09777      0.00000     0.40055    0.00168     0.40223
      H   32    0.10216      0.00000     0.39671    0.00113     0.39784
      H   33    0.10078      0.00000     0.39813    0.00109     0.39922
      H   34    0.10281      0.00000     0.39574    0.00145     0.39719
      H   35    0.10195      0.00000     0.39700    0.00105     0.39805
      H   36    0.10047      0.00000     0.39824    0.00129     0.39953
      H   37    0.10268      0.00000     0.39623    0.00109     0.39732
      H   38    0.17064      0.00000     0.32620    0.00316     0.32936
      H   39    0.10410      0.00000     0.39285    0.00304     0.39590
      H   40    0.07693      0.00000     0.42160    0.00148     0.42307
      H   41    0.09753      0.00000     0.40143    0.00104     0.40247
      H   42    0.09668      0.00000     0.40249    0.00083     0.40332
      H   43    0.09428      0.00000     0.40468    0.00103     0.40572
 =======================================================================
   * Total *    0.00000     14.99435    44.82452    0.18113    60.00000

 Normal termination of Gaussian 16 at Thu Dec 10 18:23:39 2020.
