 Gaussian 16, Revision A.03,

 -----------------------------------------------------------
 # opt freq B3LYP/6-31G(d) empiricaldispersion=gd3bj scf=xqc
 -----------------------------------------------------------

 -------------------------------
 CID_105431256_JID_1412_neutraal
 -------------------------------
 Symbolic Z-matrix:
 Charge =  0 Multiplicity = 1

 SCF Done:  E(RB3LYP) =  -520.245563113     A.U. after   13 cycles
 SCF Done:  E(RB3LYP) =  -520.248524041     A.U. after   11 cycles
 SCF Done:  E(RB3LYP) =  -520.248711753     A.U. after   10 cycles
 SCF Done:  E(RB3LYP) =  -520.248755915     A.U. after   10 cycles
 SCF Done:  E(RB3LYP) =  -520.248767139     A.U. after    9 cycles
 SCF Done:  E(RB3LYP) =  -520.248777290     A.U. after    9 cycles
 SCF Done:  E(RB3LYP) =  -520.248784400     A.U. after    9 cycles
 SCF Done:  E(RB3LYP) =  -520.248785210     A.U. after    7 cycles
 SCF Done:  E(RB3LYP) =  -520.248785428     A.U. after    7 cycles
 SCF Done:  E(RB3LYP) =  -520.248785536     A.U. after    7 cycles
 SCF Done:  E(RB3LYP) =  -520.248940899     A.U. after    9 cycles
 SCF Done:  E(RB3LYP) =  -520.248947329     A.U. after    9 cycles
 SCF Done:  E(RB3LYP) =  -520.248947943     A.U. after    9 cycles
 SCF Done:  E(RB3LYP) =  -520.248948064     A.U. after    7 cycles
 SCF Done:  E(RB3LYP) =  -520.248948331     A.U. after    8 cycles
 Optimization completed.
    -- Stationary point found.
 Normal termination of Gaussian 16 at Tue Dec  8 20:09:27 2020.

 --------------------------------------------------------------------
 #N Geom=AllCheck Guess=TCheck SCRF=Check GenChk RB3LYP/6-31G(d) Freq
 --------------------------------------------------------------------

 Structure from the checkpoint file:  "JID_1412.chk"
 -------------------------------
 CID_105431256_JID_1412_neutraal
 -------------------------------
 Charge =  0 Multiplicity = 1

 SCF Done:  E(RB3LYP) =  -520.248948331     A.U. after    1 cycles

  Exact polarizability: 108.260  -2.076  99.699  -1.496  -2.827  82.355
 Approx polarizability: 132.752  -2.936 130.002  -1.163  -0.090 129.518

                      1                      2                      3
                      A                      A                      A
 Frequencies --     28.3115                58.0893                68.5311
 Red. masses --      2.3766                 2.6231                 2.6328
 Frc consts  --      0.0011                 0.0052                 0.0073
 IR Inten    --      0.0758                 1.3807                 0.0543

                      4                      5                      6
                      A                      A                      A
 Frequencies --     81.1807                97.7197               127.7673
 Red. masses --      3.8633                 1.8325                 2.6981
 Frc consts  --      0.0150                 0.0103                 0.0260
 IR Inten    --      1.4928                 6.9863                 8.6274

                      7                      8                      9
                      A                      A                      A
 Frequencies --    152.1911               187.6660               228.2311
 Red. masses --      1.7180                 2.3770                 2.6227
 Frc consts  --      0.0234                 0.0493                 0.0805
 IR Inten    --     36.0677                 1.4613                 5.5055

                     10                     11                     12
                      A                      A                      A
 Frequencies --    270.4933               309.7993               344.1424
 Red. masses --      3.0999                 1.6172                 4.0776
 Frc consts  --      0.1336                 0.0914                 0.2845
 IR Inten    --      4.6235                76.9157                 9.7601

                     13                     14                     15
                      A                      A                      A
 Frequencies --    355.7750               389.0675               530.7122
 Red. masses --      1.8835                 2.1955                 2.5968
 Frc consts  --      0.1405                 0.1958                 0.4309
 IR Inten    --     49.6451                 2.4872                 6.8711

                     16                     17                     18
                      A                      A                      A
 Frequencies --    549.1018               608.0554               671.4845
 Red. masses --      2.8417                 2.3749                 3.5509
 Frc consts  --      0.5048                 0.5174                 0.9433
 IR Inten    --      5.0927                 2.0152                 5.3037

                     19                     20                     21
                      A                      A                      A
 Frequencies --    785.8869               831.9105               874.8109
 Red. masses --      1.1749                 2.0758                 2.5528
 Frc consts  --      0.4275                 0.8464                 1.1511
 IR Inten    --      0.8261                 1.5978                 2.3234

                     22                     23                     24
                      A                      A                      A
 Frequencies --    906.9943               910.9262               938.2094
 Red. masses --      3.2169                 2.7908                 1.7254
 Frc consts  --      1.5592                 1.3644                 0.8949
 IR Inten    --      1.7005                 1.9700                15.4691

                     25                     26                     27
                      A                      A                      A
 Frequencies --    946.9479               961.7470               966.6754
 Red. masses --      2.2378                 1.9823                 2.1035
 Frc consts  --      1.1823                 1.0803                 1.1581
 IR Inten    --     14.7598                10.3311                 2.2728

                     28                     29                     30
                      A                      A                      A
 Frequencies --    983.3392              1017.1633              1039.3652
 Red. masses --      1.8388                 1.3772                 3.1959
 Frc consts  --      1.0476                 0.8395                 2.0341
 IR Inten    --      5.4444                 0.5794                23.4772

                     31                     32                     33
                      A                      A                      A
 Frequencies --   1054.8674              1088.5928              1098.2435
 Red. masses --      2.0018                 3.5365                 2.8340
 Frc consts  --      1.3124                 2.4692                 2.0139
 IR Inten    --      6.6674                70.5334                 8.6394

                     34                     35                     36
                      A                      A                      A
 Frequencies --   1122.1107              1151.6150              1194.8054
 Red. masses --      1.6263                 1.8440                 1.5821
 Frc consts  --      1.2065                 1.4409                 1.3307
 IR Inten    --     10.7864                20.2732                 7.8694

                     37                     38                     39
                      A                      A                      A
 Frequencies --   1220.5192              1230.8403              1245.9237
 Red. masses --      1.4186                 1.3772                 1.2176
 Frc consts  --      1.2451                 1.2293                 1.1137
 IR Inten    --      0.6954                 5.8694                21.6778

                     40                     41                     42
                      A                      A                      A
 Frequencies --   1256.1198              1267.2050              1294.5971
 Red. masses --      1.3686                 1.4674                 1.2999
 Frc consts  --      1.2723                 1.3883                 1.2836
 IR Inten    --     13.6553                39.0050                 9.9021

                     43                     44                     45
                      A                      A                      A
 Frequencies --   1306.0684              1310.7802              1324.9859
 Red. masses --      1.2720                 1.3410                 1.2927
 Frc consts  --      1.2784                 1.3575                 1.3371
 IR Inten    --      2.3546                 1.8899                 0.7512

                     46                     47                     48
                      A                      A                      A
 Frequencies --   1336.6422              1342.6366              1364.2492
 Red. masses --      1.1466                 1.2942                 1.3332
 Frc consts  --      1.2070                 1.3745                 1.4620
 IR Inten    --      3.2222                 1.6688                 0.6327

                     49                     50                     51
                      A                      A                      A
 Frequencies --   1372.3007              1375.5643              1403.1620
 Red. masses --      1.3311                 1.4139                 1.2373
 Frc consts  --      1.4769                 1.5763                 1.4353
 IR Inten    --      2.1223                 1.6912                 7.3114

                     52                     53                     54
                      A                      A                      A
 Frequencies --   1418.3947              1429.9331              1443.2763
 Red. masses --      1.5515                 1.3437                 1.3176
 Frc consts  --      1.8391                 1.6187                 1.6171
 IR Inten    --      6.6523                43.3752                14.0912

                     55                     56                     57
                      A                      A                      A
 Frequencies --   1512.9178              1518.4500              1525.3868
 Red. masses --      1.0875                 1.0841                 1.0879
 Frc consts  --      1.4666                 1.4728                 1.4915
 IR Inten    --      2.8702                 0.6489                 2.5524

                     58                     59                     60
                      A                      A                      A
 Frequencies --   1535.8372              1547.9378              1549.3277
 Red. masses --      1.0833                 1.0969                 1.0893
 Frc consts  --      1.5055                 1.5485                 1.5406
 IR Inten    --      5.4249                 1.9670                 4.0928

                     61                     62                     63
                      A                      A                      A
 Frequencies --   1688.4472              2985.2832              3016.2221
 Red. masses --      1.0673                 1.0815                 1.0764
 Frc consts  --      1.7926                 5.6785                 5.7697
 IR Inten    --     13.6292                16.3935                11.7717

                     64                     65                     66
                      A                      A                      A
 Frequencies --   3021.3311              3027.5166              3042.2863
 Red. masses --      1.0628                 1.0745                 1.0698
 Frc consts  --      5.7162                 5.8029                 5.8340
 IR Inten    --     52.2285                45.0902                51.6137

                     67                     68                     69
                      A                      A                      A
 Frequencies --   3045.3007              3053.3681              3066.8845
 Red. masses --      1.0631                 1.0668                 1.0638
 Frc consts  --      5.8090                 5.8601                 5.8952
 IR Inten    --     13.0687                41.2030                47.5795

                     70                     71                     72
                      A                      A                      A
 Frequencies --   3071.9206              3079.6262              3096.6904
 Red. masses --      1.1012                 1.1023                 1.0971
 Frc consts  --      6.1224                 6.1595                 6.1983
 IR Inten    --     46.2288                22.6433                19.7397

                     73                     74                     75
                      A                      A                      A
 Frequencies --   3100.2496              3111.6898              3129.7322
 Red. masses --      1.0967                 1.1046                 1.0962
 Frc consts  --      6.2105                 6.3015                 6.3265
 IR Inten    --     54.3834                76.4509                36.2924

                     76                     77                     78
                      A                      A                      A
 Frequencies --   3407.2108              3500.9831              3750.8112
 Red. masses --      1.0477                 1.0960                 1.0659
 Frc consts  --      7.1660                 7.9148                 8.8349
 IR Inten    --      5.3629                 0.8162                 7.8231

 - Thermochemistry -
 -------------------
 Temperature   298.150 Kelvin.  Pressure   1.00000 Atm.
 Atom     1 has atomic number  6 and mass  12.00000

 Molecular mass:   159.12593 amu.
 Principal axes and moments of inertia in atomic units:
                           1         2         3
     Eigenvalues --  1466.879782304.073203450.57585
           X            1.00000   0.00294  -0.00115
           Y           -0.00296   0.99985  -0.01697
           Z            0.00110   0.01697   0.99986
 This molecule is an asymmetric top.
 Rotational symmetry number  1.
 Warning -- assumption of classical behavior for rotation
           may cause significant error
 Rotational temperatures (Kelvin)      0.05905     0.03759     0.02510
 Rotational constants (GHZ):           1.23033     0.78328     0.52303
 Zero-point vibrational energy     665489.4 (Joules/Mol)
                                  159.05578 (Kcal/Mol)
 Warning -- explicit consideration of  17 degrees of freedom as
           vibrations may cause significant error
 Vibrational temperatures:     40.73    83.58    98.60   116.80   140.60
          (Kelvin)            183.83   218.97   270.01   328.37   389.18
                              445.73   495.14   511.88   559.78   763.58
                              790.04   874.86   966.12  1130.72  1196.93
                             1258.66  1304.96  1310.62  1349.87  1362.45
                             1383.74  1390.83  1414.81  1463.47  1495.41
                             1517.72  1566.24  1580.13  1614.47  1656.92
                             1719.06  1756.05  1770.90  1792.61  1807.28
                             1823.23  1862.64  1879.14  1885.92  1906.36
                             1923.13  1931.75  1962.85  1974.43  1979.13
                             2018.84  2040.75  2057.35  2076.55  2176.75
                             2184.71  2194.69  2209.73  2227.14  2229.14
                             2429.30  4295.16  4339.67  4347.02  4355.92
                             4377.17  4381.51  4393.12  4412.56  4419.81
                             4430.90  4455.45  4460.57  4477.03  4502.99
                             4902.22  5037.13  5396.58

 Zero-point correction=                           0.253472 (Hartree/Particle)
 Thermal correction to Energy=                    0.266265
 Thermal correction to Enthalpy=                  0.267209
 Thermal correction to Gibbs Free Energy=         0.212880
 Sum of electronic and zero-point Energies=           -519.995477
 Sum of electronic and thermal Energies=              -519.982684
 Sum of electronic and thermal Enthalpies=            -519.981739
 Sum of electronic and thermal Free Energies=         -520.036068

                     E (Thermal)             CV                S
                      KCal/Mol        Cal/Mol-Kelvin    Cal/Mol-Kelvin
 Total                  167.084             45.643            114.344
 Electronic               0.000              0.000              0.000
 Translational            0.889              2.981             41.103
 Rotational               0.889              2.981             30.834
 Vibrational            165.306             39.681             42.407
 Vibration     1          0.593              1.984              5.944
 Vibration     2          0.596              1.974              4.521
 Vibration     3          0.598              1.969              4.195
 Vibration     4          0.600              1.962              3.862
 Vibration     5          0.603              1.951              3.499
 Vibration     6          0.611              1.925              2.979
 Vibration     7          0.619              1.900              2.645
 Vibration     8          0.632              1.857              2.251
 Vibration     9          0.651              1.798              1.893
 Vibration    10          0.674              1.728              1.593
 Vibration    11          0.699              1.655              1.363
 Vibration    12          0.723              1.587              1.193
 Vibration    13          0.731              1.563              1.141
 Vibration    14          0.757              1.494              1.004
 Vibration    15          0.886              1.182              0.586
 Vibration    16          0.904              1.142              0.546
 Vibration    17          0.967              1.015              0.436

                           ! Non-Optimized Parameters !
 Normal termination of Gaussian 16 at Tue Dec  8 20:15:05 2020.

 ----------------------------------------------------------------------
 # B3LYP/6-311++G(d,p) empiricaldispersion=gd3bj scf=xqc pop=npa geom=c
 heck
 ----------------------------------------------------------------------

 ---------------------------------------
 CID_105431256_JID_1412_Energie_neutraal
 ---------------------------------------
 Structure from the checkpoint file:  "JID_1412.chk"
 Charge =  0 Multiplicity = 1

 SCF Done:  E(RB3LYP) =  -520.416243048     A.U. after   14 cycles
 Normal termination of Gaussian 16 at Tue Dec  8 20:17:18 2020.

 ----------------------------------------------------------------------
 # B3LYP/6-311++G(d,p) empiricaldispersion=gd3bj scf=xqc pop=npa geom=c
 heck
 ----------------------------------------------------------------------

 -------------------------------------
 CID_105431256_JID_1412_Energie_kation
 -------------------------------------
 Structure from the checkpoint file:  "JID_1412.chk"
 Charge =  1 Multiplicity = 2

 SCF Done:  E(UB3LYP) =  -520.076035722     A.U. after   33 cycles
 SCF Done:  E(UB3LYP) =  -520.076666420     a.u. after    8 cycles
 Normal termination of Gaussian 16 at Tue Dec  8 20:52:47 2020.
 Gaussian 16:  ES64L-G16RevA.03 25-Dec-2016

 ----------------------------------------------------------------------
 # B3LYP/6-311++G(d,p) empiricaldispersion=gd3bj scf=xqc pop=npa geom=c
 heck
 ----------------------------------------------------------------------

 ------------------------------------
 CID_105431256_JID_1412_Energie_anion
 ------------------------------------
 Structure from the checkpoint file:  "JID_1412.chk"
 Charge = -1 Multiplicity = 2

                         Standard orientation:
 ---------------------------------------------------------------------
 Center     Atomic      Atomic             Coordinates (Angstroms)
 Number     Number       Type             X           Y           Z
 ---------------------------------------------------------------------
      1          6           0       -3.118452   -0.508003   -0.169298
      2          6           0       -2.337542   -1.664022    0.501059
      3          6           0       -0.878837   -1.433364    0.085630
      4          6           0       -0.730468    0.097363    0.154659
      5          6           0       -2.067692    0.605526   -0.441984
      6          6           0        0.522225    0.691262   -0.512850
      7          6           0        0.523002    2.226994   -0.456766
      8          8           0        0.607329    2.740043    0.870615
      9          6           0        1.827280    0.158674    0.085657
     10          8           0        2.032700   -1.161548   -0.412926
     11          7           0        3.213322   -1.707596    0.210968
     12          1           0       -3.939719   -0.153954    0.462032
     13          1           0       -3.568557   -0.842255   -1.110229
     14          1           0       -2.421055   -1.590303    1.593163
     15          1           0       -2.715349   -2.651597    0.216364
     16          1           0       -0.712486   -1.769690   -0.946294
     17          1           0       -0.156772   -1.960805    0.713274
     18          1           0       -0.701875    0.366783    1.223085
     19          1           0       -1.948003    0.758921   -1.521919
     20          1           0       -2.369912    1.571786   -0.022972
     21          1           0        0.510358    0.410832   -1.577399
     22          1           0        1.407385    2.615240   -0.972097
     23          1           0       -0.360360    2.624490   -0.977409
     24          1           0       -0.217681    2.508803    1.323723
     25          1           0        2.673903    0.798027   -0.203336
     26          1           0        1.784291    0.150146    1.181745
     27          1           0        2.882887   -2.598138    0.589573
     28          1           0        3.802364   -1.959642   -0.586233
 ---------------------------------------------------------------------

 SCF Done:  E(UB3LYP) =  -520.401739047     A.U. after   27 cycles

 The electronic state is 2-A.
 Alpha  occ. eigenvalues --  -19.03856 -19.02131 -14.23894 -10.11454 -10.10266
 Alpha  occ. eigenvalues --  -10.07095 -10.06537 -10.05820 -10.05768 -10.05503
 Alpha  occ. eigenvalues --  -10.05005  -0.95452  -0.92209  -0.74120  -0.71792
 Alpha  occ. eigenvalues --   -0.66536  -0.60152  -0.59284  -0.55315  -0.49236
 Alpha  occ. eigenvalues --   -0.46234  -0.45165  -0.40434  -0.40168  -0.38885
 Alpha  occ. eigenvalues --   -0.37850  -0.37222  -0.34064  -0.32770  -0.31979
 Alpha  occ. eigenvalues --   -0.30699  -0.30437  -0.28466  -0.26102  -0.24124
 Alpha  occ. eigenvalues --   -0.23272  -0.22943  -0.21724  -0.21647  -0.21083
 Alpha  occ. eigenvalues --   -0.21013  -0.17489  -0.15862  -0.15822   0.04642
 Alpha virt. eigenvalues --    0.06402   0.07640   0.07808   0.09254   0.09440
 Alpha virt. eigenvalues --    0.10117   0.10623   0.10964   0.11731   0.12401
 Alpha virt. eigenvalues --    0.13431   0.13597   0.13949   0.14556   0.14880

  Beta  occ. eigenvalues --  -19.03843 -19.02106 -14.23832 -10.11442 -10.10257
  Beta  occ. eigenvalues --  -10.07089 -10.06522 -10.05795 -10.05747 -10.05485
  Beta  occ. eigenvalues --  -10.04993  -0.95408  -0.92153  -0.74072  -0.71703
  Beta  occ. eigenvalues --   -0.66479  -0.60103  -0.59236  -0.55266  -0.49196
  Beta  occ. eigenvalues --   -0.46172  -0.45111  -0.40378  -0.40110  -0.38829
  Beta  occ. eigenvalues --   -0.37780  -0.37194  -0.34021  -0.32733  -0.31945
  Beta  occ. eigenvalues --   -0.30668  -0.30409  -0.28430  -0.26066  -0.24093
  Beta  occ. eigenvalues --   -0.23228  -0.22901  -0.21693  -0.21612  -0.21046
  Beta  occ. eigenvalues --   -0.20985  -0.17460  -0.15830  -0.15766
  Beta virt. eigenvalues --    0.06989   0.07787   0.08062   0.08250   0.09603
  Beta virt. eigenvalues --    0.10079   0.10582   0.10869   0.11277   0.12186
  Beta virt. eigenvalues --    0.12719   0.13547   0.13813   0.14109   0.14757

 Mulliken charges and spin densities:
               1          2
     1  C    0.069506  -0.468771
     2  C    0.223769  -0.785414
     3  C   -0.060017  -0.438729
     4  C   -1.176230   1.432451
     5  C    0.930059  -1.404151
     6  C    0.620575   0.160751
     7  C    0.446962  -1.060177
     8  O   -0.225111   0.005670
     9  C   -0.604422  -0.179849
    10  O   -0.160944   0.059268
    11  N   -0.034083  -0.314484
    12  H   -0.297734   0.449303
    13  H    0.022795   0.098144
    14  H   -0.179457   0.318702
    15  H   -0.111729   0.264079
    16  H   -0.100725   0.272708
    17  H    0.078501   0.081547
    18  H    0.105362   0.057669
    19  H    0.011488   0.138314
    20  H   -0.276968   0.424344
    21  H    0.109569   0.086531
    22  H    0.066225   0.108275
    23  H   -0.022634   0.176672
    24  H   -0.092515   0.359494
    25  H   -0.088135   0.210977
    26  H    0.129664   0.065160
    27  H   -0.211867   0.458911
    28  H   -0.171907   0.422604
 Sum of Mulliken charges =  -1.00000   1.00000

 Dipole moment (field-independent basis, Debye):
    X=             -0.7684    Y=              1.4351    Z=             -2.5026  Tot=              2.9855
 Quadrupole moment (field-independent basis, Debye-Ang):
   XX=           -132.6278   YY=           -118.7990   ZZ=            -95.9501
   XY=             10.9370   XZ=              2.1701   YZ=             -3.5938

 Summary of Natural Population Analysis:

                                       Natural Population
                Natural  -----------------------------------------------
    Atom  No    Charge         Core      Valence    Rydberg      Total
 -----------------------------------------------------------------------
      C    1   -0.19193      0.99965     2.18457    0.00771     3.19193
      C    2   -0.19086      0.99964     2.18379    0.00742     3.19086
      C    3   -0.18836      0.99962     2.17909    0.00965     3.18836
      C    4   -0.11039      0.99958     2.09864    0.01217     3.11039
      C    5   -0.19288      0.99963     2.18423    0.00903     3.19288
      C    6   -0.13122      0.99956     2.12074    0.01093     3.13122
      C    7   -0.00620      0.99957     1.99286    0.01377     3.00620
      O    8   -0.37186      0.99990     3.36541    0.00655     4.37186
      C    9   -0.00005      0.99955     1.98691    0.01359     3.00005
      O   10   -0.24219      0.99990     3.22982    0.01248     4.24219
      N   11   -0.25382      0.99976     2.74311    0.01095     3.75382
      H   12    0.09935      0.00000     0.39923    0.00141     0.40065
      H   13    0.09343      0.00000     0.40551    0.00106     0.40657
      H   14    0.09446      0.00000     0.40405    0.00149     0.40554
      H   15    0.09732      0.00000     0.40172    0.00096     0.40268
      H   16    0.09504      0.00000     0.40344    0.00152     0.40496
      H   17    0.10704      0.00000     0.39163    0.00134     0.39296
      H   18    0.09250      0.00000     0.40546    0.00204     0.40750
      H   19    0.09353      0.00000     0.40514    0.00132     0.40647
      H   20    0.10109      0.00000     0.39696    0.00195     0.39891
      H   21    0.10177      0.00000     0.39628    0.00195     0.39823
      H   22    0.08425      0.00000     0.41460    0.00115     0.41575
      H   23    0.08071      0.00000     0.41807    0.00122     0.41929
      H   24    0.23018      0.00000     0.26608    0.00374     0.26982
      H   25    0.08109      0.00000     0.41756    0.00135     0.41891
      H   26    0.08740      0.00000     0.41095    0.00164     0.41260
      H   27    0.17142      0.00000     0.32444    0.00414     0.32858
      H   28    0.16917      0.00000     0.32677    0.00405     0.33083
 =======================================================================
   * Total *    0.00000     10.99635    32.85707    0.14658    44.00000

 Normal termination of Gaussian 16 at Tue Dec  8 20:58:57 2020.
