 Gaussian 16, Revision A.03,

 -----------------------------------------------------------
 # opt freq B3LYP/6-31G(d) empiricaldispersion=gd3bj scf=xqc
 -----------------------------------------------------------

 -------------------------------
 CID_108482467_JID_8556_neutraal
 -------------------------------
 Symbolic Z-matrix:
 Charge =  0 Multiplicity = 1

 SCF Done:  E(RB3LYP) =  -1234.90183080     A.U. after   15 cycles
 SCF Done:  E(RB3LYP) =  -1234.91231710     A.U. after   12 cycles
 SCF Done:  E(RB3LYP) =  -1234.91389114     A.U. after   12 cycles
 SCF Done:  E(RB3LYP) =  -1234.91439293     A.U. after   12 cycles
 SCF Done:  E(RB3LYP) =  -1234.91464774     A.U. after   12 cycles
 SCF Done:  E(RB3LYP) =  -1234.91468893     A.U. after   11 cycles
 SCF Done:  E(RB3LYP) =  -1234.91473777     A.U. after   11 cycles
 SCF Done:  E(RB3LYP) =  -1234.91475128     A.U. after   10 cycles
 SCF Done:  E(RB3LYP) =  -1234.91476548     A.U. after   10 cycles
 SCF Done:  E(RB3LYP) =  -1234.91478318     A.U. after   10 cycles
 SCF Done:  E(RB3LYP) =  -1234.91537603     A.U. after    8 cycles
 SCF Done:  E(RB3LYP) =  -1234.91537640     A.U. after    8 cycles
 SCF Done:  E(RB3LYP) =  -1234.91537651     A.U. after    7 cycles
 SCF Done:  E(RB3LYP) =  -1234.91537654     A.U. after    7 cycles
 SCF Done:  E(RB3LYP) =  -1234.91537654     A.U. after    7 cycles
 Optimization completed.
    -- Stationary point found.
 Normal termination of Gaussian 16 at Fri Dec 11 21:28:48 2020.

 --------------------------------------------------------------------
 #N Geom=AllCheck Guess=TCheck SCRF=Check GenChk RB3LYP/6-31G(d) Freq
 --------------------------------------------------------------------

 Structure from the checkpoint file:  "JID_8556.chk"
 -------------------------------
 CID_108482467_JID_8556_neutraal
 -------------------------------
 Charge =  0 Multiplicity = 1

 SCF Done:  E(RB3LYP) =  -1234.91537654     A.U. after    1 cycles

  Exact polarizability: 158.637  18.077 164.878  -2.827  11.149 130.323
 Approx polarizability: 219.772  39.721 250.741 -15.612  27.144 250.028

                      1                      2                      3
                      A                      A                      A
 Frequencies --     14.8820                26.3311                51.2985
 Red. masses --      4.5426                 4.4023                 4.4243
 Frc consts  --      0.0006                 0.0018                 0.0069
 IR Inten    --      0.7894                 2.3499                 1.9288

                      4                      5                      6
                      A                      A                      A
 Frequencies --     72.8077                91.6135               112.8044
 Red. masses --      4.7524                 5.6972                 4.2223
 Frc consts  --      0.0148                 0.0282                 0.0317
 IR Inten    --      3.7080                 0.2404                 2.7771

                      7                      8                      9
                      A                      A                      A
 Frequencies --    134.5709               146.9682               166.5033
 Red. masses --      1.0946                 6.3489                 4.1741
 Frc consts  --      0.0117                 0.0808                 0.0682
 IR Inten    --      0.0984                 2.0973                 3.3566

                     10                     11                     12
                      A                      A                      A
 Frequencies --    224.3585               237.2637               243.6192
 Red. masses --      2.5548                 4.7801                 3.3924
 Frc consts  --      0.0758                 0.1585                 0.1186
 IR Inten    --      1.1287                 1.6648                 1.5004

                     13                     14                     15
                      A                      A                      A
 Frequencies --    265.0934               287.6179               305.8020
 Red. masses --      1.7117                 6.3260                 6.9501
 Frc consts  --      0.0709                 0.3083                 0.3829
 IR Inten    --      0.9843                 0.7504                 0.3121

                     16                     17                     18
                      A                      A                      A
 Frequencies --    349.7425               371.1779               410.3339
 Red. masses --      5.6831                 4.5690                 6.1200
 Frc consts  --      0.4096                 0.3709                 0.6071
 IR Inten    --      1.5880                 2.1372                 1.8707

                     19                     20                     21
                      A                      A                      A
 Frequencies --    422.5008               427.1201               483.7278
 Red. masses --      4.5257                 3.4331                 3.8135
 Frc consts  --      0.4760                 0.3690                 0.5257
 IR Inten    --      5.7923                 1.3755                 1.1802

                     22                     23                     24
                      A                      A                      A
 Frequencies --    502.3085               515.7643               549.6921
 Red. masses --      2.3275                 2.9716                 5.0536
 Frc consts  --      0.3460                 0.4657                 0.8997
 IR Inten    --     24.0184                16.9473                89.8552

                     25                     26                     27
                      A                      A                      A
 Frequencies --    578.6306               641.4553               644.7182
 Red. masses --      5.1116                 6.3230                 6.5217
 Frc consts  --      1.0083                 1.5329                 1.5972
 IR Inten    --    204.3867                 2.4267                10.0197

                     28                     29                     30
                      A                      A                      A
 Frequencies --    652.7700               667.6798               696.0057
 Red. masses --      4.2169                 6.3480                 3.9902
 Frc consts  --      1.0587                 1.6673                 1.1389
 IR Inten    --     51.0263                74.4278                22.6918

                     31                     32                     33
                      A                      A                      A
 Frequencies --    715.3078               757.9875               790.7110
 Red. masses --      4.0250                 1.3968                 4.2876
 Frc consts  --      1.2134                 0.4728                 1.5794
 IR Inten    --     10.8054                58.0400                22.9705

                     34                     35                     36
                      A                      A                      A
 Frequencies --    804.1490               827.2252               828.9568
 Red. masses --      4.7246                 1.2750                 5.6857
 Frc consts  --      1.8001                 0.5141                 2.3019
 IR Inten    --     68.2727                 6.0895                51.5527

                     37                     38                     39
                      A                      A                      A
 Frequencies --    848.0820               922.5798               961.8722
 Red. masses --      1.6257                 9.5131                 1.2891
 Frc consts  --      0.6889                 4.7707                 0.7027
 IR Inten    --     38.0858                25.1268                 0.0342

                     40                     41                     42
                      A                      A                      A
 Frequencies --    972.6186               997.1706              1027.8632
 Red. masses --      1.2855                 1.8669                 3.3795
 Frc consts  --      0.7165                 1.0937                 2.1037
 IR Inten    --      0.0777                 0.1554                 2.1882

                     43                     44                     45
                      A                      A                      A
 Frequencies --   1038.1158              1052.3473              1072.8822
 Red. masses --      4.6191                 2.7727                 7.1918
 Frc consts  --      2.9329                 1.8091                 4.8775
 IR Inten    --     25.1960                 5.6779                51.6144

                     46                     47                     48
                      A                      A                      A
 Frequencies --   1078.0288              1096.9353              1147.9912
 Red. masses --      1.5033                 3.8829                 1.2891
 Frc consts  --      1.0293                 2.7528                 1.0009
 IR Inten    --      2.8878                61.4592                15.3013

                     49                     50                     51
                      A                      A                      A
 Frequencies --   1152.4325              1182.0679              1184.9891
 Red. masses --      5.6723                 1.5301                 1.2700
 Frc consts  --      4.4385                 1.2596                 1.0507
 IR Inten    --    326.0134                 9.6194                 0.7272

                     52                     53                     54
                      A                      A                      A
 Frequencies --   1214.0754              1220.8568              1295.1740
 Red. masses --      1.2586                 1.3229                 3.5021
 Frc consts  --      1.0931                 1.1617                 3.4613
 IR Inten    --     13.4793                10.1252                32.6667

                     55                     56                     57
                      A                      A                      A
 Frequencies --   1315.7542              1340.2332              1359.1346
 Red. masses --      4.2330                 1.3316                 8.0386
 Frc consts  --      4.3177                 1.4093                 8.7489
 IR Inten    --    240.5756                15.1878                71.4881

                     58                     59                     60
                      A                      A                      A
 Frequencies --   1374.7750              1402.9077              1438.6790
 Red. masses --      6.3951                 2.1504                 1.3157
 Frc consts  --      7.1213                 2.4936                 1.6045
 IR Inten    --     40.0885                75.4366                 1.9290

                     61                     62                     63
                      A                      A                      A
 Frequencies --   1465.3157              1488.7058              1499.2385
 Red. masses --      3.1591                 2.0755                 1.2107
 Frc consts  --      3.9965                 2.7102                 1.6034
 IR Inten    --      9.1405                72.2796                19.4198

                     64                     65                     66
                      A                      A                      A
 Frequencies --   1509.2409              1511.1942              1522.9400
 Red. masses --      1.8593                 1.0687                 1.0470
 Frc consts  --      2.4952                 1.4380                 1.4308
 IR Inten    --      8.1779                 7.5895                 6.8271

                     67                     68                     69
                      A                      A                      A
 Frequencies --   1533.2460              1550.9950              1560.9507
 Red. masses --      1.0717                 2.2376                 3.3780
 Frc consts  --      1.4845                 3.1715                 4.8494
 IR Inten    --     44.1286                53.2299                81.2274

                     70                     71                     72
                      A                      A                      A
 Frequencies --   1631.4183              1656.5773              1660.1596
 Red. masses --      6.8728                 6.1299                 5.8838
 Frc consts  --     10.7774                 9.9111                 9.5545
 IR Inten    --     21.1661               158.4355               217.3991

                     73                     74                     75
                      A                      A                      A
 Frequencies --   3037.8135              3059.3604              3101.8103
 Red. masses --      1.0342                 1.0371                 1.1073
 Frc consts  --      5.6229                 5.7190                 6.2767
 IR Inten    --     44.0001                16.8178                32.9850

                     76                     77                     78
                      A                      A                      A
 Frequencies --   3115.8534              3154.6454              3170.6569
 Red. masses --      1.1015                 1.1013                 1.1009
 Frc consts  --      6.3009                 6.4576                 6.5206
 IR Inten    --     12.5334                 6.5188                21.0866

                     79                     80                     81
                      A                      A                      A
 Frequencies --   3218.7161              3232.0900              3236.3368
 Red. masses --      1.0880                 1.0950                 1.0880
 Frc consts  --      6.6415                 6.7394                 6.7143
 IR Inten    --      1.3096                 2.4858                 4.0536

                     82                     83                     84
                      A                      A                      A
 Frequencies --   3249.1646              3286.7448              3576.7309
 Red. masses --      1.0942                 1.0983                 1.0763
 Frc consts  --      6.8060                 6.9907                 8.1123
 IR Inten    --      3.4751                 1.1101                49.4092

 - Thermochemistry -
 -------------------
 Temperature   298.150 Kelvin.  Pressure   1.00000 Atm.
 Atom     1 has atomic number  6 and mass  12.00000

 Molecular mass:   268.05178 amu.
 Principal axes and moments of inertia in atomic units:
                           1         2         3
     Eigenvalues --  4079.465325646.208738332.22947
           X            0.99984  -0.00752   0.01613
           Y            0.00749   0.99997   0.00180
           Z           -0.01615  -0.00168   0.99987
 This molecule is an asymmetric top.
 Rotational symmetry number  1.
 Warning -- assumption of classical behavior for rotation
           may cause significant error
 Rotational temperatures (Kelvin)      0.02123     0.01534     0.01040
 Rotational constants (GHZ):           0.44240     0.31964     0.21660
 Zero-point vibrational energy     596619.4 (Joules/Mol)
                                  142.59545 (Kcal/Mol)
 Warning -- explicit consideration of  25 degrees of freedom as
           vibrations may cause significant error
 Vibrational temperatures:     21.41    37.88    73.81   104.75   131.81
          (Kelvin)            162.30   193.62   211.45   239.56   322.80
                              341.37   350.51   381.41   413.82   439.98
                              503.20   534.04   590.38   607.88   614.53
                              695.98   722.71   742.07   790.88   832.52
                              922.91   927.61   939.19   960.64  1001.40
                             1029.17  1090.57  1137.66  1156.99  1190.19
                             1192.68  1220.20  1327.39  1383.92  1399.38
                             1434.71  1478.87  1493.62  1514.09  1543.64
                             1551.04  1578.25  1651.70  1658.09  1700.73
                             1704.93  1746.78  1756.54  1863.47  1893.08
                             1928.30  1955.49  1977.99  2018.47  2069.94
                             2108.26  2141.92  2157.07  2171.46  2174.27
                             2191.17  2206.00  2231.54  2245.86  2347.25
                             2383.45  2388.60  4370.74  4401.74  4462.81
                             4483.02  4538.83  4561.87  4631.01  4650.26
                             4656.37  4674.82  4728.89  5146.12

 Zero-point correction=                           0.227240 (Hartree/Particle)
 Thermal correction to Energy=                    0.244106
 Thermal correction to Enthalpy=                  0.245050
 Thermal correction to Gibbs Free Energy=         0.180441
 Sum of electronic and zero-point Energies=          -1234.688136
 Sum of electronic and thermal Energies=             -1234.671271
 Sum of electronic and thermal Enthalpies=           -1234.670327
 Sum of electronic and thermal Free Energies=        -1234.734935

                     E (Thermal)             CV                S
                      KCal/Mol        Cal/Mol-Kelvin    Cal/Mol-Kelvin
 Total                  153.179             62.943            135.980
 Electronic               0.000              0.000              0.000
 Translational            0.889              2.981             42.657
 Rotational               0.889              2.981             33.617
 Vibrational            151.401             56.981             59.706
 Vibration     1          0.593              1.986              7.221
 Vibration     2          0.593              1.985              6.088
 Vibration     3          0.596              1.977              4.767
 Vibration     4          0.599              1.967              4.076
 Vibration     5          0.602              1.955              3.625
 Vibration     6          0.607              1.939              3.220
 Vibration     7          0.613              1.919              2.880
 Vibration     8          0.617              1.906              2.711
 Vibration     9          0.624              1.884              2.475
 Vibration    10          0.649              1.804              1.924
 Vibration    11          0.656              1.784              1.823
 Vibration    12          0.659              1.773              1.776
 Vibration    13          0.671              1.737              1.628
 Vibration    14          0.685              1.697              1.488
 Vibration    15          0.696              1.663              1.385
 Vibration    16          0.727              1.576              1.167
 Vibration    17          0.743              1.531              1.075
 Vibration    18          0.775              1.448              0.925
 Vibration    19          0.785              1.421              0.884
 Vibration    20          0.789              1.411              0.868
 Vibration    21          0.840              1.286              0.700
 Vibration    22          0.858              1.245              0.652
 Vibration    23          0.871              1.215              0.620
 Vibration    24          0.905              1.140              0.545
 Vibration    25          0.935              1.077              0.488

 Optimization completed.
    -- Stationary point found.
 Normal termination of Gaussian 16 at Fri Dec 11 21:40:39 2020.

 ----------------------------------------------------------------------
 # B3LYP/6-311++G(d,p) empiricaldispersion=gd3bj scf=xqc pop=npa geom=c
 heck
 ----------------------------------------------------------------------

 ---------------------------------------
 CID_108482467_JID_8556_Energie_neutraal
 ---------------------------------------
 Structure from the checkpoint file:  "JID_8556.chk"
 Charge =  0 Multiplicity = 1

 SCF Done:  E(RB3LYP) =  -1235.17547044     A.U. after   16 cycles
 Normal termination of Gaussian 16 at Fri Dec 11 21:46:30 2020.

 ----------------------------------------------------------------------
 # B3LYP/6-311++G(d,p) empiricaldispersion=gd3bj scf=xqc pop=npa geom=c
 heck
 ----------------------------------------------------------------------

 -------------------------------------
 CID_108482467_JID_8556_Energie_kation
 -------------------------------------
 Structure from the checkpoint file:  "JID_8556.chk"
 Charge =  1 Multiplicity = 2

 SCF Done:  E(UB3LYP) =  -1234.86755244     A.U. after   26 cycles
 Normal termination of Gaussian 16 at Fri Dec 11 22:00:01 2020.
 Gaussian 16:  ES64L-G16RevA.03 25-Dec-2016

 ----------------------------------------------------------------------
 # B3LYP/6-311++G(d,p) empiricaldispersion=gd3bj scf=xqc pop=npa geom=c
 heck
 ----------------------------------------------------------------------

 ------------------------------------
 CID_108482467_JID_8556_Energie_anion
 ------------------------------------
 Structure from the checkpoint file:  "JID_8556.chk"
 Charge = -1 Multiplicity = 2

                         Standard orientation:
 ---------------------------------------------------------------------
 Center     Atomic      Atomic             Coordinates (Angstroms)
 Number     Number       Type             X           Y           Z
 ---------------------------------------------------------------------
      1          6           0       -2.212187    3.968691   -0.566664
      2          6           0       -2.158784    2.509968   -0.239667
      3          7           0       -2.020638    2.126158    1.010818
      4          8           0       -2.019545    0.711029    0.970012
      5          6           0       -2.128259    0.318524   -0.310898
      6          6           0       -2.220856    1.403056   -1.136586
      7          7           0       -2.150588   -1.044445   -0.551344
      8         16           0       -0.987901   -2.109207    0.181988
      9          8           0       -1.334860   -2.228236    1.590349
     10          8           0       -0.992475   -3.250091   -0.734128
     11          6           0        0.556678   -1.245318    0.046159
     12          6           0        1.345857   -1.427604   -1.096211
     13          6           0        2.525649   -0.714564   -1.225021
     14          6           0        2.918198    0.187951   -0.220878
     15          6           0        2.122405    0.361924    0.920329
     16          6           0        0.938669   -0.359648    1.052629
     17          8           0        4.084325    0.840067   -0.447568
     18          6           0        4.543625    1.762422    0.533110
     19          1           0       -2.109292    4.560391    0.346003
     20          1           0       -1.407676    4.243619   -1.257879
     21          1           0       -3.163618    4.225182   -1.045671
     22          1           0       -2.303965    1.416920   -2.212635
     23          1           0       -2.263850   -1.293131   -1.529108
     24          1           0        1.038288   -2.136232   -1.857420
     25          1           0        3.168541   -0.837833   -2.089843
     26          1           0        2.412194    1.048676    1.705580
     27          1           0        0.313839   -0.234958    1.928667
     28          1           0        3.828752    2.582268    0.674707
     29          1           0        4.723215    1.265168    1.494130
     30          1           0        5.483045    2.160676    0.148221
 ---------------------------------------------------------------------

 SCF Done:  E(UB3LYP) =  -1235.17608018     A.U. after   33 cycles
 SCF Done:  E(UB3LYP) =  -1235.17608018     a.u. after    1 cycles

 The electronic state is 2-A.
 Alpha  occ. eigenvalues --  -88.94249 -19.09325 -19.04903 -19.00653 -19.00368
 Alpha  occ. eigenvalues --  -14.24997 -14.24447 -10.17108 -10.12587 -10.11562
 Alpha  occ. eigenvalues --  -10.11300 -10.08752 -10.07402 -10.07163 -10.07155
 Alpha  occ. eigenvalues --  -10.06356 -10.06272 -10.06234  -8.00487  -5.96826
 Alpha  occ. eigenvalues --   -5.96735  -5.96523  -1.03503  -1.00690  -0.96728
 Alpha  occ. eigenvalues --   -0.90098  -0.83942  -0.76944  -0.75032  -0.67955
 Alpha  occ. eigenvalues --   -0.66288  -0.64469  -0.63402  -0.60891  -0.55385
 Alpha  occ. eigenvalues --   -0.52149  -0.50921  -0.49490  -0.45936  -0.43964
 Alpha  occ. eigenvalues --   -0.43446  -0.41708  -0.39112  -0.38397  -0.37879
 Alpha  occ. eigenvalues --   -0.37219  -0.36905  -0.34634  -0.34085  -0.33168
 Alpha  occ. eigenvalues --   -0.32695  -0.32228  -0.31314  -0.30426  -0.30106
 Alpha  occ. eigenvalues --   -0.28218  -0.27928  -0.26184  -0.24768  -0.23777
 Alpha  occ. eigenvalues --   -0.22595  -0.22444  -0.21572  -0.20646  -0.20056
 Alpha  occ. eigenvalues --   -0.19695  -0.18866  -0.15323  -0.13692  -0.12313
 Alpha  occ. eigenvalues --    0.04228
 Alpha virt. eigenvalues --    0.05982   0.06304   0.07671   0.08738   0.09022
 Alpha virt. eigenvalues --    0.09057   0.09258   0.09563   0.10173   0.11087
 Alpha virt. eigenvalues --    0.11612   0.11920   0.12327   0.13213   0.13902

  Beta  occ. eigenvalues --  -88.94185 -19.09242 -19.04830 -19.00617 -19.00328
  Beta  occ. eigenvalues --  -14.24910 -14.24362 -10.17021 -10.12558 -10.11289
  Beta  occ. eigenvalues --  -10.11259 -10.08737 -10.07263 -10.07150 -10.07065
  Beta  occ. eigenvalues --  -10.06427 -10.06280 -10.06082  -8.00420  -5.96694
  Beta  occ. eigenvalues --   -5.96659  -5.96468  -1.03357  -1.00530  -0.96532
  Beta  occ. eigenvalues --   -0.90023  -0.83726  -0.76836  -0.74754  -0.67776
  Beta  occ. eigenvalues --   -0.65957  -0.64259  -0.63355  -0.60688  -0.55026
  Beta  occ. eigenvalues --   -0.52034  -0.50784  -0.49177  -0.45767  -0.43883
  Beta  occ. eigenvalues --   -0.43330  -0.41472  -0.38913  -0.38269  -0.37810
  Beta  occ. eigenvalues --   -0.36953  -0.36644  -0.34509  -0.33987  -0.33074
  Beta  occ. eigenvalues --   -0.32611  -0.32148  -0.31252  -0.30364  -0.29979
  Beta  occ. eigenvalues --   -0.28102  -0.27332  -0.26079  -0.24460  -0.23478
  Beta  occ. eigenvalues --   -0.22490  -0.21957  -0.21387  -0.20520  -0.19893
  Beta  occ. eigenvalues --   -0.19476  -0.18556  -0.14744  -0.13216  -0.11566
  Beta virt. eigenvalues --    0.06220   0.06780   0.07647   0.08396   0.08996
  Beta virt. eigenvalues --    0.09171   0.09461   0.09671   0.10186   0.10232
  Beta virt. eigenvalues --    0.11270   0.11554   0.11925   0.12393   0.13147

 Mulliken charges and spin densities:
               1          2
     1  C    0.082571  -0.650175
     2  C   -0.022229   0.244121
     3  N   -0.375838   0.056983
     4  O    0.136436   0.013226
     5  C   -0.129198  -0.116109
     6  C   -0.125843   0.178110
     7  N   -0.247502   0.047128
     8  S    0.378350   0.108999
     9  O   -0.156009   0.008887
    10  O   -0.207197   0.008271
    11  C   -0.120648  -0.119354
    12  C    0.054204   0.329819
    13  C   -0.380698  -0.095317
    14  C   -0.890636   0.381584
    15  C    0.107220  -0.202515
    16  C    0.135271  -0.125300
    17  O   -0.191253   0.045146
    18  C    0.334558  -0.661714
    19  H    0.045024   0.111016
    20  H    0.027408   0.131387
    21  H    0.027486   0.112952
    22  H    0.052502   0.105718
    23  H    0.282019   0.002352
    24  H    0.207475   0.016629
    25  H    0.116199   0.048220
    26  H    0.136470   0.045326
    27  H    0.209993   0.018677
    28  H   -0.146006   0.306132
    29  H    0.058241   0.085829
    30  H   -0.398368   0.563970
 Sum of Mulliken charges =  -1.00000   1.00000

 Dipole moment (field-independent basis, Debye):
    X=             -1.9345    Y=              1.0060    Z=             -3.4037  Tot=              4.0422
 Quadrupole moment (field-independent basis, Debye-Ang):
   XX=           -166.4777   YY=           -160.7236   ZZ=           -128.0035
   XY=            -10.4010   XZ=             10.6984   YZ=              1.3497

 Summary of Natural Population Analysis:

                                       Natural Population
                Natural  -----------------------------------------------
    Atom  No    Charge         Core      Valence    Rydberg      Total
 -----------------------------------------------------------------------
      C    1   -0.29769      0.99962     2.29361    0.00446     3.29769
      C    2    0.08363      0.99963     1.90174    0.01500     2.91637
      N    3   -0.08584      0.99967     2.57323    0.01294     3.58584
      O    4   -0.16506      0.99985     3.15662    0.00859     4.16506
      C    5    0.27300      0.99950     1.70921    0.01830     2.72700
      C    6   -0.19938      0.99944     2.19182    0.00811     3.19938
      N    7   -0.41502      0.99966     2.90215    0.01321     3.91502
      S    8    1.12531      4.99917     1.77642    0.09910     6.87469
      O    9   -0.44908      0.99990     3.44399    0.00518     4.44908
      O   10   -0.46899      0.99991     3.46406    0.00502     4.46899
      C   11   -0.14921      0.99937     2.13333    0.01651     3.14921
      C   12   -0.07159      0.99952     2.06242    0.00965     3.07159
      C   13   -0.13818      0.99953     2.12914    0.00951     3.13818
      C   14    0.21662      0.99940     1.77017    0.01381     2.78338
      C   15   -0.16642      0.99953     2.15794    0.00895     3.16642
      C   16   -0.04123      0.99952     2.03185    0.00986     3.04123
      O   17   -0.26763      0.99985     3.25784    0.00993     4.26763
      C   18   -0.10142      0.99960     2.09269    0.00913     3.10142
      H   19    0.11005      0.00000     0.38858    0.00137     0.38995
      H   20    0.10618      0.00000     0.39275    0.00107     0.39382
      H   21    0.10310      0.00000     0.39576    0.00113     0.39690
      H   22    0.10884      0.00000     0.39031    0.00084     0.39116
      H   23    0.20074      0.00000     0.29730    0.00196     0.29926
      H   24    0.10762      0.00000     0.39128    0.00110     0.39238
      H   25    0.10309      0.00000     0.39586    0.00105     0.39691
      H   26    0.10380      0.00000     0.39499    0.00122     0.39620
      H   27    0.11372      0.00000     0.38485    0.00143     0.38628
      H   28    0.08707      0.00000     0.41116    0.00177     0.41293
      H   29    0.08200      0.00000     0.41679    0.00121     0.41800
      H   30    0.09196      0.00000     0.40676    0.00128     0.40804
 =======================================================================
   * Total *    0.00000     21.99268    47.71462    0.29270    70.00000

 Normal termination of Gaussian 16 at Fri Dec 11 22:17:20 2020.
