 Gaussian 16, Revision A.03,

 -----------------------------------------------------------
 # opt freq B3LYP/6-31G(d) empiricaldispersion=gd3bj scf=xqc
 -----------------------------------------------------------

 -------------------------------
 CID_63845132_JID_10176_neutraal
 -------------------------------
 Symbolic Z-matrix:
 Charge =  0 Multiplicity = 1

 SCF Done:  E(RB3LYP) =  -904.015354384     A.U. after   15 cycles
 SCF Done:  E(RB3LYP) =  -903.106255494     A.U. after   19 cycles
 SCF Done:  E(RB3LYP) =  -904.015422662     A.U. after   13 cycles
 SCF Done:  E(RB3LYP) =  -904.018893394     A.U. after   11 cycles
 SCF Done:  E(RB3LYP) =  -904.020620609     A.U. after   11 cycles
 SCF Done:  E(RB3LYP) =  -904.020622790     A.U. after   13 cycles
 SCF Done:  E(RB3LYP) =  -904.021402037     A.U. after   10 cycles
 SCF Done:  E(RB3LYP) =  -904.021959612     A.U. after   12 cycles
 SCF Done:  E(RB3LYP) =  -904.021936130     A.U. after   13 cycles
 SCF Done:  E(RB3LYP) =  -904.022753635     A.U. after   12 cycles
 SCF Done:  E(RB3LYP) =  -904.024033561     A.U. after    8 cycles
 SCF Done:  E(RB3LYP) =  -904.024033614     A.U. after    8 cycles
 SCF Done:  E(RB3LYP) =  -904.024033643     A.U. after    7 cycles
 SCF Done:  E(RB3LYP) =  -904.024033673     A.U. after    7 cycles
 SCF Done:  E(RB3LYP) =  -904.024033691     A.U. after    6 cycles
 Optimization completed.
    -- Stationary point found.
 Normal termination of Gaussian 16 at Sat Dec 12 15:57:10 2020.

 --------------------------------------------------------------------
 #N Geom=AllCheck Guess=TCheck SCRF=Check GenChk RB3LYP/6-31G(d) Freq
 --------------------------------------------------------------------

 Structure from the checkpoint file:  "JID_10176.chk"
 -------------------------------
 CID_63845132_JID_10176_neutraal
 -------------------------------
 Charge =  0 Multiplicity = 1

 SCF Done:  E(RB3LYP) =  -904.024033691     A.U. after    1 cycles

  Exact polarizability: 211.124  17.573 155.183 -11.561  11.691 153.317
 Approx polarizability: 296.339  31.683 223.329 -18.653  31.525 270.934

                      1                      2                      3
                      A                      A                      A
 Frequencies --     23.2245                37.0272                42.7055
 Red. masses --      3.1319                 4.1499                 4.4805
 Frc consts  --      0.0010                 0.0034                 0.0048
 IR Inten    --      1.0347                 0.4665                 3.8301

                      4                      5                      6
                      A                      A                      A
 Frequencies --     55.2869                77.2580                84.3461
 Red. masses --      3.0601                 3.4824                 5.0281
 Frc consts  --      0.0055                 0.0122                 0.0211
 IR Inten    --      0.1142                 1.8271                 0.6803

                      7                      8                      9
                      A                      A                      A
 Frequencies --    105.7527               113.5265               130.7567
 Red. masses --      1.6351                 2.5359                 3.4788
 Frc consts  --      0.0108                 0.0193                 0.0350
 IR Inten    --      0.7913                 3.1676                 5.6258

                     10                     11                     12
                      A                      A                      A
 Frequencies --    155.9999               177.7278               205.6959
 Red. masses --      3.2647                 3.3688                 3.1404
 Frc consts  --      0.0468                 0.0627                 0.0783
 IR Inten    --      2.4200                 7.9376                 0.7576

                     13                     14                     15
                      A                      A                      A
 Frequencies --    224.2796               249.0716               269.9639
 Red. masses --      3.1082                 2.0191                 1.5429
 Frc consts  --      0.0921                 0.0738                 0.0663
 IR Inten    --      3.5400                 1.7109                 1.2735

                     16                     17                     18
                      A                      A                      A
 Frequencies --    276.7883               307.8108               322.9807
 Red. masses --      2.5401                 2.8932                 2.4927
 Frc consts  --      0.1147                 0.1615                 0.1532
 IR Inten    --      0.3487                 1.1942                 5.8658

                     19                     20                     21
                      A                      A                      A
 Frequencies --    365.7383               382.4228               395.3072
 Red. masses --      3.1270                 4.2103                 2.5067
 Frc consts  --      0.2464                 0.3628                 0.2308
 IR Inten    --      3.4697                 3.4891                 0.0841

                     22                     23                     24
                      A                      A                      A
 Frequencies --    415.8047               431.9537               439.1044
 Red. masses --      5.1488                 3.2356                 3.4494
 Frc consts  --      0.5245                 0.3557                 0.3919
 IR Inten    --      2.4688                 0.1526                 5.4559

                     25                     26                     27
                      A                      A                      A
 Frequencies --    468.3426               474.3827               519.0185
 Red. masses --      3.2440                 3.1442                 2.5051
 Frc consts  --      0.4192                 0.4169                 0.3976
 IR Inten    --      1.1693                 2.0283                12.4110

                     28                     29                     30
                      A                      A                      A
 Frequencies --    531.6990               567.1812               570.8572
 Red. masses --      3.2437                 2.4513                 2.6005
 Frc consts  --      0.5403                 0.4646                 0.4993
 IR Inten    --      4.9205                 7.4532                 1.9468

                     31                     32                     33
                      A                      A                      A
 Frequencies --    593.8553               651.6908               655.2382
 Red. masses --      2.8526                 2.5562                 6.8231
 Frc consts  --      0.5927                 0.6396                 1.7260
 IR Inten    --      0.6819                 2.0021                 0.1523

                     34                     35                     36
                      A                      A                      A
 Frequencies --    707.2058               724.1980               742.1164
 Red. masses --      4.5683                 4.1209                 2.6037
 Frc consts  --      1.3462                 1.2734                 0.8449
 IR Inten    --     13.7116                12.5026                 1.4012

                     37                     38                     39
                      A                      A                      A
 Frequencies --    757.5505               811.1326               833.6800
 Red. masses --      2.9019                 1.2559                 2.5046
 Frc consts  --      0.9812                 0.4868                 1.0256
 IR Inten    --     20.3243                 1.2218                34.1105

                     40                     41                     42
                      A                      A                      A
 Frequencies --    844.4369               850.1731               893.0265
 Red. masses --      2.1887                 2.1987                 2.4329
 Frc consts  --      0.9195                 0.9363                 1.1432
 IR Inten    --     30.3161                13.9008                13.6470

                     43                     44                     45
                      A                      A                      A
 Frequencies --    908.0053               922.2291               932.4386
 Red. masses --      2.3014                 1.3240                 2.2927
 Frc consts  --      1.1179                 0.6635                 1.1745
 IR Inten    --      1.9224                 1.1196                 0.8428

                     46                     47                     48
                      A                      A                      A
 Frequencies --    946.0991               965.6177               995.0093
 Red. masses --      1.3085                 2.1884                 1.7061
 Frc consts  --      0.6901                 1.2022                 0.9952
 IR Inten    --      1.1864                22.5476                 9.1874

                     49                     50                     51
                      A                      A                      A
 Frequencies --   1016.0189              1029.8778              1033.0481
 Red. masses --      1.8710                 2.4927                 1.8016
 Frc consts  --      1.1380                 1.5577                 1.1328
 IR Inten    --      5.2957                 0.3544                 1.2436

                     52                     53                     54
                      A                      A                      A
 Frequencies --   1053.2468              1063.9375              1077.7803
 Red. masses --      1.7551                 2.0395                 4.5528
 Frc consts  --      1.1471                 1.3602                 3.1160
 IR Inten    --      2.8841                 4.0970                16.0385

                     55                     56                     57
                      A                      A                      A
 Frequencies --   1087.7475              1106.1209              1125.0941
 Red. masses --      4.9478                 2.2015                 2.0931
 Frc consts  --      3.4492                 1.5870                 1.5610
 IR Inten    --    112.5734                11.2684                11.4057

                     58                     59                     60
                      A                      A                      A
 Frequencies --   1140.5701              1142.7850              1187.4762
 Red. masses --      2.5192                 1.2828                 1.5863
 Frc consts  --      1.9309                 0.9871                 1.3179
 IR Inten    --      6.7314                14.4929                23.2459

                     61                     62                     63
                      A                      A                      A
 Frequencies --   1188.2354              1194.4301              1199.2850
 Red. masses --      1.3313                 1.9554                 1.1646
 Frc consts  --      1.1075                 1.6437                 0.9869
 IR Inten    --      8.5681                11.7128                 3.7954

                     64                     65                     66
                      A                      A                      A
 Frequencies --   1210.1810              1218.9305              1244.2683
 Red. masses --      1.8371                 1.4107                 1.4299
 Frc consts  --      1.5852                 1.2349                 1.3043
 IR Inten    --     40.4409                17.0032                35.5844

                     67                     68                     69
                      A                      A                      A
 Frequencies --   1259.2167              1264.3254              1273.5628
 Red. masses --      1.6514                 1.7308                 1.4204
 Frc consts  --      1.5428                 1.6301                 1.3573
 IR Inten    --    160.1568               168.2835                33.3859

                     70                     71                     72
                      A                      A                      A
 Frequencies --   1292.0182              1320.3101              1334.8539
 Red. masses --      2.9285                 1.4731                 1.3712
 Frc consts  --      2.8803                 1.5130                 1.4395
 IR Inten    --     39.2624                 3.1141                18.1872

                     73                     74                     75
                      A                      A                      A
 Frequencies --   1337.1112              1338.2954              1357.1064
 Red. masses --      1.4388                 1.3427                 1.6248
 Frc consts  --      1.5157                 1.4169                 1.7631
 IR Inten    --      4.6772                 0.5753                 8.4733

                     76                     77                     78
                      A                      A                      A
 Frequencies --   1360.4439              1365.5714              1385.1797
 Red. masses --      4.5067                 1.6704                 1.3510
 Frc consts  --      4.9144                 1.8353                 1.5272
 IR Inten    --     37.4840                18.4073                11.6169

                     79                     80                     81
                      A                      A                      A
 Frequencies --   1405.4399              1411.3454              1420.2782
 Red. masses --      1.3849                 1.4355                 1.3063
 Frc consts  --      1.6117                 1.6847                 1.5525
 IR Inten    --      3.9207                43.5155                16.8792

                     82                     83                     84
                      A                      A                      A
 Frequencies --   1422.2325              1436.7106              1447.3104
 Red. masses --      1.2859                 1.4074                 1.4648
 Frc consts  --      1.5325                 1.7116                 1.8078
 IR Inten    --     11.3000                 7.4540                11.9072

                     85                     86                     87
                      A                      A                      A
 Frequencies --   1469.6673              1498.8589              1502.9330
 Red. masses --      3.2245                 1.1842                 1.1090
 Frc consts  --      4.1035                 1.5675                 1.4760
 IR Inten    --      1.0846                22.6210                 7.6439

                     88                     89                     90
                      A                      A                      A
 Frequencies --   1505.8798              1511.5072              1518.7394
 Red. masses --      1.0654                 1.0970                 1.0752
 Frc consts  --      1.4235                 1.4767                 1.4611
 IR Inten    --      2.2929                 4.8007                 8.5101

                     91                     92                     93
                      A                      A                      A
 Frequencies --   1519.7429              1523.5433              1528.7148
 Red. masses --      1.0482                 1.0830                 1.0995
 Frc consts  --      1.4264                 1.4812                 1.5139
 IR Inten    --      4.5035                 2.4369                 6.9745

                     94                     95                     96
                      A                      A                      A
 Frequencies --   1537.3363              1543.0547              1560.9993
 Red. masses --      1.0716                 1.0828                 1.2939
 Frc consts  --      1.4921                 1.5190                 1.8576
 IR Inten    --     52.0575                 0.7133                32.9095

                     97                     98                     99
                      A                      A                      A
 Frequencies --   1563.2621              1642.1680              1678.1604
 Red. masses --      1.7694                 6.9225                 6.0344
 Frc consts  --      2.5476                10.9988                10.0127
 IR Inten    --    193.4789                 2.9511                 1.5718

                    100                    101                    102
                      A                      A                      A
 Frequencies --   1801.0343              2908.8920              2918.6442
 Red. masses --     10.9782                 1.0727                 1.0744
 Frc consts  --     20.9809                 5.3478                 5.3921
 IR Inten    --    106.6106                72.1959               167.9978

                    103                    104                    105
                      A                      A                      A
 Frequencies --   2962.1310              3017.4820              3020.6412
 Red. masses --      1.0747                 1.0825                 1.0353
 Frc consts  --      5.5560                 5.8073                 5.5658
 IR Inten    --     96.3692                17.3555                54.5936

                    106                    107                    108
                      A                      A                      A
 Frequencies --   3045.9492              3055.8990              3060.0604
 Red. masses --      1.0822                 1.0651                 1.0396
 Frc consts  --      5.9157                 5.8601                 5.7358
 IR Inten    --      8.4582                45.0995                 7.8367

                    109                    110                    111
                      A                      A                      A
 Frequencies --   3063.5240              3068.5049              3078.0267
 Red. masses --      1.0594                 1.0693                 1.1059
 Frc consts  --      5.8580                 5.9318                 6.1732
 IR Inten    --     27.5530                62.5441                49.4192

                    112                    113                    114
                      A                      A                      A
 Frequencies --   3081.5542              3093.2008              3114.1112
 Red. masses --      1.0860                 1.0864                 1.1030
 Frc consts  --      6.0759                 6.1240                 6.3022
 IR Inten    --      7.8085                39.5928                22.3486

                    115                    116                    117
                      A                      A                      A
 Frequencies --   3114.3951              3119.3525              3133.3856
 Red. masses --      1.1024                 1.0985                 1.1006
 Frc consts  --      6.2997                 6.2974                 6.3668
 IR Inten    --     47.1308                16.6702                 6.1952

                    118                    119                    120
                      A                      A                      A
 Frequencies --   3146.6903              3156.8422              3207.1018
 Red. masses --      1.1037                 1.0993                 1.0882
 Frc consts  --      6.4391                 6.4548                 6.5947
 IR Inten    --     15.0797                25.9655                10.7915

                    121                    122                    123
                      A                      A                      A
 Frequencies --   3215.6841              3227.3834              3230.2026
 Red. masses --      1.0875                 1.0925                 1.0944
 Frc consts  --      6.6256                 6.7043                 6.7283
 IR Inten    --      8.0639                10.5740                 2.1273

 - Thermochemistry -
 -------------------
 Temperature   298.150 Kelvin.  Pressure   1.00000 Atm.
 Atom     1 has atomic number  6 and mass  12.00000

 Molecular mass:   277.16779 amu.
 Principal axes and moments of inertia in atomic units:
                           1         2         3
     Eigenvalues --  4221.351465296.826847736.58225
           X            0.99988   0.00628  -0.01431
           Y           -0.00636   0.99997  -0.00531
           Z            0.01427   0.00540   0.99988
 This molecule is an asymmetric top.
 Rotational symmetry number  1.
 Warning -- assumption of classical behavior for rotation
           may cause significant error
 Rotational temperatures (Kelvin)      0.02052     0.01635     0.01120
 Rotational constants (GHZ):           0.42753     0.34072     0.23327
 Zero-point vibrational energy     980048.6 (Joules/Mol)
                                  234.23723 (Kcal/Mol)
 Warning -- explicit consideration of  31 degrees of freedom as
           vibrations may cause significant error
 Vibrational temperatures:     33.41    53.27    61.44    79.55   111.16
          (Kelvin)            121.36   152.15   163.34   188.13   224.45
                              255.71   295.95   322.69   358.36   388.42
                              398.24   442.87   464.70   526.22   550.22
                              568.76   598.25   621.48   631.77   673.84
                              682.53   746.75   765.00   816.05   821.34
                              854.43   937.64   942.74  1017.51  1041.96
                             1067.74  1089.95  1167.04  1199.48  1214.96
                             1223.21  1284.87  1306.42  1326.88  1341.57
                             1361.23  1389.31  1431.60  1461.82  1481.76
                             1486.33  1515.39  1530.77  1550.69  1565.03
                             1591.46  1618.76  1641.03  1644.21  1708.51
                             1709.61  1718.52  1725.50  1741.18  1753.77
                             1790.22  1811.73  1819.08  1832.37  1858.93
                             1899.63  1920.56  1923.80  1925.51  1952.57
                             1957.38  1964.75  1992.96  2022.11  2030.61
                             2043.46  2046.28  2067.11  2082.36  2114.52
                             2156.52  2162.39  2166.63  2174.72  2185.13
                             2186.57  2192.04  2199.48  2211.88  2220.11
                             2245.93  2249.19  2362.71  2414.50  2591.29
                             4185.25  4199.28  4261.85  4341.48  4346.03
                             4382.44  4396.76  4402.74  4407.73  4414.89
                             4428.59  4433.67  4450.43  4480.51  4480.92
                             4488.05  4508.24  4527.39  4541.99  4614.30
                             4626.65  4643.48  4647.54

 Zero-point correction=                           0.373281 (Hartree/Particle)
 Thermal correction to Energy=                    0.392875
 Thermal correction to Enthalpy=                  0.393819
 Thermal correction to Gibbs Free Energy=         0.324295
 Sum of electronic and zero-point Energies=           -903.650753
 Sum of electronic and thermal Energies=              -903.631159
 Sum of electronic and thermal Enthalpies=            -903.630215
 Sum of electronic and thermal Free Energies=         -903.699739

                     E (Thermal)             CV                S
                      KCal/Mol        Cal/Mol-Kelvin    Cal/Mol-Kelvin
 Total                  246.533             74.950            146.325
 Electronic               0.000              0.000              0.000
 Translational            0.889              2.981             42.757
 Rotational               0.889              2.981             33.514
 Vibrational            244.755             68.988             70.054
 Vibration     1          0.593              1.985              6.337
 Vibration     2          0.594              1.982              5.412
 Vibration     3          0.595              1.980              5.129
 Vibration     4          0.596              1.975              4.619
 Vibration     5          0.599              1.964              3.959
 Vibration     6          0.601              1.960              3.787
 Vibration     7          0.605              1.945              3.345
 Vibration     8          0.607              1.938              3.208
 Vibration     9          0.612              1.923              2.935
 Vibration    10          0.620              1.896              2.598
 Vibration    11          0.628              1.870              2.352
 Vibration    12          0.640              1.832              2.082
 Vibration    13          0.649              1.804              1.924
 Vibration    14          0.662              1.764              1.737
 Vibration    15          0.674              1.728              1.596
 Vibration    16          0.678              1.716              1.553
 Vibration    17          0.698              1.659              1.374
 Vibration    18          0.708              1.629              1.295
 Vibration    19          0.739              1.543              1.098
 Vibration    20          0.752              1.508              1.030
 Vibration    21          0.762              1.480              0.980
 Vibration    22          0.779              1.436              0.906
 Vibration    23          0.793              1.401              0.852
 Vibration    24          0.799              1.385              0.829
 Vibration    25          0.826              1.320              0.742
 Vibration    26          0.831              1.307              0.725
 Vibration    27          0.874              1.208              0.612
 Vibration    28          0.887              1.180              0.583
 Vibration    29          0.923              1.102              0.510
 Vibration    30          0.927              1.094              0.503
 Vibration    31          0.951              1.045              0.460

                           ! Non-Optimized Parameters !
 Normal termination of Gaussian 16 at Sat Dec 12 16:26:11 2020.

 ----------------------------------------------------------------------
 # B3LYP/6-311++G(d,p) empiricaldispersion=gd3bj scf=xqc pop=npa geom=c
 heck
 ----------------------------------------------------------------------

 ---------------------------------------
 CID_63845132_JID_10176_Energie_neutraal
 ---------------------------------------
 Structure from the checkpoint file:  "JID_10176.chk"
 Charge =  0 Multiplicity = 1

 SCF Done:  E(RB3LYP) =  -904.272144497     A.U. after   15 cycles
 Normal termination of Gaussian 16 at Sat Dec 12 16:39:36 2020.

 ----------------------------------------------------------------------
 # B3LYP/6-311++G(d,p) empiricaldispersion=gd3bj scf=xqc pop=npa geom=c
 heck
 ----------------------------------------------------------------------

 -------------------------------------
 CID_63845132_JID_10176_Energie_kation
 -------------------------------------
 Structure from the checkpoint file:  "JID_10176.chk"
 Charge =  1 Multiplicity = 2

 SCF Done:  E(UB3LYP) =  -904.021689788     A.U. after   22 cycles
 Normal termination of Gaussian 16 at Sat Dec 12 17:06:41 2020.
 Gaussian 16:  ES64L-G16RevA.03 25-Dec-2016

 ----------------------------------------------------------------------
 # B3LYP/6-311++G(d,p) empiricaldispersion=gd3bj scf=xqc pop=npa geom=c
 heck
 ----------------------------------------------------------------------

 ------------------------------------
 CID_63845132_JID_10176_Energie_anion
 ------------------------------------
 Structure from the checkpoint file:  "JID_10176.chk"
 Charge = -1 Multiplicity = 2

                         Standard orientation:
 ---------------------------------------------------------------------
 Center     Atomic      Atomic             Coordinates (Angstroms)
 Number     Number       Type             X           Y           Z
 ---------------------------------------------------------------------
      1          6           0       -2.022385   -2.602322    0.066867
      2          6           0       -0.610254   -2.480724   -0.484943
      3          8           0       -0.417459   -2.380371   -1.683766
      4          6           0        0.530714   -2.508624    0.526933
      5          6           0        0.383427   -1.329326    1.544161
      6          6           0        1.707123   -0.580184    1.724363
      7          7           0        2.167066   -0.105543    0.434493
      8          6           0        2.339478   -1.111636   -0.613270
      9          6           0        1.908298   -2.505025   -0.148169
     10          6           0        3.107596    0.988425    0.401441
     11          6           0        2.741321    2.030659   -0.656917
     12          8           0        1.582934    2.777158   -0.285195
     13          6           0        0.356132    2.154984   -0.314925
     14          6           0       -0.084221    1.355236   -1.377543
     15          6           0       -1.357263    0.803596   -1.354571
     16          6           0       -2.223822    1.062428   -0.284745
     17          6           0       -1.799212    1.878529    0.765986
     18          6           0       -0.508754    2.416177    0.745074
     19          8           0       -3.458073    0.460568   -0.357314
     20          6           0       -4.353531    0.672480    0.718721
     21          1           0       -2.518557   -3.443697   -0.428814
     22          1           0       -2.591649   -1.699390   -0.176168
     23          1           0       -2.043023   -2.758473    1.149145
     24          1           0        0.415527   -3.453152    1.078271
     25          1           0       -0.350066   -0.602698    1.181016
     26          1           0        0.029795   -1.696871    2.513697
     27          1           0        1.531448    0.293934    2.360083
     28          1           0        2.440825   -1.219366    2.254939
     29          1           0        3.397847   -1.155735   -0.925295
     30          1           0        1.754098   -0.838665   -1.500553
     31          1           0        2.647141   -2.896313    0.560382
     32          1           0        1.897555   -3.175410   -1.012049
     33          1           0        3.108678    1.491627    1.374326
     34          1           0        4.144700    0.645253    0.209108
     35          1           0        3.538183    2.775389   -0.744858
     36          1           0        2.614002    1.559159   -1.639245
     37          1           0        0.569159    1.142970   -2.216071
     38          1           0       -1.691847    0.152235   -2.154424
     39          1           0       -2.449363    2.098292    1.604663
     40          1           0       -0.159183    3.043678    1.558571
     41          1           0       -3.940336    0.300819    1.666550
     42          1           0       -4.603687    1.735819    0.830645
     43          1           0       -5.257816    0.112529    0.474046
 ---------------------------------------------------------------------

 SCF Done:  E(UB3LYP) =  -904.262000487     A.U. after   33 cycles
 SCF Done:  E(UB3LYP) =  -904.262000487     a.u. after    1 cycles

 The electronic state is 2-A.
 Alpha  occ. eigenvalues --  -19.06082 -19.05441 -19.00894 -14.20683 -10.15619
 Alpha  occ. eigenvalues --  -10.13958 -10.13768 -10.13526 -10.12785 -10.11156
 Alpha  occ. eigenvalues --  -10.09881 -10.09813 -10.08353 -10.08302 -10.08278
 Alpha  occ. eigenvalues --  -10.08041 -10.07968 -10.07214 -10.07051 -10.06560
 Alpha  occ. eigenvalues --   -0.97517  -0.96998  -0.94222  -0.83710  -0.76254
 Alpha  occ. eigenvalues --   -0.71780  -0.67974  -0.66293  -0.66083  -0.65039
 Alpha  occ. eigenvalues --   -0.63295  -0.60230  -0.56934  -0.54402  -0.53163
 Alpha  occ. eigenvalues --   -0.52298  -0.48927  -0.46114  -0.45052  -0.42939
 Alpha  occ. eigenvalues --   -0.42108  -0.41608  -0.40217  -0.39983  -0.38253
 Alpha  occ. eigenvalues --   -0.37900  -0.36464  -0.35970  -0.35570  -0.34381
 Alpha  occ. eigenvalues --   -0.34219  -0.33275  -0.32829  -0.32423  -0.32120
 Alpha  occ. eigenvalues --   -0.31479  -0.30548  -0.29987  -0.29305  -0.28580
 Alpha  occ. eigenvalues --   -0.27884  -0.27406  -0.26719  -0.26313  -0.25354
 Alpha  occ. eigenvalues --   -0.24407  -0.24140  -0.23201  -0.22735  -0.22276
 Alpha  occ. eigenvalues --   -0.19886  -0.16659  -0.15030  -0.12823  -0.10260
 Alpha  occ. eigenvalues --    0.03995
 Alpha virt. eigenvalues --    0.05845   0.06141   0.07177   0.07349   0.07558
 Alpha virt. eigenvalues --    0.08132   0.08213   0.08905   0.09046   0.09250
 Alpha virt. eigenvalues --    0.09983   0.10179   0.10854   0.10961   0.11313

  Beta  occ. eigenvalues --  -19.06075 -19.05440 -19.00861 -14.20676 -10.15577
  Beta  occ. eigenvalues --  -10.13955 -10.13769 -10.13526 -10.12743 -10.11148
  Beta  occ. eigenvalues --  -10.09864 -10.09808 -10.08352 -10.08287 -10.08272
  Beta  occ. eigenvalues --  -10.08039 -10.07960 -10.07199 -10.07024 -10.06544
  Beta  occ. eigenvalues --   -0.97500  -0.96994  -0.94151  -0.83692  -0.76244
  Beta  occ. eigenvalues --   -0.71742  -0.67953  -0.66266  -0.66062  -0.65007
  Beta  occ. eigenvalues --   -0.63254  -0.60189  -0.56905  -0.54354  -0.53134
  Beta  occ. eigenvalues --   -0.52269  -0.48902  -0.46050  -0.45029  -0.42915
  Beta  occ. eigenvalues --   -0.42081  -0.41559  -0.40172  -0.39953  -0.38231
  Beta  occ. eigenvalues --   -0.37872  -0.36439  -0.35945  -0.35511  -0.34351
  Beta  occ. eigenvalues --   -0.34177  -0.33248  -0.32784  -0.32397  -0.32096
  Beta  occ. eigenvalues --   -0.31448  -0.30520  -0.29964  -0.29280  -0.28557
  Beta  occ. eigenvalues --   -0.27862  -0.27379  -0.26668  -0.26293  -0.25269
  Beta  occ. eigenvalues --   -0.24378  -0.24096  -0.23163  -0.22719  -0.22222
  Beta  occ. eigenvalues --   -0.19870  -0.16638  -0.14995  -0.12797  -0.10224
  Beta virt. eigenvalues --    0.05926   0.06624   0.06938   0.07385   0.07570
  Beta virt. eigenvalues --    0.07805   0.08397   0.08623   0.09329   0.09437
  Beta virt. eigenvalues --    0.09542   0.10157   0.10466   0.10965   0.11372

 Mulliken charges and spin densities:
               1          2
     1  C   -0.332279  -0.343335
     2  C   -0.041545   0.111342
     3  O   -0.249013   0.016696
     4  C    0.087745   0.253565
     5  C   -0.852906   0.417004
     6  C    0.711291  -1.044245
     7  N    0.231231   0.057260
     8  C   -0.424547   0.050646
     9  C    0.251893  -0.874912
    10  C    0.040618  -0.319068
    11  C   -0.184230   0.042136
    12  O   -0.035736   0.001001
    13  C   -0.634098  -0.462482
    14  C    0.362859   0.025922
    15  C   -0.181332   0.370110
    16  C   -1.228385   0.219567
    17  C    0.649165  -0.490658
    18  C    0.248808   0.035082
    19  O   -0.082284   0.014127
    20  C    0.950459  -1.290759
    21  H   -0.090730   0.262803
    22  H    0.329529  -0.128807
    23  H   -0.185829   0.348077
    24  H   -0.234100   0.482563
    25  H    1.445514  -1.223817
    26  H   -0.626096   0.838247
    27  H   -0.178060   0.328019
    28  H   -0.162006   0.297461
    29  H    0.034155   0.073144
    30  H    0.107892   0.054649
    31  H   -0.175641   0.338204
    32  H    0.111565   0.087030
    33  H    0.197827  -0.027689
    34  H   -0.065551   0.155295
    35  H    0.036072   0.123347
    36  H    0.139506  -0.011418
    37  H    0.108858   0.036929
    38  H    0.197095   0.033737
    39  H   -0.410916   0.607113
    40  H   -0.069011   0.258969
    41  H   -0.318070   0.489644
    42  H   -0.227191   0.374561
    43  H   -0.252524   0.412941
 Sum of Mulliken charges =  -1.00000   1.00000

 Dipole moment (field-independent basis, Debye):
    X=              4.8334    Y=              3.2264    Z=             -5.0125  Tot=              7.6744
 Quadrupole moment (field-independent basis, Debye-Ang):
   XX=           -185.5570   YY=           -180.1164   ZZ=           -169.3002
   XY=              6.9131   XZ=              5.5254   YZ=              3.4832

 Summary of Natural Population Analysis:

                                       Natural Population
                Natural  -----------------------------------------------
    Atom  No    Charge         Core      Valence    Rydberg      Total
 -----------------------------------------------------------------------
      C    1   -0.34213      0.99960     2.33591    0.00662     3.34213
      C    2    0.31010      0.99965     1.66867    0.02159     2.68990
      O    3   -0.29618      0.99987     3.28985    0.00647     4.29618
      C    4   -0.15435      0.99954     2.14269    0.01212     3.15435
      C    5   -0.19306      0.99960     2.18238    0.01108     3.19306
      C    6   -0.07365      0.99960     2.06334    0.01072     3.07365
      N    7   -0.29429      0.99969     2.78095    0.01364     3.79429
      C    8   -0.07864      0.99961     2.06892    0.01011     3.07864
      C    9   -0.19671      0.99962     2.18715    0.00994     3.19671
      C   10   -0.08898      0.99961     2.07846    0.01090     3.08898
      C   11   -0.00958      0.99955     1.99917    0.01085     3.00958
      O   12   -0.28696      0.99986     3.27824    0.00887     4.28696
      C   13    0.14654      0.99935     1.83956    0.01455     2.85346
      C   14   -0.11804      0.99950     2.11128    0.00726     3.11804
      C   15   -0.11274      0.99952     2.10364    0.00958     3.11274
      C   16    0.14355      0.99937     1.84355    0.01353     2.85645
      C   17   -0.13667      0.99952     2.12817    0.00898     3.13667
      C   18   -0.11406      0.99952     2.10402    0.01053     3.11406
      O   19   -0.27647      0.99986     3.26771    0.00891     4.27647
      C   20   -0.10130      0.99960     2.09240    0.00930     3.10130
      H   21    0.11148      0.00000     0.38759    0.00093     0.38852
      H   22    0.12187      0.00000     0.37633    0.00180     0.37813
      H   23    0.10412      0.00000     0.39439    0.00148     0.39588
      H   24    0.11379      0.00000     0.38381    0.00240     0.38621
      H   25    0.10326      0.00000     0.39180    0.00494     0.39674
      H   26    0.10392      0.00000     0.39376    0.00232     0.39608
      H   27    0.10002      0.00000     0.39865    0.00133     0.39998
      H   28    0.08037      0.00000     0.41816    0.00147     0.41963
      H   29    0.08327      0.00000     0.41549    0.00124     0.41673
      H   30    0.09525      0.00000     0.40334    0.00141     0.40475
      H   31    0.09925      0.00000     0.39947    0.00128     0.40075
      H   32    0.11015      0.00000     0.38886    0.00098     0.38985
      H   33    0.09953      0.00000     0.39914    0.00132     0.40047
      H   34    0.08195      0.00000     0.41618    0.00187     0.41805
      H   35    0.08859      0.00000     0.41033    0.00108     0.41141
      H   36    0.08208      0.00000     0.41672    0.00120     0.41792
      H   37    0.10210      0.00000     0.39650    0.00140     0.39790
      H   38    0.11192      0.00000     0.38678    0.00130     0.38808
      H   39    0.10901      0.00000     0.38956    0.00144     0.39099
      H   40    0.10566      0.00000     0.39315    0.00119     0.39434
      H   41    0.08762      0.00000     0.41026    0.00212     0.41238
      H   42    0.08446      0.00000     0.41402    0.00152     0.41554
      H   43    0.09394      0.00000     0.40500    0.00106     0.40606
 =======================================================================
   * Total *    0.00000     19.99204    54.75533    0.25263    75.00000

 Normal termination of Gaussian 16 at Sat Dec 12 17:46:11 2020.
