 Gaussian 16, Revision A.03,

 -----------------------------------------------------------
 # opt freq B3LYP/6-31G(d) empiricaldispersion=gd3bj scf=xqc
 -----------------------------------------------------------

 ------------------------------
 CID_84759595_JID_9508_neutraal
 ------------------------------
 Symbolic Z-matrix:
 Charge =  0 Multiplicity = 1

 SCF Done:  E(RB3LYP) =  -818.719984303     A.U. after   14 cycles
 SCF Done:  E(RB3LYP) =  -818.724767916     A.U. after   14 cycles
 SCF Done:  E(RB3LYP) =  -818.726428480     A.U. after   14 cycles
 SCF Done:  E(RB3LYP) =  -818.727685718     A.U. after   14 cycles
 SCF Done:  E(RB3LYP) =  -818.728008224     A.U. after   12 cycles
 SCF Done:  E(RB3LYP) =  -818.728143432     A.U. after   11 cycles
 SCF Done:  E(RB3LYP) =  -818.728187299     A.U. after   11 cycles
 SCF Done:  E(RB3LYP) =  -818.728240649     A.U. after   11 cycles
 SCF Done:  E(RB3LYP) =  -818.728249132     A.U. after    9 cycles
 SCF Done:  E(RB3LYP) =  -818.728250978     A.U. after    8 cycles
 SCF Done:  E(RB3LYP) =  -818.728251389     A.U. after    8 cycles
 SCF Done:  E(RB3LYP) =  -818.728251637     A.U. after    8 cycles
 SCF Done:  E(RB3LYP) =  -818.728251710     A.U. after    7 cycles
 Optimization completed.
    -- Stationary point found.
 Normal termination of Gaussian 16 at Sun Dec 13 12:41:33 2020.

 --------------------------------------------------------------------
 #N Geom=AllCheck Guess=TCheck SCRF=Check GenChk RB3LYP/6-31G(d) Freq
 --------------------------------------------------------------------

 Structure from the checkpoint file:  "JID_9508.chk"
 ------------------------------
 CID_84759595_JID_9508_neutraal
 ------------------------------
 Charge =  0 Multiplicity = 1

 SCF Done:  E(RB3LYP) =  -818.728251710     A.U. after    1 cycles

  Exact polarizability: 161.455  18.424 170.511 -10.178   0.062 152.708
 Approx polarizability: 236.777  33.032 260.541 -24.980 -10.710 266.902

                      1                      2                      3
                      A                      A                      A
 Frequencies --     29.5769                42.9305                52.7126
 Red. masses --      3.6549                 4.3933                 4.1657
 Frc consts  --      0.0019                 0.0048                 0.0068
 IR Inten    --      0.3018                 0.7642                 2.4222

                      4                      5                      6
                      A                      A                      A
 Frequencies --     67.2416                71.5543                82.1891
 Red. masses --      5.3280                 4.2465                 4.9032
 Frc consts  --      0.0142                 0.0128                 0.0195
 IR Inten    --      0.7362                 1.6993                 3.4989

                      7                      8                      9
                      A                      A                      A
 Frequencies --    146.5048               199.6797               204.7920
 Red. masses --      3.3234                 3.9078                 6.0411
 Frc consts  --      0.0420                 0.0918                 0.1493
 IR Inten    --      0.3477                 3.2399                 0.0278

                     10                     11                     12
                      A                      A                      A
 Frequencies --    247.1726               256.8904               279.0117
 Red. masses --      3.6267                 2.1138                 4.3677
 Frc consts  --      0.1305                 0.0822                 0.2003
 IR Inten    --      0.5131                 0.3361                 0.1977

                     13                     14                     15
                      A                      A                      A
 Frequencies --    324.7307               349.3101               350.6298
 Red. masses --      2.3864                 4.6484                 1.9674
 Frc consts  --      0.1483                 0.3342                 0.1425
 IR Inten    --      2.0712                 0.1320                 2.5704

                     16                     17                     18
                      A                      A                      A
 Frequencies --    403.8195               416.1621               440.7960
 Red. masses --      2.7518                 2.9895                 2.0371
 Frc consts  --      0.2644                 0.3050                 0.2332
 IR Inten    --      1.9170                 0.1870                 1.3951

                     19                     20                     21
                      A                      A                      A
 Frequencies --    468.3517               479.8698               495.4002
 Red. masses --      3.0428                 3.4539                 3.1633
 Frc consts  --      0.3932                 0.4686                 0.4574
 IR Inten    --      1.4375                 4.3024                14.5330

                     22                     23                     24
                      A                      A                      A
 Frequencies --    580.5508               591.6813               635.5201
 Red. masses --      2.8291                 2.5504                 6.1896
 Frc consts  --      0.5618                 0.5261                 1.4729
 IR Inten    --     14.4380                 3.4928                 0.4540

                     25                     26                     27
                      A                      A                      A
 Frequencies --    684.9828               712.5459               728.3111
 Red. masses --      5.3670                 2.8466                 4.2044
 Frc consts  --      1.4837                 0.8515                 1.3140
 IR Inten    --     13.2664                 8.1711                19.1706

                     28                     29                     30
                      A                      A                      A
 Frequencies --    746.2924               768.4994               797.1373
 Red. masses --      1.9540                 5.1700                 2.2978
 Frc consts  --      0.6412                 1.7990                 0.8602
 IR Inten    --     44.4515                 2.9761                40.4948

                     31                     32                     33
                      A                      A                      A
 Frequencies --    813.7370               821.3388               837.5304
 Red. masses --      3.5924                 1.7972                 2.5490
 Frc consts  --      1.4015                 0.7143                 1.0535
 IR Inten    --      0.6652                36.5589                 0.0464

                     34                     35                     36
                      A                      A                      A
 Frequencies --    840.0121               864.8715               902.1355
 Red. masses --      1.9074                 1.2492                 2.1096
 Frc consts  --      0.7930                 0.5505                 1.0116
 IR Inten    --      1.4405                 0.4021                 3.4191

                     37                     38                     39
                      A                      A                      A
 Frequencies --    921.0220               924.8287               950.8835
 Red. masses --      2.0638                 1.5072                 1.8153
 Frc consts  --      1.0315                 0.7595                 0.9670
 IR Inten    --      1.1087                 2.7409                 0.8775

                     40                     41                     42
                      A                      A                      A
 Frequencies --    963.7327               972.6338               999.9670
 Red. masses --      1.7462                 1.3481                 1.2643
 Frc consts  --      0.9555                 0.7514                 0.7448
 IR Inten    --      1.0752                 0.0576                 0.2386

                     43                     44                     45
                      A                      A                      A
 Frequencies --   1006.9279              1013.6568              1022.9160
 Red. masses --      2.3661                 1.5306                 7.2430
 Frc consts  --      1.4135                 0.9266                 4.4653
 IR Inten    --      5.4286                 2.7201                 1.4099

                     46                     47                     48
                      A                      A                      A
 Frequencies --   1023.0525              1061.0026              1071.0405
 Red. masses --      6.2236                 2.2451                 1.6224
 Frc consts  --      3.8378                 1.4891                 1.0965
 IR Inten    --      1.1621                 1.7696                 1.6908

                     49                     50                     51
                      A                      A                      A
 Frequencies --   1092.5801              1112.1555              1114.5538
 Red. masses --      3.3226                 3.0375                 1.6807
 Frc consts  --      2.3368                 2.2136                 1.2301
 IR Inten    --      6.9576                12.8334                 2.2631

                     52                     53                     54
                      A                      A                      A
 Frequencies --   1124.0912              1135.6903              1175.2266
 Red. masses --      4.7941                 2.7014                 3.0654
 Frc consts  --      3.5691                 2.0529                 2.4945
 IR Inten    --      5.9005                 6.5429                14.1095

                     55                     56                     57
                      A                      A                      A
 Frequencies --   1180.6482              1190.0439              1195.2958
 Red. masses --      2.0633                 1.1516                 1.1087
 Frc consts  --      1.6946                 0.9609                 0.9333
 IR Inten    --     18.8940                 1.7806                 0.0822

                     58                     59                     60
                      A                      A                      A
 Frequencies --   1199.7317              1217.1353              1226.9875
 Red. masses --      1.6170                 1.1497                 2.7074
 Frc consts  --      1.3713                 1.0034                 2.4015
 IR Inten    --      1.9658                 0.5446                 0.1672

                     61                     62                     63
                      A                      A                      A
 Frequencies --   1242.9489              1277.4797              1284.9388
 Red. masses --      1.2179                 2.3429                 2.4153
 Frc consts  --      1.1085                 2.2528                 2.3496
 IR Inten    --      0.5470                16.9960                 0.4514

                     64                     65                     66
                      A                      A                      A
 Frequencies --   1317.8859              1322.0479              1332.6587
 Red. masses --      1.3462                 1.4714                 1.6500
 Frc consts  --      1.3775                 1.5152                 1.7265
 IR Inten    --      1.1372                 3.5624                 2.3116

                     67                     68                     69
                      A                      A                      A
 Frequencies --   1340.0041              1356.6321              1367.5673
 Red. masses --      1.2439                 2.5438                 1.4047
 Frc consts  --      1.3160                 2.7584                 1.5478
 IR Inten    --      7.2302                 8.0892                17.1080

                     70                     71                     72
                      A                      A                      A
 Frequencies --   1369.7115              1372.5352              1381.5714
 Red. masses --      2.5395                 1.3229                 1.4734
 Frc consts  --      2.8070                 1.4684                 1.6570
 IR Inten    --      1.4759                16.4173                 0.4030

                     73                     74                     75
                      A                      A                      A
 Frequencies --   1403.2889              1419.8251              1428.7037
 Red. masses --      1.4093                 1.4241                 1.5656
 Frc consts  --      1.6351                 1.6915                 1.8829
 IR Inten    --      1.2069                 4.1568                 1.0334

                     76                     77                     78
                      A                      A                      A
 Frequencies --   1450.0395              1488.5833              1497.6163
 Red. masses --      1.4660                 3.2313                 1.2028
 Frc consts  --      1.8161                 4.2186                 1.5895
 IR Inten    --      9.0425                42.6805                 2.9698

                     79                     80                     81
                      A                      A                      A
 Frequencies --   1501.7155              1504.5449              1508.9608
 Red. masses --      1.5330                 1.1639                 1.4194
 Frc consts  --      2.0369                 1.5523                 1.9042
 IR Inten    --      1.2815                 0.0188                11.5420

                     82                     83                     84
                      A                      A                      A
 Frequencies --   1515.6782              1522.6981              1527.1634
 Red. masses --      1.1370                 1.1899                 1.1199
 Frc consts  --      1.5390                 1.6255                 1.5389
 IR Inten    --      8.3130                21.4006                 0.9007

                     85                     86                     87
                      A                      A                      A
 Frequencies --   1538.3827              1548.4673              1563.1622
 Red. masses --      1.1065                 2.2028                 9.0216
 Frc consts  --      1.5428                 3.1120                12.9880
 IR Inten    --      1.8681                12.3320                16.0275

                     88                     89                     90
                      A                      A                      A
 Frequencies --   1648.4964              1667.5871              2919.7168
 Red. masses --      5.5759                 5.5334                 1.0742
 Frc consts  --      8.9278                 9.0661                 5.3954
 IR Inten    --      0.8314                 3.6590                35.4444

                     91                     92                     93
                      A                      A                      A
 Frequencies --   2926.7608              3036.0793              3044.4706
 Red. masses --      1.0727                 1.0613                 1.0813
 Frc consts  --      5.4139                 5.7637                 5.9050
 IR Inten    --    124.9799                17.1135                 9.7804

                     94                     95                     96
                      A                      A                      A
 Frequencies --   3065.1278              3071.9784              3078.2838
 Red. masses --      1.0618                 1.0639                 1.0660
 Frc consts  --      5.8774                 5.9154                 5.9512
 IR Inten    --     11.9303                 9.1636                16.6449

                     97                     98                     99
                      A                      A                      A
 Frequencies --   3081.2267              3083.5198              3087.0303
 Red. masses --      1.0951                 1.0929                 1.0847
 Frc consts  --      6.1254                 6.1224                 6.0906
 IR Inten    --     68.2021                40.7099                33.0126

                    100                    101                    102
                      A                      A                      A
 Frequencies --   3111.2745              3121.6282              3139.4721
 Red. masses --      1.1017                 1.1045                 1.1019
 Frc consts  --      6.2832                 6.3414                 6.3987
 IR Inten    --      3.7201                14.3761                14.6433

                    103                    104                    105
                      A                      A                      A
 Frequencies --   3174.5659              3186.5466              3195.4281
 Red. masses --      1.0879                 1.0865                 1.0900
 Frc consts  --      6.4598                 6.5002                 6.5573
 IR Inten    --      9.5924                 0.2718                 5.3152

                    106                    107                    108
                      A                      A                      A
 Frequencies --   3203.9168              3214.8961              3502.2084
 Red. masses --      1.0940                 1.0979                 1.0746
 Frc consts  --      6.6165                 6.6859                 7.7656
 IR Inten    --     22.8046                17.1281                 1.6598

 - Thermochemistry -
 -------------------
 Temperature   298.150 Kelvin.  Pressure   1.00000 Atm.
 Atom     1 has atomic number  6 and mass  12.00000

 Molecular mass:   257.16405 amu.
 Principal axes and moments of inertia in atomic units:
                           1         2         3
     Eigenvalues --  4129.912784935.434307434.90171
           X            0.99662  -0.08198   0.00591
           Y            0.08188   0.99652   0.01547
           Z           -0.00716  -0.01493   0.99986
 This molecule is an asymmetric top.
 Rotational symmetry number  1.
 Warning -- assumption of classical behavior for rotation
           may cause significant error
 Rotational temperatures (Kelvin)      0.02097     0.01755     0.01165
 Rotational constants (GHZ):           0.43699     0.36567     0.24274
 Zero-point vibrational energy     858771.0 (Joules/Mol)
                                  205.25120 (Kcal/Mol)
 Warning -- explicit consideration of  23 degrees of freedom as
           vibrations may cause significant error
 Vibrational temperatures:     42.55    61.77    75.84    96.75   102.95
          (Kelvin)            118.25   210.79   287.29   294.65   355.63
                              369.61   401.44   467.22   502.58   504.48
                              581.01   598.76   634.21   673.85   690.43
                              712.77   835.28   851.30   914.37   985.54
                             1025.19  1047.88  1073.75  1105.70  1146.90
                             1170.79  1181.72  1205.02  1208.59  1244.36
                             1297.97  1325.15  1330.62  1368.11  1386.60
                             1399.40  1438.73  1448.74  1458.43  1471.75
                             1471.94  1526.55  1540.99  1571.98  1600.14
                             1603.59  1617.32  1634.01  1690.89  1698.69
                             1712.21  1719.76  1726.15  1751.19  1765.36
                             1788.33  1838.01  1848.74  1896.14  1902.13
                             1917.40  1927.97  1951.89  1967.62  1970.71
                             1974.77  1987.77  2019.02  2042.81  2055.59
                             2086.28  2141.74  2154.74  2160.63  2164.70
                             2171.06  2180.72  2190.82  2197.25  2213.39
                             2227.90  2249.04  2371.82  2399.29  4200.82
                             4210.96  4368.24  4380.31  4410.04  4419.89
                             4428.96  4433.20  4436.50  4441.55  4476.43
                             4491.33  4517.00  4567.49  4584.73  4597.51
                             4609.72  4625.52  5038.90

 Zero-point correction=                           0.327089 (Hartree/Particle)
 Thermal correction to Energy=                    0.343079
 Thermal correction to Enthalpy=                  0.344023
 Thermal correction to Gibbs Free Energy=         0.282095
 Sum of electronic and zero-point Energies=           -818.401163
 Sum of electronic and thermal Energies=              -818.385173
 Sum of electronic and thermal Enthalpies=            -818.384229
 Sum of electronic and thermal Free Energies=         -818.446156

                     E (Thermal)             CV                S
                      KCal/Mol        Cal/Mol-Kelvin    Cal/Mol-Kelvin
 Total                  215.285             62.917            130.337
 Electronic               0.000              0.000              0.000
 Translational            0.889              2.981             42.534
 Rotational               0.889              2.981             33.382
 Vibrational            213.508             56.956             54.421
 Vibration     1          0.593              1.984              5.858
 Vibration     2          0.595              1.980              5.119
 Vibration     3          0.596              1.977              4.713
 Vibration     4          0.598              1.970              4.233
 Vibration     5          0.598              1.968              4.110
 Vibration     6          0.600              1.961              3.838
 Vibration     7          0.617              1.906              2.717
 Vibration     8          0.638              1.840              2.136
 Vibration     9          0.640              1.833              2.090
 Vibration    10          0.661              1.767              1.751
 Vibration    11          0.666              1.751              1.683
 Vibration    12          0.679              1.712              1.540
 Vibration    13          0.709              1.626              1.286
 Vibration    14          0.727              1.577              1.169
 Vibration    15          0.728              1.574              1.163
 Vibration    16          0.769              1.462              0.949
 Vibration    17          0.779              1.435              0.905
 Vibration    18          0.801              1.381              0.824
 Vibration    19          0.826              1.320              0.742
 Vibration    20          0.836              1.295              0.710
 Vibration    21          0.851              1.260              0.670
 Vibration    22          0.937              1.073              0.484
 Vibration    23          0.949              1.050              0.464

 Optimization completed.
    -- Stationary point found.
 Normal termination of Gaussian 16 at Sun Dec 13 13:05:30 2020.

 ----------------------------------------------------------------------
 # B3LYP/6-311++G(d,p) empiricaldispersion=gd3bj scf=xqc pop=npa geom=c
 heck
 ----------------------------------------------------------------------

 --------------------------------------
 CID_84759595_JID_9508_Energie_neutraal
 --------------------------------------
 Structure from the checkpoint file:  "JID_9508.chk"
 Charge =  0 Multiplicity = 1

 SCF Done:  E(RB3LYP) =  -818.943396525     A.U. after   15 cycles
 Normal termination of Gaussian 16 at Sun Dec 13 13:15:37 2020.

 ----------------------------------------------------------------------
 # B3LYP/6-311++G(d,p) empiricaldispersion=gd3bj scf=xqc pop=npa geom=c
 heck
 ----------------------------------------------------------------------

 ------------------------------------
 CID_84759595_JID_9508_Energie_kation
 ------------------------------------
 Structure from the checkpoint file:  "JID_9508.chk"
 Charge =  1 Multiplicity = 2

 SCF Done:  E(UB3LYP) =  -818.634629725     A.U. after   33 cycles
 SCF Done:  E(UB3LYP) =  -818.634630028     a.u. after    3 cycles
 Normal termination of Gaussian 16 at Sun Dec 13 14:45:16 2020.
 Gaussian 16:  ES64L-G16RevA.03 25-Dec-2016

 ----------------------------------------------------------------------
 # B3LYP/6-311++G(d,p) empiricaldispersion=gd3bj scf=xqc pop=npa geom=c
 heck
 ----------------------------------------------------------------------

 -----------------------------------
 CID_84759595_JID_9508_Energie_anion
 -----------------------------------
 Structure from the checkpoint file:  "JID_9508.chk"
 Charge = -1 Multiplicity = 2

                         Standard orientation:
 ---------------------------------------------------------------------
 Center     Atomic      Atomic             Coordinates (Angstroms)
 Number     Number       Type             X           Y           Z
 ---------------------------------------------------------------------
      1          6           0       -1.282959    0.044785   -0.697413
      2          6           0       -2.574922   -0.246388   -1.461665
      3          7           0       -3.644270   -0.561877   -0.512923
      4          6           0       -3.933461    0.567714    0.368793
      5          6           0       -2.694096    0.889574    1.207575
      6          6           0       -1.492714    1.193395    0.299336
      7          6           0       -0.249931    1.468012    1.152019
      8          7           0        0.917970    1.810813    0.345643
      9          6           0        2.128329    1.217416    0.236767
     10          7           0        2.834452    1.884634   -0.661785
     11          7           0        2.036030    2.897604   -1.095588
     12          7           0        0.886243    2.868164   -0.501703
     13          6           0        2.577547   -0.011092    0.961818
     14          6           0        1.847234   -1.257543    0.490961
     15          6           0        1.128190   -2.051328    1.387828
     16          6           0        0.421968   -3.169328    0.938693
     17          6           0        0.431990   -3.502328   -0.415232
     18          6           0        1.157996   -2.718505   -1.315722
     19          6           0        1.860472   -1.603065   -0.865631
     20          1           0       -0.482545    0.292048   -1.402346
     21          1           0       -0.983026   -0.860665   -0.159320
     22          1           0       -2.819727    0.624612   -2.101846
     23          1           0       -2.429540   -1.108196   -2.122100
     24          1           0       -4.486651   -0.823518   -1.019967
     25          1           0       -4.770559    0.297315    1.021919
     26          1           0       -4.229991    1.479275   -0.188180
     27          1           0       -2.464870    0.021498    1.840031
     28          1           0       -2.901819    1.740293    1.869339
     29          1           0       -1.708957    2.108981   -0.267724
     30          1           0       -0.435712    2.294102    1.846232
     31          1           0        0.014345    0.582535    1.735037
     32          1           0        3.653268   -0.099693    0.779708
     33          1           0        2.442906    0.115586    2.042104
     34          1           0        1.115915   -1.792063    2.444127
     35          1           0       -0.139431   -3.773310    1.645624
     36          1           0       -0.122379   -4.366974   -0.768041
     37          1           0        1.171653   -2.973805   -2.371454
     38          1           0        2.410280   -0.981310   -1.567417
 ---------------------------------------------------------------------

 SCF Done:  E(UB3LYP) =  -818.935087606     A.U. after   33 cycles
 SCF Done:  E(UB3LYP) =  -818.935087625     a.u. after    2 cycles

 The electronic state is 2-A.
 Alpha  occ. eigenvalues --  -14.32466 -14.29209 -14.28032 -14.24755 -14.20615
 Alpha  occ. eigenvalues --  -10.16836 -10.13703 -10.11624 -10.10604 -10.10213
 Alpha  occ. eigenvalues --  -10.10027 -10.09353 -10.09326 -10.09113 -10.09082
 Alpha  occ. eigenvalues --  -10.09052 -10.08981 -10.07810 -10.07173  -1.04830
 Alpha  occ. eigenvalues --   -0.86540  -0.82230  -0.81060  -0.77752  -0.72705
 Alpha  occ. eigenvalues --   -0.70264  -0.66550  -0.66397  -0.64861  -0.62684
 Alpha  occ. eigenvalues --   -0.57491  -0.54571  -0.53561  -0.52779  -0.51988
 Alpha  occ. eigenvalues --   -0.49808  -0.46868  -0.44072  -0.43479  -0.42575
 Alpha  occ. eigenvalues --   -0.40993  -0.38716  -0.37687  -0.37370  -0.36740
 Alpha  occ. eigenvalues --   -0.36400  -0.35898  -0.34108  -0.33674  -0.32665
 Alpha  occ. eigenvalues --   -0.32378  -0.31409  -0.30651  -0.29707  -0.28898
 Alpha  occ. eigenvalues --   -0.28095  -0.26881  -0.26213  -0.25900  -0.24693
 Alpha  occ. eigenvalues --   -0.23885  -0.22751  -0.21380  -0.21089  -0.20805
 Alpha  occ. eigenvalues --   -0.20135  -0.17470  -0.16869  -0.13984   0.03768
 Alpha virt. eigenvalues --    0.05584   0.05793   0.06084   0.06370   0.06779
 Alpha virt. eigenvalues --    0.07332   0.07760   0.08418   0.08750   0.08920
 Alpha virt. eigenvalues --    0.09842   0.10214   0.10617   0.10933   0.11457

  Beta  occ. eigenvalues --  -14.32467 -14.29203 -14.28018 -14.24752 -14.20596
  Beta  occ. eigenvalues --  -10.16837 -10.13677 -10.11605 -10.10597 -10.10196
  Beta  occ. eigenvalues --  -10.10016 -10.09346 -10.09325 -10.09091 -10.09066
  Beta  occ. eigenvalues --  -10.09023 -10.08947 -10.07793 -10.07171  -1.04819
  Beta  occ. eigenvalues --   -0.86526  -0.82201  -0.81048  -0.77709  -0.72684
  Beta  occ. eigenvalues --   -0.70225  -0.66491  -0.66370  -0.64824  -0.62640
  Beta  occ. eigenvalues --   -0.57478  -0.54547  -0.53524  -0.52713  -0.51953
  Beta  occ. eigenvalues --   -0.49762  -0.46833  -0.44028  -0.43437  -0.42521
  Beta  occ. eigenvalues --   -0.40960  -0.38679  -0.37647  -0.37326  -0.36708
  Beta  occ. eigenvalues --   -0.36377  -0.35873  -0.34066  -0.33638  -0.32628
  Beta  occ. eigenvalues --   -0.32333  -0.31378  -0.30624  -0.29673  -0.28868
  Beta  occ. eigenvalues --   -0.28045  -0.26838  -0.26174  -0.25870  -0.24657
  Beta  occ. eigenvalues --   -0.23864  -0.22727  -0.21356  -0.21075  -0.20771
  Beta  occ. eigenvalues --   -0.20118  -0.17378  -0.16762  -0.13948
  Beta virt. eigenvalues --    0.05919   0.05986   0.06284   0.06619   0.06807
  Beta virt. eigenvalues --    0.07048   0.07823   0.08308   0.08753   0.09132
  Beta virt. eigenvalues --    0.09322   0.10163   0.10434   0.10957   0.11105

 Mulliken charges and spin densities:
               1          2
     1  C   -0.522442   0.451338
     2  C   -0.090090  -0.624072
     3  N   -0.156746   0.089169
     4  C    0.469918  -0.945065
     5  C   -0.589428   0.293112
     6  C    0.369797  -0.093428
     7  C   -0.043617  -0.556140
     8  N    0.158855   0.022000
     9  C   -0.223883  -0.049859
    10  N   -0.009392   0.017379
    11  N    0.069531  -0.002663
    12  N   -0.043897  -0.009918
    13  C    1.738807  -2.601704
    14  C   -0.783760   1.592975
    15  C    0.452511  -0.572768
    16  C    0.236458  -0.470763
    17  C    0.787261  -1.132703
    18  C   -0.192721  -0.047251
    19  C   -1.610666   1.175430
    20  H    0.122735   0.022292
    21  H    0.840529  -0.618330
    22  H   -0.045273   0.159637
    23  H   -0.031326   0.216221
    24  H   -0.041915   0.293355
    25  H   -0.411188   0.598225
    26  H    0.064829   0.040316
    27  H    0.094465   0.067288
    28  H   -0.211320   0.355831
    29  H    0.298813  -0.090505
    30  H   -0.353875   0.583568
    31  H    0.262643  -0.089537
    32  H    0.147443   0.069676
    33  H   -0.305997   0.507029
    34  H   -0.816974   1.002063
    35  H   -0.475746   0.664332
    36  H   -0.156124   0.318571
    37  H   -0.126659   0.302006
    38  H    0.128441   0.062892
 Sum of Mulliken charges =  -1.00000   1.00000

 Dipole moment (field-independent basis, Debye):
    X=              1.5900    Y=              0.6435    Z=             -2.7455  Tot=              3.2373
 Quadrupole moment (field-independent basis, Debye-Ang):
   XX=           -180.3546   YY=           -177.1157   ZZ=           -162.9194
   XY=            -11.0478   XZ=              4.3600   YZ=              8.2065

 Summary of Natural Population Analysis:

                                       Natural Population
                Natural  -----------------------------------------------
    Atom  No    Charge         Core      Valence    Rydberg      Total
 -----------------------------------------------------------------------
      C    1   -0.20075      0.99960     2.19243    0.00872     3.20075
      C    2   -0.08398      0.99962     2.07306    0.01129     3.08398
      N    3   -0.33826      0.99974     2.82710    0.01142     3.83826
      C    4   -0.08432      0.99962     2.07359    0.01110     3.08432
      C    5   -0.19343      0.99961     2.18441    0.00942     3.19343
      C    6   -0.11433      0.99958     2.10525    0.00949     3.11433
      C    7   -0.08202      0.99957     2.07047    0.01197     3.08202
      N    8   -0.11375      0.99959     2.60027    0.01388     3.61375
      C    9    0.19392      0.99959     1.78742    0.01907     2.80608
      N   10   -0.16995      0.99969     2.65849    0.01177     3.66995
      N   11   -0.04198      0.99981     2.52488    0.01729     3.54198
      N   12   -0.04191      0.99977     2.52777    0.01437     3.54191
      C   13   -0.22193      0.99956     2.21220    0.01017     3.22193
      C   14   -0.01906      0.99949     2.00896    0.01061     3.01906
      C   15   -0.10337      0.99950     2.09285    0.01102     3.10337
      C   16   -0.09106      0.99956     2.08100    0.01050     3.09106
      C   17   -0.10035      0.99956     2.09095    0.00984     3.10035
      C   18   -0.09784      0.99956     2.08820    0.01007     3.09784
      C   19   -0.09835      0.99950     2.09007    0.00878     3.09835
      H   20    0.10101      0.00000     0.39730    0.00169     0.39899
      H   21    0.10589      0.00000     0.39086    0.00325     0.39411
      H   22    0.07491      0.00000     0.42363    0.00146     0.42509
      H   23    0.09789      0.00000     0.40103    0.00108     0.40211
      H   24    0.17536      0.00000     0.32172    0.00292     0.32464
      H   25    0.09759      0.00000     0.40117    0.00124     0.40241
      H   26    0.07468      0.00000     0.42382    0.00151     0.42532
      H   27    0.10114      0.00000     0.39697    0.00189     0.39886
      H   28    0.10020      0.00000     0.39859    0.00121     0.39980
      H   29    0.10149      0.00000     0.39600    0.00251     0.39851
      H   30    0.10662      0.00000     0.39201    0.00137     0.39338
      H   31    0.10872      0.00000     0.38859    0.00269     0.39128
      H   32    0.12107      0.00000     0.37769    0.00124     0.37893
      H   33    0.11574      0.00000     0.38268    0.00157     0.38426
      H   34    0.10557      0.00000     0.39198    0.00246     0.39443
      H   35    0.10519      0.00000     0.39349    0.00132     0.39481
      H   36    0.10326      0.00000     0.39571    0.00103     0.39674
      H   37    0.10131      0.00000     0.39786    0.00083     0.39869
      H   38    0.10507      0.00000     0.39355    0.00138     0.39493
 =======================================================================
   * Total *    0.00000     18.99252    49.75403    0.25345    69.00000

 Normal termination of Gaussian 16 at Sun Dec 13 15:44:40 2020.
