 Gaussian 16, Revision A.03,

 -----------------------------------------------------------
 # opt freq B3LYP/6-31G(d) empiricaldispersion=gd3bj scf=xqc
 -----------------------------------------------------------

 -------------------------------
 CID_131857964_JID_2971_neutraal
 -------------------------------
 Symbolic Z-matrix:
 Charge =  0 Multiplicity = 1

 SCF Done:  E(RB3LYP) =  -575.772095162     A.U. after   14 cycles
 SCF Done:  E(RB3LYP) =  -575.777962714     A.U. after   13 cycles
 SCF Done:  E(RB3LYP) =  -575.779163519     A.U. after   12 cycles
 SCF Done:  E(RB3LYP) =  -575.779932246     A.U. after   12 cycles
 SCF Done:  E(RB3LYP) =  -575.780189320     A.U. after   12 cycles
 SCF Done:  E(RB3LYP) =  -575.780313965     A.U. after   12 cycles
 SCF Done:  E(RB3LYP) =  -575.780356557     A.U. after   11 cycles
 SCF Done:  E(RB3LYP) =  -575.780373877     A.U. after   10 cycles
 SCF Done:  E(RB3LYP) =  -575.780375828     A.U. after    9 cycles
 SCF Done:  E(RB3LYP) =  -575.780376827     A.U. after    8 cycles
 SCF Done:  E(RB3LYP) =  -575.780376896     A.U. after    8 cycles
 Optimization completed.
    -- Stationary point found.

 1\1\GINC-NODE203\FOpt\RB3LYP\6-31G(d)\C9H12O3\VSC10255\09-Dec-2020\0\\
 # opt freq B3LYP/6-31G(d) empiricaldispersion=gd3bj scf=xqc\\CID_13185
 7964_JID_2971_neutraal\\0,1\C,0.9399832769,-0.0645993437,-0.0836716283
 \C,0.6255339791,-0.9437912979,1.1191707405\O,1.5004863978,-0.732993019
 1,2.2377731006\C,2.7484800488,-1.3956615319,2.3320142384\C,3.001100476
 7,-2.4928049448,1.3163924288\C,2.4044309118,-3.7398492751,1.5414788743
 \C,2.5975845331,-4.7937657927,0.650131297\C,3.4040129432,-4.6130110388
 ,-0.4745384827\C,4.0140467656,-3.3778981311,-0.6958719179\C,3.81595162

 Normal termination of Gaussian 16 at Wed Dec  9 18:21:25 2020.

 --------------------------------------------------------------------
 #N Geom=AllCheck Guess=TCheck SCRF=Check GenChk RB3LYP/6-31G(d) Freq
 --------------------------------------------------------------------

 Structure from the checkpoint file:  "JID_2971.chk"
 -------------------------------
 CID_131857964_JID_2971_neutraal
 -------------------------------
 Charge =  0 Multiplicity = 1

 SCF Done:  E(RB3LYP) =  -575.780376895     A.U. after    1 cycles

  Exact polarizability: 121.502   5.876  82.924   3.355 -15.286  93.089
 Approx polarizability: 176.351  16.989 129.072   9.775 -34.690 154.757

                      1                      2                      3
                      A                      A                      A
 Frequencies --     36.0924                55.6730                99.8904
 Red. masses --      3.8815                 3.0543                 4.5067
 Frc consts  --      0.0030                 0.0056                 0.0265
 IR Inten    --      0.5004                 3.0913                 1.3969

                      4                      5                      6
                      A                      A                      A
 Frequencies --    129.0994               153.1853               190.3971
 Red. masses --      3.2108                 5.3657                 5.1300
 Frc consts  --      0.0315                 0.0742                 0.1096
 IR Inten    --      2.0772                17.1494                 2.2256

                      7                      8                      9
                      A                      A                      A
 Frequencies --    248.0911               274.8572               291.8193
 Red. masses --      1.6060                 2.1492                 2.4543
 Frc consts  --      0.0582                 0.0957                 0.1231
 IR Inten    --      4.1733                14.4054                 0.9877

                     10                     11                     12
                      A                      A                      A
 Frequencies --    349.5700               386.4031               394.3920
 Red. masses --      2.5156                 2.1342                 2.6136
 Frc consts  --      0.1811                 0.1877                 0.2395
 IR Inten    --     66.1877                64.1778                20.3212

                     13                     14                     15
                      A                      A                      A
 Frequencies --    414.4612               467.4291               539.3509
 Red. masses --      2.9831                 3.0060                 4.7116
 Frc consts  --      0.3019                 0.3870                 0.8075
 IR Inten    --      1.6880                10.2970                 5.0404

                     16                     17                     18
                      A                      A                      A
 Frequencies --    598.7578               635.2385               715.0040
 Red. masses --      4.6751                 6.3899                 2.3745
 Frc consts  --      0.9875                 1.5192                 0.7152
 IR Inten    --      6.1179                 0.2455                12.6770

                     19                     20                     21
                      A                      A                      A
 Frequencies --    716.5549               768.8612               807.1420
 Red. masses --      3.6934                 1.8677                 1.1794
 Frc consts  --      1.1173                 0.6505                 0.4527
 IR Inten    --     19.1819                37.9481                 5.2213

                     22                     23                     24
                      A                      A                      A
 Frequencies --    855.2329               868.2073               870.6658
 Red. masses --      4.6830                 1.2673                 2.7618
 Frc consts  --      2.0181                 0.5629                 1.2335
 IR Inten    --     18.2679                 0.1618                13.5200

                     25                     26                     27
                      A                      A                      A
 Frequencies --    914.8404               941.7161               978.7054
 Red. masses --      4.4082                 1.5300                 1.3454
 Frc consts  --      2.1737                 0.7995                 0.7593
 IR Inten    --      9.4747                17.0001                 1.7684

                     28                     29                     30
                      A                      A                      A
 Frequencies --   1001.3364              1013.8921              1023.0404
 Red. masses --      1.3256                 2.8020                 6.0690
 Frc consts  --      0.7831                 1.6971                 3.7424
 IR Inten    --      6.6915                14.6220                 3.4262

                     31                     32                     33
                      A                      A                      A
 Frequencies --   1030.7909              1065.2573              1103.8250
 Red. masses --      6.2008                 2.1151                 3.1658
 Frc consts  --      3.8818                 1.4141                 2.2727
 IR Inten    --     47.0542                 2.4686                90.6345

                     34                     35                     36
                      A                      A                      A
 Frequencies --   1119.5772              1133.7603              1195.4490
 Red. masses --      1.6055                 2.8351                 1.0985
 Frc consts  --      1.1857                 2.1471                 0.9250
 IR Inten    --      3.2405               150.7853                 0.0981

                     37                     38                     39
                      A                      A                      A
 Frequencies --   1203.8382              1218.5232              1237.7410
 Red. masses --      1.7746                 1.1366                 2.5840
 Frc consts  --      1.5153                 0.9944                 2.3324
 IR Inten    --     10.3881                 3.9533                37.8950

                     40                     41                     42
                      A                      A                      A
 Frequencies --   1341.7541              1349.3915              1366.2370
 Red. masses --      2.3971                 1.1050                 1.2983
 Frc consts  --      2.5427                 1.1854                 1.4279
 IR Inten    --     28.0760                 3.6962                 4.3332

                     43                     44                     45
                      A                      A                      A
 Frequencies --   1370.2669              1396.6424              1418.1270
 Red. masses --      1.8284                 1.2325                 1.2629
 Frc consts  --      2.0227                 1.4164                 1.4964
 IR Inten    --      2.1358                62.0933                 6.6945

                     46                     47                     48
                      A                      A                      A
 Frequencies --   1428.0075              1445.8943              1501.1422
 Red. masses --      1.2261                 1.2846                 2.1687
 Frc consts  --      1.4732                 1.5823                 2.8793
 IR Inten    --      9.5863                29.1790                12.3611

                     49                     50                     51
                      A                      A                      A
 Frequencies --   1520.4019              1526.1200              1539.3985
 Red. masses --      1.0443                 1.0577                 1.0752
 Frc consts  --      1.4223                 1.4514                 1.5012
 IR Inten    --      4.0900                 1.5649                 5.9571

                     52                     53                     54
                      A                      A                      A
 Frequencies --   1547.9434              1646.4240              1667.9115
 Red. masses --      2.2035                 5.5239                 5.5028
 Frc consts  --      3.1108                 8.8223                 9.0194
 IR Inten    --      4.3931                 0.4407                 0.0299

                     55                     56                     57
                      A                      A                      A
 Frequencies --   3043.7627              3051.1494              3074.5367
 Red. masses --      1.0847                 1.0394                 1.0599
 Frc consts  --      5.9207                 5.7013                 5.9031
 IR Inten    --     35.5149                17.9652                31.7626

                     58                     59                     60
                      A                      A                      A
 Frequencies --   3106.6013              3120.8083              3158.3498
 Red. masses --      1.1019                 1.1046                 1.1001
 Frc consts  --      6.2659                 6.3384                 6.4658
 IR Inten    --     19.0720                36.2230                24.0410

                     61                     62                     63
                      A                      A                      A
 Frequencies --   3174.6535              3187.8150              3198.9196
 Red. masses --      1.0874                 1.0871                 1.0921
 Frc consts  --      6.4572                 6.5089                 6.5846
 IR Inten    --      6.8365                 1.5161                27.2072

                     64                     65                     66
                      A                      A                      A
 Frequencies --   3211.0639              3250.2882              3667.8055
 Red. masses --      1.0972                 1.0921                 1.0676
 Frc consts  --      6.6653                 6.7975                 8.4619
 IR Inten    --     23.6211                 1.3166                21.2456

 - Thermochemistry -
 -------------------
 Temperature   298.150 Kelvin.  Pressure   1.00000 Atm.
 Atom     1 has atomic number  6 and mass  12.00000

 Molecular mass:   168.07864 amu.
 Principal axes and moments of inertia in atomic units:
                           1         2         3
     Eigenvalues --  1251.665082622.580282832.07975
           X            0.99969  -0.01948  -0.01566
           Y            0.01947   0.99981  -0.00088
           Z            0.01568   0.00057   0.99988
 This molecule is an asymmetric top.
 Rotational symmetry number  1.
 Warning -- assumption of classical behavior for rotation
           may cause significant error
 Rotational temperatures (Kelvin)      0.06920     0.03303     0.03058
 Rotational constants (GHZ):           1.44187     0.68815     0.63725
 Zero-point vibrational energy     522529.3 (Joules/Mol)
                                  124.88751 (Kcal/Mol)
 Warning -- explicit consideration of  16 degrees of freedom as
           vibrations may cause significant error
 Vibrational temperatures:     51.93    80.10   143.72   185.75   220.40
          (Kelvin)            273.94   356.95   395.46   419.86   502.95
                              555.95   567.44   596.32   672.53   776.01
                              861.48   913.97  1028.73  1030.96  1106.22
                             1161.30  1230.49  1249.16  1252.69  1316.25
                             1354.92  1408.14  1440.70  1458.76  1471.93
                             1483.08  1532.67  1588.16  1610.82  1631.23
                             1719.98  1732.05  1753.18  1780.83  1930.48
                             1941.47  1965.71  1971.51  2009.46  2040.37
                             2054.58  2080.32  2159.81  2187.52  2195.75
                             2214.85  2227.15  2368.84  2399.75  4379.30
                             4389.92  4423.57  4469.71  4490.15  4544.16
                             4567.62  4586.55  4602.53  4620.00  4676.44
                             5277.15

 Zero-point correction=                           0.199021 (Hartree/Particle)
 Thermal correction to Energy=                    0.210674
 Thermal correction to Enthalpy=                  0.211618
 Thermal correction to Gibbs Free Energy=         0.160763
 Sum of electronic and zero-point Energies=           -575.581356
 Sum of electronic and thermal Energies=              -575.569703
 Sum of electronic and thermal Enthalpies=            -575.568759
 Sum of electronic and thermal Free Energies=         -575.619614

                     E (Thermal)             CV                S
                      KCal/Mol        Cal/Mol-Kelvin    Cal/Mol-Kelvin
 Total                  132.200             43.747            107.033
 Electronic               0.000              0.000              0.000
 Translational            0.889              2.981             41.266
 Rotational               0.889              2.981             30.609
 Vibrational            130.422             37.785             35.158
 Vibration     1          0.594              1.982              5.463
 Vibration     2          0.596              1.975              4.605
 Vibration     3          0.604              1.949              3.456
 Vibration     4          0.612              1.924              2.959
 Vibration     5          0.619              1.899              2.632
 Vibration     6          0.634              1.853              2.224
 Vibration     7          0.662              1.766              1.744
 Vibration     8          0.677              1.720              1.565
 Vibration     9          0.687              1.689              1.463
 Vibration    10          0.727              1.576              1.168
 Vibration    11          0.755              1.499              1.014
 Vibration    12          0.761              1.482              0.983
 Vibration    13          0.778              1.439              0.911
 Vibration    14          0.825              1.322              0.745
 Vibration    15          0.894              1.163              0.567
 Vibration    16          0.957              1.034              0.452

                           ! Non-Optimized Parameters !

 1\1\GINC-NODE203\Freq\RB3LYP\6-31G(d)\C9H12O3\VSC10255\09-Dec-2020\0\\
 #N Geom=AllCheck Guess=TCheck SCRF=Check GenChk RB3LYP/6-31G(d) Freq\\
 CID_131857964_JID_2971_neutraal\\0,1\C,0.9399832769,-0.0645993437,-0.0
 836716283\C,0.6255339791,-0.9437912979,1.1191707405\O,1.5004863978,-0.
 7329930191,2.2377731006\C,2.7484800488,-1.3956615319,2.3320142384\C,3.
 0011004767,-2.4928049448,1.3163924288\C,2.4044309118,-3.7398492751,1.5
 414788743\C,2.5975845331,-4.7937657927,0.650131297\C,3.4040129432,-4.6
 130110388,-0.4745384827\C,4.0140467656,-3.3778981311,-0.6958719179\C,3

 Normal termination of Gaussian 16 at Wed Dec  9 18:27:04 2020.

 ----------------------------------------------------------------------
 # B3LYP/6-311++G(d,p) empiricaldispersion=gd3bj scf=xqc pop=npa geom=c
 heck
 ----------------------------------------------------------------------

 ---------------------------------------
 CID_131857964_JID_2971_Energie_neutraal
 ---------------------------------------
 Structure from the checkpoint file:  "JID_2971.chk"
 Charge =  0 Multiplicity = 1

 SCF Done:  E(RB3LYP) =  -575.949961059     A.U. after   15 cycles
 Normal termination of Gaussian 16 at Wed Dec  9 18:29:47 2020.

 ----------------------------------------------------------------------
 # B3LYP/6-311++G(d,p) empiricaldispersion=gd3bj scf=xqc pop=npa geom=c
 heck
 ----------------------------------------------------------------------

 -------------------------------------
 CID_131857964_JID_2971_Energie_kation
 -------------------------------------
 Structure from the checkpoint file:  "JID_2971.chk"
 Charge =  1 Multiplicity = 2

 SCF Done:  E(UB3LYP) =  -575.621073643     A.U. after   28 cycles
 Normal termination of Gaussian 16 at Wed Dec  9 18:35:48 2020.
 Gaussian 16:  ES64L-G16RevA.03 25-Dec-2016

 ------------------------------------
 CID_131857964_JID_2971_Energie_anion
 ------------------------------------
 Structure from the checkpoint file:  "JID_2971.chk"
 Charge = -1 Multiplicity = 2

                         Standard orientation:
 ---------------------------------------------------------------------
 Center     Atomic      Atomic             Coordinates (Angstroms)
 Number     Number       Type             X           Y           Z
 ---------------------------------------------------------------------
      1          6           0       -1.751933    1.377533    1.578432
      2          6           0       -1.402036    1.745708    0.142916
      3          8           0       -1.738881    0.731519   -0.815835
      4          6           0       -0.860105   -0.344842   -1.089150
      5          6           0        0.528940   -0.242385   -0.489913
      6          6           0        1.457966    0.584145   -1.134549
      7          6           0        2.753670    0.721600   -0.639770
      8          6           0        3.138307    0.019992    0.503769
      9          6           0        2.222258   -0.817304    1.141282
     10          6           0        0.922965   -0.950450    0.650079
     11          8           0       -1.535030   -1.570120   -0.832879
     12          8           0       -2.002558   -1.582938    0.540244
     13          1           0       -2.815743    1.127405    1.669061
     14          1           0       -1.554037    2.233135    2.234872
     15          1           0       -1.161245    0.528470    1.929342
     16          1           0       -1.986341    2.614157   -0.177097
     17          1           0       -0.343387    2.009755    0.064276
     18          1           0       -0.765177   -0.404834   -2.181829
     19          1           0        1.160911    1.123975   -2.031083
     20          1           0        3.462702    1.367068   -1.150371
     21          1           0        4.148569    0.119524    0.890515
     22          1           0        2.519587   -1.374350    2.025354
     23          1           0        0.214055   -1.602972    1.143679
     24          1           0       -2.728323   -0.933000    0.472458
 ---------------------------------------------------------------------

 SCF Done:  E(UB3LYP) =  -575.936554798     A.U. after   33 cycles
 SCF Done:  E(UB3LYP) =  -575.936554799     a.u. after    1 cycles

 The electronic state is 2-A.
 Alpha  occ. eigenvalues --  -19.07760 -19.07180 -19.03321 -10.17682 -10.11715
 Alpha  occ. eigenvalues --  -10.07829 -10.07198 -10.07112 -10.07071 -10.06983
 Alpha  occ. eigenvalues --  -10.06945 -10.05872  -1.02899  -0.93749  -0.81285
 Alpha  occ. eigenvalues --   -0.75476  -0.66542  -0.65338  -0.64461  -0.57264
 Alpha  occ. eigenvalues --   -0.52160  -0.50620  -0.47921  -0.44309  -0.41906
 Alpha  occ. eigenvalues --   -0.40206  -0.38266  -0.36786  -0.35761  -0.34163
 Alpha  occ. eigenvalues --   -0.32698  -0.31672  -0.31496  -0.29679  -0.29022
 Alpha  occ. eigenvalues --   -0.27233  -0.26206  -0.25004  -0.24382  -0.22704
 Alpha  occ. eigenvalues --   -0.21330  -0.18195  -0.17250  -0.15404  -0.14832
 Alpha  occ. eigenvalues --    0.04599
 Alpha virt. eigenvalues --    0.06655   0.07350   0.07688   0.08538   0.08708
 Alpha virt. eigenvalues --    0.08941   0.09655   0.10529   0.10789   0.11695
 Alpha virt. eigenvalues --    0.12755   0.13484   0.13873   0.14285   0.15581

  Beta  occ. eigenvalues --  -19.07707 -19.07116 -19.03301 -10.17679 -10.11698
  Beta  occ. eigenvalues --  -10.07781 -10.07190 -10.07063 -10.07041 -10.06977
  Beta  occ. eigenvalues --  -10.06887 -10.05834  -1.02745  -0.93691  -0.81171
  Beta  occ. eigenvalues --   -0.75388  -0.66457  -0.65253  -0.64381  -0.57191
  Beta  occ. eigenvalues --   -0.52066  -0.50533  -0.47830  -0.44234  -0.41845
  Beta  occ. eigenvalues --   -0.40133  -0.38183  -0.36725  -0.35691  -0.34097
  Beta  occ. eigenvalues --   -0.32634  -0.31613  -0.31453  -0.29574  -0.28957
  Beta  occ. eigenvalues --   -0.27158  -0.26056  -0.24949  -0.24326  -0.22656
  Beta  occ. eigenvalues --   -0.21274  -0.18135  -0.17154  -0.15223  -0.14597
  Beta virt. eigenvalues --    0.06979   0.07724   0.07960   0.08338   0.08699
  Beta virt. eigenvalues --    0.09261   0.09588   0.10225   0.10830   0.11343
  Beta virt. eigenvalues --    0.12057   0.13026   0.13866   0.14043   0.14413

 Mulliken charges and spin densities:
               1          2
     1  C    0.504938  -1.016732
     2  C   -0.142904   0.015952
     3  O   -0.171700   0.042376
     4  C    1.959855  -2.519482
     5  C   -0.450532   0.765283
     6  C   -1.277677   1.120570
     7  C    0.239847  -0.538762
     8  C    1.490983  -1.811553
     9  C   -0.436975   0.097285
    10  C   -0.319299   0.454543
    11  O   -0.039779   0.034970
    12  O   -0.103257  -0.035076
    13  H   -0.288848   0.431204
    14  H   -0.331032   0.461839
    15  H    0.086068   0.086156
    16  H   -0.276613   0.450647
    17  H    0.389283  -0.256673
    18  H   -0.002854   0.224040
    19  H   -0.455885   0.633790
    20  H   -0.875058   1.061855
    21  H   -0.420177   0.567393
    22  H   -0.267262   0.435840
    23  H    0.100695   0.135368
    24  H    0.088184   0.159163
 Sum of Mulliken charges =  -1.00000   1.00000

 Dipole moment (field-independent basis, Debye):
    X=             -2.0174    Y=             -1.7290    Z=              0.3856  Tot=              2.6848
 Quadrupole moment (field-independent basis, Debye-Ang):
   XX=           -136.7972   YY=           -107.3810   ZZ=           -106.5621
   XY=             -2.7840   XZ=              4.5975   YZ=              0.2754

 Summary of Natural Population Analysis:

                                       Natural Population
                Natural  -----------------------------------------------
    Atom  No    Charge         Core      Valence    Rydberg      Total
 -----------------------------------------------------------------------
      C    1   -0.30194      0.99966     2.29694    0.00534     3.30194
      C    2   -0.01298      0.99957     2.00146    0.01195     3.01298
      O    3   -0.30694      0.99987     3.29741    0.00965     4.30694
      C    4    0.21392      0.99951     1.76568    0.02090     2.78608
      C    5   -0.04596      0.99947     2.03521    0.01127     3.04596
      C    6   -0.09316      0.99951     2.08275    0.01090     3.09316
      C    7   -0.10212      0.99956     2.09175    0.01082     3.10212
      C    8   -0.09209      0.99956     2.08221    0.01032     3.09209
      C    9   -0.09736      0.99956     2.08708    0.01072     3.09736
      C   10   -0.09653      0.99950     2.08804    0.00899     3.09653
      O   11   -0.16086      0.99989     3.15133    0.00965     4.16086
      O   12   -0.22786      0.99991     3.22138    0.00657     4.22786
      H   13    0.09636      0.00000     0.40184    0.00179     0.40364
      H   14    0.10142      0.00000     0.39734    0.00124     0.39858
      H   15    0.10555      0.00000     0.39304    0.00142     0.39445
      H   16    0.08832      0.00000     0.41014    0.00154     0.41168
      H   17    0.08897      0.00000     0.40922    0.00181     0.41103
      H   18    0.09252      0.00000     0.40558    0.00190     0.40748
      H   19    0.10281      0.00000     0.39553    0.00166     0.39719
      H   20    0.10320      0.00000     0.39460    0.00220     0.39680
      H   21    0.10099      0.00000     0.39743    0.00158     0.39901
      H   22    0.09906      0.00000     0.40006    0.00088     0.40094
      H   23    0.11347      0.00000     0.38506    0.00147     0.38653
      H   24    0.23124      0.00000     0.26488    0.00389     0.26876
 =======================================================================
   * Total *    0.00000     11.99558    32.85596    0.14846    45.00000

 Normal termination of Gaussian 16 at Wed Dec  9 18:42:40 2020.
