 Gaussian 16, Revision A.03,

 -----------------------------------------------------------
 # opt freq B3LYP/6-31G(d) empiricaldispersion=gd3bj scf=xqc
 -----------------------------------------------------------

 ------------------------------
 CID_91505696_JID_3699_neutraal
 ------------------------------
 Symbolic Z-matrix:
 Charge =  0 Multiplicity = 1

 SCF Done:  E(RB3LYP) =  -595.330057646     A.U. after   14 cycles
 SCF Done:  E(RB3LYP) =  -595.337116441     A.U. after   12 cycles
 SCF Done:  E(RB3LYP) =  -595.338887975     A.U. after   12 cycles
 SCF Done:  E(RB3LYP) =  -595.341207863     A.U. after   12 cycles
 SCF Done:  E(RB3LYP) =  -595.342980752     A.U. after   12 cycles
 SCF Done:  E(RB3LYP) =  -595.343582782     A.U. after   12 cycles
 SCF Done:  E(RB3LYP) =  -595.343722115     A.U. after   10 cycles
 SCF Done:  E(RB3LYP) =  -595.343753901     A.U. after   11 cycles
 SCF Done:  E(RB3LYP) =  -595.343772777     A.U. after   10 cycles
 SCF Done:  E(RB3LYP) =  -595.343778957     A.U. after    8 cycles
 SCF Done:  E(RB3LYP) =  -595.343781270     A.U. after    8 cycles
 SCF Done:  E(RB3LYP) =  -595.343781739     A.U. after    8 cycles
 SCF Done:  E(RB3LYP) =  -595.343781999     A.U. after    7 cycles
 Optimization completed.
    -- Stationary point found.
 Normal termination of Gaussian 16 at Sun Dec 13 12:20:28 2020.

 --------------------------------------------------------------------
 #N Geom=AllCheck Guess=TCheck SCRF=Check GenChk RB3LYP/6-31G(d) Freq
 --------------------------------------------------------------------

 Structure from the checkpoint file:  "JID_3699.chk"
 ------------------------------
 CID_91505696_JID_3699_neutraal
 ------------------------------
 Charge =  0 Multiplicity = 1

 SCF Done:  E(RB3LYP) =  -595.343781999     A.U. after    1 cycles

  Exact polarizability: 158.944   0.701 116.248 -10.942  -4.192  71.857
 Approx polarizability: 211.591   0.477 189.589 -22.034 -10.532 113.812

                      1                      2                      3
                      A                      A                      A
 Frequencies --     51.2635                62.9836                79.7517
 Red. masses --      3.3444                 3.3252                 3.3933
 Frc consts  --      0.0052                 0.0078                 0.0127
 IR Inten    --      0.0586                 0.2116                 1.5687

                      4                      5                      6
                      A                      A                      A
 Frequencies --    106.8034               201.4720               222.0789
 Red. masses --      4.1668                 1.2347                 1.3198
 Frc consts  --      0.0280                 0.0295                 0.0384
 IR Inten    --      0.0409                 0.5524                 0.6115

                      7                      8                      9
                      A                      A                      A
 Frequencies --    238.1782               243.1499               288.0156
 Red. masses --      2.7714                 2.8829                 2.9533
 Frc consts  --      0.0926                 0.1004                 0.1443
 IR Inten    --      1.9446                 6.3681                 7.7307

                     10                     11                     12
                      A                      A                      A
 Frequencies --    309.2266               310.5484               339.1641
 Red. masses --      3.5327                 1.4200                 2.1793
 Frc consts  --      0.1990                 0.0807                 0.1477
 IR Inten    --      2.3798                48.4978                 8.8590

                     13                     14                     15
                      A                      A                      A
 Frequencies --    392.0152               412.8443               424.0620
 Red. masses --      1.8097                 1.8905                 2.8256
 Frc consts  --      0.1639                 0.1898                 0.2994
 IR Inten    --     64.4246                87.5091                20.7860

                     16                     17                     18
                      A                      A                      A
 Frequencies --    453.1068               506.6239               530.2589
 Red. masses --      3.2651                 3.2379                 2.1907
 Frc consts  --      0.3949                 0.4897                 0.3629
 IR Inten    --      7.5564                10.2134                20.0201

                     19                     20                     21
                      A                      A                      A
 Frequencies --    573.2285               597.4832               628.4196
 Red. masses --      2.9845                 5.6004                 4.2743
 Frc consts  --      0.5778                 1.1779                 0.9945
 IR Inten    --     41.8895                 0.9681                19.3055

                     22                     23                     24
                      A                      A                      A
 Frequencies --    646.4901               697.6047               714.3055
 Red. masses --      3.2870                 2.1173                 2.2409
 Frc consts  --      0.8094                 0.6071                 0.6737
 IR Inten    --     35.0143                21.9125                16.9338

                     25                     26                     27
                      A                      A                      A
 Frequencies --    772.2444               833.6945               846.8435
 Red. masses --      1.7065                 3.8500                 4.0669
 Frc consts  --      0.5996                 1.5766                 1.7184
 IR Inten    --     59.9412                 0.8028                10.8980

                     28                     29                     30
                      A                      A                      A
 Frequencies --    848.8183               910.4961               914.9788
 Red. masses --      1.3231                 1.4530                 2.3882
 Frc consts  --      0.5617                 0.7097                 1.1780
 IR Inten    --      1.9775                 5.9236                 0.6925

                     31                     32                     33
                      A                      A                      A
 Frequencies --    949.6409               963.7106               980.4870
 Red. masses --      1.1458                 1.3134                 1.4446
 Frc consts  --      0.6088                 0.7187                 0.8182
 IR Inten    --      1.0393                 0.2041                 3.4737

                     34                     35                     36
                      A                      A                      A
 Frequencies --    991.0880              1015.9994              1019.6155
 Red. masses --      1.2666                 5.5909                 2.8013
 Frc consts  --      0.7330                 3.4003                 1.7159
 IR Inten    --      2.3510                 3.6736                98.4745

                     37                     38                     39
                      A                      A                      A
 Frequencies --   1043.3083              1062.5018              1094.2206
 Red. masses --      1.9762                 2.1733                 3.7757
 Frc consts  --      1.2674                 1.4456                 2.6635
 IR Inten    --     78.1600                 9.4023               140.5652

                     40                     41                     42
                      A                      A                      A
 Frequencies --   1120.5762              1164.8170              1179.9796
 Red. masses --      1.5776                 1.9666                 2.2195
 Frc consts  --      1.1672                 1.5721                 1.8208
 IR Inten    --     15.8010                38.5566               122.3754

                     43                     44                     45
                      A                      A                      A
 Frequencies --   1193.3872              1213.4282              1219.7596
 Red. masses --      1.0875                 1.6237                 1.2397
 Frc consts  --      0.9125                 1.4085                 1.0867
 IR Inten    --      0.9253                 9.1514                 7.7092

                     46                     47                     48
                      A                      A                      A
 Frequencies --   1281.7754              1313.0474              1331.8263
 Red. masses --      2.4093                 1.5750                 2.0899
 Frc consts  --      2.3322                 1.5999                 2.1841
 IR Inten    --    114.8813                55.1554                44.7704

                     49                     50                     51
                      A                      A                      A
 Frequencies --   1369.3065              1372.5255              1403.5565
 Red. masses --      1.3886                 2.4419                 1.5764
 Frc consts  --      1.5340                 2.7103                 1.8296
 IR Inten    --      1.6709                 7.6576                30.9422

                     52                     53                     54
                      A                      A                      A
 Frequencies --   1414.1063              1427.9536              1452.8755
 Red. masses --      1.5223                 1.2674                 1.2464
 Frc consts  --      1.7935                 1.5226                 1.5502
 IR Inten    --     34.5544                 3.0754                 8.8259

                     55                     56                     57
                      A                      A                      A
 Frequencies --   1490.0999              1517.3351              1521.3818
 Red. masses --      1.8914                 1.0523                 1.0584
 Frc consts  --      2.4744                 1.4274                 1.4434
 IR Inten    --     85.2688                 1.6621                 1.0452

                     58                     59                     60
                      A                      A                      A
 Frequencies --   1533.3198              1546.3185              1549.5044
 Red. masses --      1.1437                 1.0832                 2.3018
 Frc consts  --      1.5842                 1.5260                 3.2561
 IR Inten    --     18.9721                 5.3711               100.0814

                     61                     62                     63
                      A                      A                      A
 Frequencies --   1561.0166              1651.2900              1669.6063
 Red. masses --      1.4602                 4.4845                 5.5905
 Frc consts  --      2.0964                 7.2046                 9.1819
 IR Inten    --     93.3460                10.4585                85.6015

                     64                     65                     66
                      A                      A                      A
 Frequencies --   3030.9713              3049.3815              3064.2464
 Red. masses --      1.0828                 1.0408                 1.0378
 Frc consts  --      5.8609                 5.7021                 5.7415
 IR Inten    --     24.3383                33.5327                23.9464

                     67                     68                     69
                      A                      A                      A
 Frequencies --   3105.7931              3129.7072              3144.2812
 Red. masses --      1.0972                 1.1012                 1.1012
 Frc consts  --      6.2357                 6.3551                 6.4144
 IR Inten    --     58.1474                20.0312                21.9413

                     70                     71                     72
                      A                      A                      A
 Frequencies --   3155.2046              3169.7706              3186.4755
 Red. masses --      1.1014                 1.0876                 1.0868
 Frc consts  --      6.4601                 6.4381                 6.5014
 IR Inten    --     17.1027                14.2659                 0.9017

                     73                     74                     75
                      A                      A                      A
 Frequencies --   3195.0070              3212.3942              3225.9158
 Red. masses --      1.0920                 1.0960                 1.0926
 Frc consts  --      6.5677                 6.6639                 6.6991
 IR Inten    --     29.4126                24.8330                 1.7147

                     76                     77                     78
                      A                      A                      A
 Frequencies --   3578.5885              3715.3841              3739.2739
 Red. masses --      1.0742                 1.0648                 1.0650
 Frc consts  --      8.1050                 8.6603                 8.7736
 IR Inten    --     10.5699                33.8165                28.1208

 - Thermochemistry -
 -------------------
 Temperature   298.150 Kelvin.  Pressure   1.00000 Atm.
 Atom     1 has atomic number  6 and mass  12.00000

 Molecular mass:   181.11028 amu.
 Principal axes and moments of inertia in atomic units:
                           1         2         3
     Eigenvalues --   938.164544015.146374517.96917
           X            0.99996   0.00866  -0.00201
           Y           -0.00866   0.99996  -0.00064
           Z            0.00200   0.00065   1.00000
 This molecule is an asymmetric top.
 Rotational symmetry number  1.
 Warning -- assumption of classical behavior for rotation
           may cause significant error
 Rotational temperatures (Kelvin)      0.09232     0.02157     0.01917
 Rotational constants (GHZ):           1.92369     0.44948     0.39946
 Zero-point vibrational energy     630898.0 (Joules/Mol)
                                  150.78825 (Kcal/Mol)
 Warning -- explicit consideration of  20 degrees of freedom as
           vibrations may cause significant error
 Vibrational temperatures:     73.76    90.62   114.74   153.67   289.87
          (Kelvin)            319.52   342.69   349.84   414.39   444.91
                              446.81   487.98   564.02   593.99   610.13
                              651.92   728.92   762.92   824.75   859.65
                              904.16   930.16  1003.70  1027.73  1111.09
                             1199.50  1218.42  1221.26  1310.00  1316.45
                             1366.32  1386.56  1410.70  1425.95  1461.80
                             1467.00  1501.09  1528.70  1574.34  1612.26
                             1675.91  1697.73  1717.02  1745.85  1754.96
                             1844.19  1889.18  1916.20  1970.13  1974.76
                             2019.40  2034.58  2054.51  2090.36  2143.92
                             2183.11  2188.93  2206.11  2224.81  2229.39
                             2245.95  2375.84  2402.19  4360.89  4387.38
                             4408.77  4468.54  4502.95  4523.92  4539.64
                             4560.59  4584.63  4596.90  4621.92  4641.37
                             5148.79  5345.61  5379.98

 Zero-point correction=                           0.240296 (Hartree/Particle)
 Thermal correction to Energy=                    0.253327
 Thermal correction to Enthalpy=                  0.254271
 Thermal correction to Gibbs Free Energy=         0.201228
 Sum of electronic and zero-point Energies=           -595.103486
 Sum of electronic and thermal Energies=              -595.090455
 Sum of electronic and thermal Enthalpies=            -595.089511
 Sum of electronic and thermal Free Energies=         -595.142554

                     E (Thermal)             CV                S
                      KCal/Mol        Cal/Mol-Kelvin    Cal/Mol-Kelvin
 Total                  158.965             51.030            111.639
 Electronic               0.000              0.000              0.000
 Translational            0.889              2.981             41.488
 Rotational               0.889              2.981             31.210
 Vibrational            157.188             45.068             38.941
 Vibration     1          0.596              1.977              4.768
 Vibration     2          0.597              1.972              4.361
 Vibration     3          0.600              1.963              3.897
 Vibration     4          0.606              1.944              3.326
 Vibration     5          0.638              1.838              2.120
 Vibration     6          0.648              1.807              1.942
 Vibration     7          0.656              1.782              1.816
 Vibration     8          0.659              1.774              1.780
 Vibration     9          0.685              1.696              1.486
 Vibration    10          0.699              1.656              1.366
 Vibration    11          0.699              1.654              1.359
 Vibration    12          0.719              1.597              1.216
 Vibration    13          0.759              1.487              0.992
 Vibration    14          0.777              1.442              0.917
 Vibration    15          0.786              1.418              0.878
 Vibration    16          0.812              1.354              0.786
 Vibration    17          0.862              1.235              0.642
 Vibration    18          0.885              1.183              0.587
 Vibration    19          0.929              1.089              0.498
 Vibration    20          0.955              1.037              0.454

 Optimization completed.
    -- Stationary point found.
 Normal termination of Gaussian 16 at Sun Dec 13 12:27:05 2020.

 ----------------------------------------------------------------------
 # B3LYP/6-311++G(d,p) empiricaldispersion=gd3bj scf=xqc pop=npa geom=c
 heck
 ----------------------------------------------------------------------

 --------------------------------------
 CID_91505696_JID_3699_Energie_neutraal
 --------------------------------------
 Structure from the checkpoint file:  "JID_3699.chk"
 Charge =  0 Multiplicity = 1

 SCF Done:  E(RB3LYP) =  -595.528664907     A.U. after   14 cycles
 Normal termination of Gaussian 16 at Sun Dec 13 12:29:43 2020.

 ----------------------------------------------------------------------
 # B3LYP/6-311++G(d,p) empiricaldispersion=gd3bj scf=xqc pop=npa geom=c
 heck
 ----------------------------------------------------------------------

 ------------------------------------
 CID_91505696_JID_3699_Energie_kation
 ------------------------------------
 Structure from the checkpoint file:  "JID_3699.chk"
 Charge =  1 Multiplicity = 2

 SCF Done:  E(UB3LYP) =  -595.235366974     A.U. after   20 cycles
 Normal termination of Gaussian 16 at Sun Dec 13 12:34:18 2020.
 Gaussian 16:  ES64L-G16RevA.03 25-Dec-2016

 ----------------------------------------------------------------------
 # B3LYP/6-311++G(d,p) empiricaldispersion=gd3bj scf=xqc pop=npa geom=c
 heck
 ----------------------------------------------------------------------

 -----------------------------------
 CID_91505696_JID_3699_Energie_anion
 -----------------------------------
 Structure from the checkpoint file:  "JID_3699.chk"
 Charge = -1 Multiplicity = 2

                         Standard orientation:
 ---------------------------------------------------------------------
 Center     Atomic      Atomic             Coordinates (Angstroms)
 Number     Number       Type             X           Y           Z
 ---------------------------------------------------------------------
      1          6           0        2.668604    1.753909    0.354779
      2          6           0        2.597542    0.377576   -0.323017
      3          6           0        3.755455   -0.510009    0.146536
      4          6           0        1.244301   -0.331414   -0.085427
      5          7           0        0.176775    0.416739   -0.759193
      6          6           0       -1.167618    0.227851   -0.379195
      7          6           0       -2.022796    1.338693   -0.299520
      8          6           0       -3.364138    1.182149    0.035745
      9          6           0       -3.881433   -0.083263    0.320530
     10          6           0       -3.036304   -1.189609    0.246949
     11          6           0       -1.695012   -1.048001   -0.109689
     12          8           0        1.248231   -1.650836   -0.622251
     13          8           0        1.078523   -0.457050    1.294784
     14          1           0        2.523431    1.652299    1.433827
     15          1           0        1.918483    2.461776   -0.018815
     16          1           0        3.649599    2.207637    0.178083
     17          1           0        2.674424    0.510797   -1.411529
     18          1           0        3.709467   -0.653711    1.230362
     19          1           0        3.713376   -1.493043   -0.327402
     20          1           0        4.714023   -0.040448   -0.099447
     21          1           0        0.402307    1.403103   -0.805496
     22          1           0       -1.625606    2.331566   -0.499960
     23          1           0       -4.005285    2.057956    0.087161
     24          1           0       -4.925867   -0.203311    0.591268
     25          1           0       -3.422659   -2.183604    0.456004
     26          1           0       -1.058699   -1.920446   -0.204623
     27          1           0        1.041020   -1.550375   -1.565711
     28          1           0        0.248936   -0.941578    1.444218
 ---------------------------------------------------------------------

 SCF Done:  E(UB3LYP) =  -595.515206095     A.U. after   33 cycles
 SCF Done:  E(UB3LYP) =  -595.515206095     a.u. after    1 cycles

 The electronic state is 2-A.
 Alpha  occ. eigenvalues --  -19.03500 -19.03139 -14.22495 -10.21064 -10.11968
 Alpha  occ. eigenvalues --  -10.08105 -10.08056 -10.07915 -10.07426 -10.07319
 Alpha  occ. eigenvalues --  -10.07228 -10.05958 -10.05529  -0.98652  -0.90837
 Alpha  occ. eigenvalues --   -0.82837  -0.74959  -0.70166  -0.65239  -0.64031
 Alpha  occ. eigenvalues --   -0.58522  -0.56571  -0.52162  -0.50310  -0.48160
 Alpha  occ. eigenvalues --   -0.44814  -0.43946  -0.42337  -0.39144  -0.36621
 Alpha  occ. eigenvalues --   -0.35044  -0.34571  -0.33520  -0.32749  -0.32173
 Alpha  occ. eigenvalues --   -0.30072  -0.28584  -0.27993  -0.27895  -0.26823
 Alpha  occ. eigenvalues --   -0.25641  -0.25159  -0.24123  -0.23901  -0.22944
 Alpha  occ. eigenvalues --   -0.20186  -0.18981  -0.16118  -0.12118   0.04392
 Alpha virt. eigenvalues --    0.06275   0.07071   0.07590   0.07931   0.08288
 Alpha virt. eigenvalues --    0.08840   0.09300   0.10146   0.10412   0.10857
 Alpha virt. eigenvalues --    0.12237   0.12521   0.12603   0.13843   0.14518

  Beta  occ. eigenvalues --  -19.03488 -19.03117 -14.22479 -10.21063 -10.11965
  Beta  occ. eigenvalues --  -10.08097 -10.08041 -10.07900 -10.07403 -10.07303
  Beta  occ. eigenvalues --  -10.07213 -10.05921 -10.05509  -0.98622  -0.90795
  Beta  occ. eigenvalues --   -0.82806  -0.74926  -0.70129  -0.65201  -0.63994
  Beta  occ. eigenvalues --   -0.58460  -0.56532  -0.52116  -0.50269  -0.48103
  Beta  occ. eigenvalues --   -0.44778  -0.43903  -0.42282  -0.39092  -0.36595
  Beta  occ. eigenvalues --   -0.35003  -0.34522  -0.33474  -0.32710  -0.32138
  Beta  occ. eigenvalues --   -0.30040  -0.28555  -0.27966  -0.27862  -0.26787
  Beta  occ. eigenvalues --   -0.25614  -0.25119  -0.24085  -0.23854  -0.22918
  Beta  occ. eigenvalues --   -0.20165  -0.18953  -0.16090  -0.12090
  Beta virt. eigenvalues --    0.06584   0.07202   0.07684   0.07949   0.08326
  Beta virt. eigenvalues --    0.08914   0.09225   0.09678   0.10470   0.11038
  Beta virt. eigenvalues --    0.11148   0.12450   0.12743   0.12976   0.14174

 Mulliken charges and spin densities:
               1          2
     1  C    0.860802  -1.337628
     2  C   -1.915872   2.374639
     3  C    0.526387  -1.046945
     4  C    1.533896  -2.593176
     5  N    0.062681   0.128430
     6  C   -0.147896   0.025343
     7  C    0.195626   0.026959
     8  C    0.611293  -0.877709
     9  C    1.021246  -1.403013
    10  C   -0.436462   0.313440
    11  C   -0.886884   0.574273
    12  O   -0.145793  -0.004526
    13  O   -0.184366   0.038167
    14  H    0.080296   0.081686
    15  H   -0.459337   0.557223
    16  H   -0.370791   0.534955
    17  H   -0.425188   0.621831
    18  H    0.095552   0.047379
    19  H    0.057045   0.083951
    20  H   -0.206838   0.365682
    21  H    0.421132  -0.179822
    22  H   -0.682835   0.840330
    23  H   -0.473482   0.649978
    24  H   -0.193312   0.331536
    25  H   -0.327763   0.498591
    26  H    0.179807  -0.002458
    27  H   -0.051611   0.315524
    28  H    0.262668   0.035362
 Sum of Mulliken charges =  -1.00000   1.00000

 Dipole moment (field-independent basis, Debye):
    X=              0.0742    Y=             -3.7012    Z=              1.5458  Tot=              4.0117
 Quadrupole moment (field-independent basis, Debye-Ang):
   XX=           -156.8112   YY=           -124.0906   ZZ=           -108.1164
   XY=             -0.7318   XZ=              4.7562   YZ=              1.9768

 Summary of Natural Population Analysis:

                                       Natural Population
                Natural  -----------------------------------------------
    Atom  No    Charge         Core      Valence    Rydberg      Total
 -----------------------------------------------------------------------
      C    1   -0.28605      0.99965     2.27957    0.00684     3.28605
      C    2   -0.12755      0.99955     2.11575    0.01225     3.12755
      C    3   -0.28537      0.99965     2.27875    0.00697     3.28537
      C    4    0.36731      0.99959     1.60953    0.02357     2.63269
      N    5   -0.34007      0.99965     2.82916    0.01127     3.84007
      C    6    0.08483      0.99948     1.90222    0.01347     2.91517
      C    7   -0.11570      0.99952     2.10590    0.01028     3.11570
      C    8   -0.09105      0.99957     2.08072    0.01077     3.09105
      C    9   -0.11850      0.99956     2.10881    0.01014     3.11850
      C   10   -0.09193      0.99956     2.08254    0.00982     3.09193
      C   11   -0.14085      0.99951     2.13164    0.00969     3.14085
      O   12   -0.38161      0.99988     3.37531    0.00641     4.38161
      O   13   -0.37019      0.99987     3.36532    0.00500     4.37019
      H   14    0.10465      0.00000     0.39409    0.00126     0.39535
      H   15    0.09737      0.00000     0.40093    0.00170     0.40263
      H   16    0.10158      0.00000     0.39726    0.00115     0.39842
      H   17    0.10140      0.00000     0.39556    0.00304     0.39860
      H   18    0.10147      0.00000     0.39752    0.00101     0.39853
      H   19    0.10705      0.00000     0.39195    0.00099     0.39295
      H   20    0.09779      0.00000     0.40135    0.00086     0.40221
      H   21    0.19202      0.00000     0.30343    0.00455     0.30798
      H   22    0.10393      0.00000     0.39396    0.00211     0.39607
      H   23    0.10222      0.00000     0.39626    0.00152     0.39778
      H   24    0.10077      0.00000     0.39799    0.00124     0.39923
      H   25    0.09946      0.00000     0.39955    0.00099     0.40054
      H   26    0.11188      0.00000     0.38672    0.00140     0.38812
      H   27    0.23807      0.00000     0.25836    0.00357     0.26193
      H   28    0.23705      0.00000     0.26022    0.00273     0.26295
 =======================================================================
   * Total *   -0.00000     12.99503    35.84039    0.16459    49.00000

 Normal termination of Gaussian 16 at Sun Dec 13 12:41:39 2020.
