 Gaussian 16, Revision A.03,

 -----------------------------------------------------------
 # opt freq B3LYP/6-31G(d) empiricaldispersion=gd3bj scf=xqc
 -----------------------------------------------------------

 -------------------------------
 CID_110772354_JID_7478_neutraal
 -------------------------------
 Symbolic Z-matrix:
 Charge =  0 Multiplicity = 1

 SCF Done:  E(RB3LYP) =  -745.190313569     A.U. after   15 cycles
 SCF Done:  E(RB3LYP) =  -745.193852937     A.U. after   13 cycles
 SCF Done:  E(RB3LYP) =  -745.193779973     A.U. after   12 cycles
 SCF Done:  E(RB3LYP) =  -745.194699636     A.U. after   11 cycles
 SCF Done:  E(RB3LYP) =  -745.195152805     A.U. after   12 cycles
 SCF Done:  E(RB3LYP) =  -745.195229917     A.U. after   11 cycles
 SCF Done:  E(RB3LYP) =  -745.195241133     A.U. after    9 cycles
 SCF Done:  E(RB3LYP) =  -745.195243967     A.U. after    9 cycles
 SCF Done:  E(RB3LYP) =  -745.195245676     A.U. after    9 cycles
 SCF Done:  E(RB3LYP) =  -745.195246729     A.U. after    8 cycles
 SCF Done:  E(RB3LYP) =  -745.195247353     A.U. after    8 cycles
 SCF Done:  E(RB3LYP) =  -745.195247652     A.U. after    8 cycles
 SCF Done:  E(RB3LYP) =  -745.195247693     A.U. after    7 cycles
 SCF Done:  E(RB3LYP) =  -745.195247705     A.U. after    6 cycles
 Optimization completed.
    -- Stationary point found.
 Normal termination of Gaussian 16 at Fri Dec 11 12:07:18 2020.

 --------------------------------------------------------------------
 #N Geom=AllCheck Guess=TCheck SCRF=Check GenChk RB3LYP/6-31G(d) Freq
 --------------------------------------------------------------------

 Structure from the checkpoint file:  "JID_7478.chk"
 -------------------------------
 CID_110772354_JID_7478_neutraal
 -------------------------------
 Charge =  0 Multiplicity = 1

 SCF Done:  E(RB3LYP) =  -745.195247705     A.U. after    1 cycles

  Exact polarizability: 175.498 -33.279 136.195  -4.857   7.005 140.108
 Approx polarizability: 246.822 -70.018 207.032 -11.639  20.211 256.529

                      1                      2                      3
                      A                      A                      A
 Frequencies --     30.4908                31.8174                45.6614
 Red. masses --      3.9283                 4.4092                 3.6897
 Frc consts  --      0.0022                 0.0026                 0.0045
 IR Inten    --      2.1378                 0.2630                 2.3638

                      4                      5                      6
                      A                      A                      A
 Frequencies --     60.8613                74.3619                97.4024
 Red. masses --      3.8490                 3.1547                 6.9742
 Frc consts  --      0.0084                 0.0103                 0.0390
 IR Inten    --      0.3786                 0.8009                 0.5660

                      7                      8                      9
                      A                      A                      A
 Frequencies --    137.9165               168.2285               218.3979
 Red. masses --      3.3721                 2.3454                 2.5882
 Frc consts  --      0.0378                 0.0391                 0.0727
 IR Inten    --      0.2265                 0.7433                 1.2568

                     10                     11                     12
                      A                      A                      A
 Frequencies --    247.3902               256.7060               277.4009
 Red. masses --      4.4626                 2.9662                 1.7260
 Frc consts  --      0.1609                 0.1152                 0.0783
 IR Inten    --      9.1483                 1.6897                 1.0257

                     13                     14                     15
                      A                      A                      A
 Frequencies --    319.6350               361.2037               395.6832
 Red. masses --      3.7311                 2.6669                 2.0262
 Frc consts  --      0.2246                 0.2050                 0.1869
 IR Inten    --      1.3384                 1.0721                 0.8095

                     16                     17                     18
                      A                      A                      A
 Frequencies --    421.1358               438.1746               440.0899
 Red. masses --      4.4590                 1.8193                 1.9027
 Frc consts  --      0.4659                 0.2058                 0.2171
 IR Inten    --      6.6510                35.9161                71.8611

                     19                     20                     21
                      A                      A                      A
 Frequencies --    474.1177               480.3177               501.6407
 Red. masses --      2.7018                 2.5540                 2.9896
 Frc consts  --      0.3578                 0.3472                 0.4432
 IR Inten    --      8.9250                11.5523                 3.6699

                     22                     23                     24
                      A                      A                      A
 Frequencies --    573.3061               613.1745               622.0963
 Red. masses --      3.4176                 3.5059                 3.6544
 Frc consts  --      0.6618                 0.7766                 0.8333
 IR Inten    --     28.2745                18.0085                 1.6037

                     25                     26                     27
                      A                      A                      A
 Frequencies --    652.3960               663.6564               708.3324
 Red. masses --      2.6310                 1.8494                 2.7875
 Frc consts  --      0.6598                 0.4799                 0.8240
 IR Inten    --      2.4229                63.3759                13.8802

                     28                     29                     30
                      A                      A                      A
 Frequencies --    746.3025               773.8523               795.0778
 Red. masses --      1.5680                 4.3231                 4.0528
 Frc consts  --      0.5146                 1.5253                 1.5095
 IR Inten    --     31.5221                 1.0435                 5.4699

                     31                     32                     33
                      A                      A                      A
 Frequencies --    810.3744               825.4738               836.3545
 Red. masses --      1.9826                 2.8806                 2.5595
 Frc consts  --      0.7671                 1.1565                 1.0549
 IR Inten    --     24.4385                 5.5524                12.0063

                     34                     35                     36
                      A                      A                      A
 Frequencies --    845.9025               865.4473               868.4161
 Red. masses --      1.3714                 1.4819                 1.8415
 Frc consts  --      0.5782                 0.6539                 0.8182
 IR Inten    --      9.8526                 3.4098                 3.2077

                     37                     38                     39
                      A                      A                      A
 Frequencies --    899.3303               945.3525               950.7530
 Red. masses --      1.9992                 2.2809                 6.7387
 Frc consts  --      0.9527                 1.2010                 3.5889
 IR Inten    --      6.3849                 2.8289                 3.3959

                     40                     41                     42
                      A                      A                      A
 Frequencies --    963.3684               975.4325               977.4028
 Red. masses --      2.1996                 1.5835                 1.4447
 Frc consts  --      1.2027                 0.8877                 0.8132
 IR Inten    --      6.0524                 2.8600                 1.3052

                     43                     44                     45
                      A                      A                      A
 Frequencies --    995.0629              1064.4601              1098.6019
 Red. masses --      1.9362                 1.4939                 2.2922
 Frc consts  --      1.1295                 0.9973                 1.6300
 IR Inten    --      0.0559                 6.0891                 6.9392

                     46                     47                     48
                      A                      A                      A
 Frequencies --   1104.8853              1148.5560              1154.8953
 Red. masses --      1.7191                 1.8713                 1.9235
 Frc consts  --      1.2365                 1.4544                 1.5116
 IR Inten    --     18.1494                 8.1884                 1.4953

                     49                     50                     51
                      A                      A                      A
 Frequencies --   1165.2380              1169.5104              1189.9569
 Red. masses --      1.7307                 2.2056                 1.3478
 Frc consts  --      1.3845                 1.7774                 1.1245
 IR Inten    --      0.9339                 2.4027                36.2244

                     52                     53                     54
                      A                      A                      A
 Frequencies --   1229.3221              1262.6979              1284.8506
 Red. masses --      1.7436                 1.2881                 1.3552
 Frc consts  --      1.5525                 1.2100                 1.3182
 IR Inten    --     10.0078                 2.6214                 8.5459

                     55                     56                     57
                      A                      A                      A
 Frequencies --   1290.8171              1307.1311              1322.8228
 Red. masses --      1.6378                 2.8569                 1.8573
 Frc consts  --      1.6079                 2.8759                 1.9149
 IR Inten    --      9.1260                22.4292                 7.1031

                     58                     59                     60
                      A                      A                      A
 Frequencies --   1337.2924              1345.8610              1368.4217
 Red. masses --      1.1537                 2.1051                 1.8870
 Frc consts  --      1.2156                 2.2466                 2.0819
 IR Inten    --      9.5236                12.0665               109.7426

                     61                     62                     63
                      A                      A                      A
 Frequencies --   1393.4278              1403.0879              1406.3401
 Red. masses --      2.2065                 1.8150                 1.5535
 Frc consts  --      2.5242                 2.1052                 1.8102
 IR Inten    --     19.8858                26.4938                 9.2550

                     64                     65                     66
                      A                      A                      A
 Frequencies --   1419.1775              1433.0528              1445.4244
 Red. masses --      2.0433                 1.5592                 1.2594
 Frc consts  --      2.4246                 1.8865                 1.5502
 IR Inten    --     25.6554                35.6531                 4.2839

                     67                     68                     69
                      A                      A                      A
 Frequencies --   1492.0492              1502.3463              1506.6971
 Red. masses --      2.7641                 1.3815                 1.1998
 Frc consts  --      3.6255                 1.8371                 1.6047
 IR Inten    --     22.7157                15.7816                21.6817

                     70                     71                     72
                      A                      A                      A
 Frequencies --   1513.5931              1523.2038              1527.8908
 Red. masses --      1.2363                 1.0695                 1.1085
 Frc consts  --      1.6688                 1.4620                 1.5246
 IR Inten    --     39.2337                 4.1274                11.3763

                     73                     74                     75
                      A                      A                      A
 Frequencies --   1535.4376              1536.7885              1540.4531
 Red. masses --      2.1129                 1.4823                 1.0724
 Frc consts  --      2.9349                 2.0627                 1.4993
 IR Inten    --     18.1755                 6.8746                 4.8698

                     76                     77                     78
                      A                      A                      A
 Frequencies --   1562.2162              1630.9235              1687.6810
 Red. masses --      3.2664                 6.9425                 6.6195
 Frc consts  --      4.6968                10.8800                11.1085
 IR Inten    --     14.2499                 4.0186                21.5067

                     79                     80                     81
                      A                      A                      A
 Frequencies --   1781.2331              3032.8695              3041.7964
 Red. masses --      7.6856                 1.0708                 1.0425
 Frc consts  --     14.3671                 5.8033                 5.6833
 IR Inten    --    365.9187                16.2253                 8.6063

                     82                     83                     84
                      A                      A                      A
 Frequencies --   3045.4040              3064.0405              3068.5039
 Red. masses --      1.0565                 1.0709                 1.0611
 Frc consts  --      5.7730                 5.9236                 5.8864
 IR Inten    --     31.7918                39.0157                20.9058

                     85                     86                     87
                      A                      A                      A
 Frequencies --   3074.4438              3105.4933              3115.8292
 Red. masses --      1.0987                 1.1018                 1.1001
 Frc consts  --      6.1185                 6.2609                 6.2927
 IR Inten    --     11.8278                60.1825                30.9346

                     88                     89                     90
                      A                      A                      A
 Frequencies --   3116.2214              3118.3215              3135.9170
 Red. masses --      1.1022                 1.0939                 1.0954
 Frc consts  --      6.3060                 6.2670                 6.3470
 IR Inten    --      3.8661                32.1906                25.0857

                     91                     92                     93
                      A                      A                      A
 Frequencies --   3184.5004              3201.3236              3220.2375
 Red. masses --      1.0908                 1.0884                 1.0944
 Frc consts  --      6.5173                 6.5720                 6.6869
 IR Inten    --     12.7678                 0.8917                 6.8242

                     94                     95                     96
                      A                      A                      A
 Frequencies --   3259.3792              3585.1503              3658.6613
 Red. masses --      1.0969                 1.0751                 1.0806
 Frc consts  --      6.8656                 8.1414                 8.5225
 IR Inten    --      3.3800                13.2274                53.8366

 - Thermochemistry -
 -------------------
 Temperature   298.150 Kelvin.  Pressure   1.00000 Atm.
 Atom     1 has atomic number  6 and mass  12.00000

 Molecular mass:   231.13716 amu.
 Principal axes and moments of inertia in atomic units:
                           1         2         3
     Eigenvalues --  2651.753795804.349767052.31152
           X            0.99925   0.03840  -0.00402
           Y           -0.03844   0.99920  -0.01087
           Z            0.00359   0.01101   0.99993
 This molecule is an asymmetric top.
 Rotational symmetry number  1.
 Warning -- assumption of classical behavior for rotation
           may cause significant error
 Rotational temperatures (Kelvin)      0.03266     0.01492     0.01228
 Rotational constants (GHZ):           0.68058     0.31093     0.25591
 Zero-point vibrational energy     760226.4 (Joules/Mol)
                                  181.69848 (Kcal/Mol)
 Warning -- explicit consideration of  23 degrees of freedom as
           vibrations may cause significant error
 Vibrational temperatures:     43.87    45.78    65.70    87.57   106.99
          (Kelvin)            140.14   198.43   242.04   314.23   355.94
                              369.34   399.12   459.88   519.69   569.30
                              605.92   630.44   633.19   682.15   691.07
                              721.75   824.86   882.22   895.06   938.65
                              954.85  1019.13  1073.76  1113.40  1143.94
                             1165.95  1187.67  1203.33  1217.07  1245.19
                             1249.46  1293.94  1360.15  1367.92  1386.07
                             1403.43  1406.26  1431.67  1531.52  1580.64
                             1589.68  1652.52  1661.64  1676.52  1682.66
                             1712.08  1768.72  1816.74  1848.61  1857.20
                             1880.67  1903.25  1924.07  1936.39  1968.85
                             2004.83  2018.73  2023.41  2041.88  2061.84
                             2079.64  2146.73  2161.54  2167.80  2177.72
                             2191.55  2198.29  2209.15  2211.10  2216.37
                             2247.68  2346.54  2428.20  2562.80  4363.62
                             4376.47  4381.66  4408.47  4414.89  4423.44
                             4468.11  4482.98  4483.55  4486.57  4511.89
                             4581.79  4605.99  4633.20  4689.52  5158.23
                             5264.00

 Zero-point correction=                           0.289555 (Hartree/Particle)
 Thermal correction to Energy=                    0.305329
 Thermal correction to Enthalpy=                  0.306273
 Thermal correction to Gibbs Free Energy=         0.244592
 Sum of electronic and zero-point Energies=           -744.905693
 Sum of electronic and thermal Energies=              -744.889919
 Sum of electronic and thermal Enthalpies=            -744.888974
 Sum of electronic and thermal Free Energies=         -744.950656

                     E (Thermal)             CV                S
                      KCal/Mol        Cal/Mol-Kelvin    Cal/Mol-Kelvin
 Total                  191.597             60.393            129.820
 Electronic               0.000              0.000              0.000
 Translational            0.889              2.981             42.215
 Rotational               0.889              2.981             33.051
 Vibrational            189.819             54.431             54.553
 Vibration     1          0.594              1.984              5.797
 Vibration     2          0.594              1.983              5.713
 Vibration     3          0.595              1.979              4.997
 Vibration     4          0.597              1.973              4.429
 Vibration     5          0.599              1.966              4.034
 Vibration     6          0.603              1.951              3.506
 Vibration     7          0.614              1.915              2.833
 Vibration     8          0.625              1.882              2.455
 Vibration     9          0.646              1.813              1.972
 Vibration    10          0.661              1.767              1.749
 Vibration    11          0.666              1.751              1.684
 Vibration    12          0.678              1.715              1.550
 Vibration    13          0.706              1.636              1.312
 Vibration    14          0.735              1.552              1.117
 Vibration    15          0.762              1.479              0.979
 Vibration    16          0.784              1.424              0.888
 Vibration    17          0.798              1.387              0.832
 Vibration    18          0.800              1.383              0.826
 Vibration    19          0.831              1.307              0.726
 Vibration    20          0.837              1.294              0.709
 Vibration    21          0.857              1.246              0.654
 Vibration    22          0.930              1.089              0.498
 Vibration    23          0.972              1.004              0.428

 Optimization completed.
    -- Stationary point found.
 Normal termination of Gaussian 16 at Fri Dec 11 12:20:11 2020.

 ----------------------------------------------------------------------
 # B3LYP/6-311++G(d,p) empiricaldispersion=gd3bj scf=xqc pop=npa geom=c
 heck
 ----------------------------------------------------------------------

 ---------------------------------------
 CID_110772354_JID_7478_Energie_neutraal
 ---------------------------------------
 Structure from the checkpoint file:  "JID_7478.chk"
 Charge =  0 Multiplicity = 1

 SCF Done:  E(RB3LYP) =  -745.402290933     A.U. after   15 cycles
 Normal termination of Gaussian 16 at Fri Dec 11 12:26:37 2020.

 ----------------------------------------------------------------------
 # B3LYP/6-311++G(d,p) empiricaldispersion=gd3bj scf=xqc pop=npa geom=c
 heck
 ----------------------------------------------------------------------

 -------------------------------------
 CID_110772354_JID_7478_Energie_kation
 -------------------------------------
 Structure from the checkpoint file:  "JID_7478.chk"
 Charge =  1 Multiplicity = 2

 SCF Done:  E(UB3LYP) =  -745.104606520     A.U. after   31 cycles
 Normal termination of Gaussian 16 at Fri Dec 11 12:48:24 2020.
 Gaussian 16:  ES64L-G16RevA.03 25-Dec-2016

 ----------------------------------------------------------------------
 # B3LYP/6-311++G(d,p) empiricaldispersion=gd3bj scf=xqc pop=npa geom=c
 heck
 ----------------------------------------------------------------------

 ------------------------------------
 CID_110772354_JID_7478_Energie_anion
 ------------------------------------
 Structure from the checkpoint file:  "JID_7478.chk"
 Charge = -1 Multiplicity = 2

                         Standard orientation:
 ---------------------------------------------------------------------
 Center     Atomic      Atomic             Coordinates (Angstroms)
 Number     Number       Type             X           Y           Z
 ---------------------------------------------------------------------
      1          6           0       -3.531982   -2.863710    0.268026
      2          6           0       -2.252629   -2.180893    0.762303
      3          6           0       -1.391654   -1.569161   -0.350608
      4          6           0       -2.101503   -0.488003   -1.182228
      5          7           0       -2.660788    0.600992   -0.390871
      6          6           0       -2.076649    1.785025   -0.028053
      7          8           0       -2.569623    2.494394    0.842193
      8          6           0       -0.787930    2.191645   -0.745421
      9          6           0        0.411720    1.409940   -0.245454
     10          6           0        1.282329    0.797380   -1.145727
     11          6           0        2.343009    0.062372   -0.614826
     12          6           0        2.551262   -0.078178    0.778880
     13          6           0        1.672744    0.547930    1.671608
     14          6           0        0.618347    1.284713    1.148730
     15          7           0        3.670619   -0.867372    1.025517
     16          6           0        4.120020   -1.188567   -0.160087
     17          7           0        3.369986   -0.664842   -1.192786
     18          1           0       -4.223321   -2.154140   -0.202767
     19          1           0       -4.069659   -3.340328    1.094700
     20          1           0       -3.304077   -3.638935   -0.473980
     21          1           0       -2.505614   -1.400248    1.491885
     22          1           0       -1.641439   -2.910253    1.307936
     23          1           0       -0.487650   -1.139040    0.090899
     24          1           0       -1.066636   -2.360474   -1.041403
     25          1           0       -1.402312   -0.066767   -1.907356
     26          1           0       -2.920191   -0.931079   -1.761082
     27          1           0       -3.464881    0.382090    0.185707
     28          1           0       -0.889213    2.074149   -1.829782
     29          1           0       -0.668627    3.258737   -0.536256
     30          1           0        1.127816    0.887180   -2.217845
     31          1           0        1.821077    0.451513    2.742258
     32          1           0       -0.084594    1.773400    1.816844
     33          1           0        4.990280   -1.802628   -0.353822
     34          1           0        3.544785   -0.782713   -2.179357
 ---------------------------------------------------------------------

 SCF Done:  E(UB3LYP) =  -745.399038150     A.U. after   33 cycles
 SCF Done:  E(UB3LYP) =  -745.399038150     a.u. after    1 cycles

 The electronic state is 2-A.
 Alpha  occ. eigenvalues --  -19.00119 -14.26793 -14.24927 -14.20594 -10.18733
 Alpha  occ. eigenvalues --  -10.14277 -10.11961 -10.11878 -10.10211 -10.09676
 Alpha  occ. eigenvalues --  -10.09627 -10.08627 -10.08422 -10.08341 -10.08003
 Alpha  occ. eigenvalues --  -10.07913 -10.07581  -0.95215  -0.92224  -0.83709
 Alpha  occ. eigenvalues --   -0.78539  -0.76397  -0.70958  -0.68846  -0.65538
 Alpha  occ. eigenvalues --   -0.64152  -0.61610  -0.57143  -0.54185  -0.52304
 Alpha  occ. eigenvalues --   -0.51215  -0.49859  -0.47892  -0.45752  -0.41030
 Alpha  occ. eigenvalues --   -0.40793  -0.39766  -0.38880  -0.37831  -0.36597
 Alpha  occ. eigenvalues --   -0.35236  -0.34964  -0.34695  -0.33810  -0.33016
 Alpha  occ. eigenvalues --   -0.32187  -0.31542  -0.30430  -0.30127  -0.29545
 Alpha  occ. eigenvalues --   -0.27789  -0.26325  -0.25658  -0.25263  -0.24791
 Alpha  occ. eigenvalues --   -0.23837  -0.21680  -0.18740  -0.17502  -0.16701
 Alpha  occ. eigenvalues --   -0.14340  -0.13646   0.03711
 Alpha virt. eigenvalues --    0.05512   0.05957   0.06957   0.07872   0.08087
 Alpha virt. eigenvalues --    0.08535   0.08948   0.09200   0.09841   0.10036
 Alpha virt. eigenvalues --    0.10356   0.11317   0.11513   0.11945   0.12231

  Beta  occ. eigenvalues --  -19.00118 -14.26718 -14.24923 -14.20595 -10.18731
  Beta  occ. eigenvalues --  -10.14249 -10.11942 -10.11881 -10.10203 -10.09667
  Beta  occ. eigenvalues --  -10.09621 -10.08593 -10.08405 -10.08336 -10.07980
  Beta  occ. eigenvalues --  -10.07913 -10.07570  -0.95211  -0.92168  -0.83699
  Beta  occ. eigenvalues --   -0.78466  -0.76369  -0.70937  -0.68823  -0.65492
  Beta  occ. eigenvalues --   -0.64120  -0.61577  -0.57103  -0.54119  -0.52204
  Beta  occ. eigenvalues --   -0.51174  -0.49828  -0.47859  -0.45671  -0.40989
  Beta  occ. eigenvalues --   -0.40760  -0.39731  -0.38854  -0.37809  -0.36575
  Beta  occ. eigenvalues --   -0.35194  -0.34910  -0.34660  -0.33776  -0.32996
  Beta  occ. eigenvalues --   -0.32155  -0.31512  -0.30408  -0.30107  -0.29521
  Beta  occ. eigenvalues --   -0.27771  -0.26296  -0.25620  -0.25243  -0.24764
  Beta  occ. eigenvalues --   -0.23798  -0.21630  -0.18730  -0.17495  -0.16692
  Beta  occ. eigenvalues --   -0.14272  -0.13578
  Beta virt. eigenvalues --    0.05707   0.06086   0.07266   0.07492   0.07993
  Beta virt. eigenvalues --    0.08458   0.08986   0.08997   0.09826   0.09888
  Beta virt. eigenvalues --    0.10110   0.10522   0.11518   0.11943   0.12222

 Mulliken charges and spin densities:
               1          2
     1  C    0.330139  -0.984467
     2  C   -0.756965   0.404167
     3  C   -0.157578   0.013364
     4  C    0.711650  -0.820845
     5  N   -0.239180   0.041755
     6  C   -0.042211  -0.041275
     7  O   -0.306616   0.004149
     8  C    0.300165  -0.958741
     9  C    0.720440   0.118098
    10  C   -0.107860  -0.444573
    11  C    1.208896  -1.187842
    12  C    0.002129  -0.397428
    13  C   -0.464249   0.132465
    14  C   -0.467726   0.064606
    15  N   -0.145892   0.008929
    16  C    0.037428   0.312241
    17  N   -0.184284   0.034691
    18  H   -0.019958   0.144577
    19  H   -0.020197   0.154202
    20  H   -0.071239   0.220636
    21  H    0.159044   0.010914
    22  H    0.021253   0.122285
    23  H    0.095618   0.152127
    24  H   -0.135775   0.300416
    25  H   -0.145136   0.308328
    26  H   -0.101831   0.311229
    27  H    0.261002   0.046329
    28  H    0.100211   0.063983
    29  H    0.208800  -0.004847
    30  H   -0.704112   0.889506
    31  H    0.135319   0.023661
    32  H    0.194475  -0.000419
    33  H   -0.704799   0.902664
    34  H   -0.710961   1.055115
 Sum of Mulliken charges =  -1.00000   1.00000

 Dipole moment (field-independent basis, Debye):
    X=             -5.1624    Y=              2.7155    Z=              4.8875  Tot=              7.6100
 Quadrupole moment (field-independent basis, Debye-Ang):
   XX=           -180.2796   YY=           -146.3410   ZZ=           -151.8061
   XY=             13.2060   XZ=             15.8080   YZ=            -11.5877

 Summary of Natural Population Analysis:

                                       Natural Population
                Natural  -----------------------------------------------
    Atom  No    Charge         Core      Valence    Rydberg      Total
 -----------------------------------------------------------------------
      C    1   -0.28729      0.99967     2.28342    0.00419     3.28729
      C    2   -0.19383      0.99964     2.18648    0.00770     3.19383
      C    3   -0.19758      0.99961     2.18891    0.00906     3.19758
      C    4   -0.09160      0.99961     2.08028    0.01170     3.09160
      N    5   -0.31859      0.99966     2.80963    0.00930     3.81859
      C    6    0.34875      0.99967     1.62835    0.02323     2.65125
      O    7   -0.32860      0.99988     3.32313    0.00559     4.32860
      C    8   -0.24008      0.99955     2.23171    0.00882     3.24008
      C    9   -0.02051      0.99952     2.01129    0.00970     3.02051
      C   10   -0.11144      0.99946     2.10156    0.01042     3.11144
      C   11    0.06511      0.99946     1.92219    0.01324     2.93489
      C   12    0.05165      0.99945     1.93475    0.01415     2.94835
      C   13   -0.09222      0.99952     2.08467    0.00802     3.09222
      C   14   -0.11599      0.99952     2.10862    0.00785     3.11599
      N   15   -0.25867      0.99971     2.74945    0.00951     3.75867
      C   16    0.13020      0.99965     1.85241    0.01775     2.86980
      N   17   -0.27310      0.99966     2.76217    0.01127     3.77310
      H   18    0.09262      0.00000     0.40630    0.00108     0.40738
      H   19    0.09799      0.00000     0.40118    0.00083     0.40201
      H   20    0.09845      0.00000     0.40042    0.00113     0.40155
      H   21    0.09313      0.00000     0.40558    0.00129     0.40687
      H   22    0.09914      0.00000     0.39994    0.00092     0.40086
      H   23    0.10712      0.00000     0.39013    0.00274     0.39288
      H   24    0.09968      0.00000     0.39905    0.00127     0.40032
      H   25    0.10503      0.00000     0.39334    0.00163     0.39497
      H   26    0.09555      0.00000     0.40328    0.00117     0.40445
      H   27    0.19091      0.00000     0.30660    0.00250     0.30909
      H   28    0.10898      0.00000     0.38984    0.00118     0.39102
      H   29    0.11540      0.00000     0.38355    0.00105     0.38460
      H   30    0.10758      0.00000     0.39031    0.00211     0.39242
      H   31    0.10317      0.00000     0.39575    0.00108     0.39683
      H   32    0.10612      0.00000     0.39263    0.00125     0.39388
      H   33    0.09536      0.00000     0.40308    0.00156     0.40464
      H   34    0.21754      0.00000     0.23683    0.04563     0.28246
 =======================================================================
   * Total *   -0.00000     16.99323    44.75683    0.24994    62.00000

 Normal termination of Gaussian 16 at Fri Dec 11 13:09:55 2020.
