 Gaussian 16, Revision A.03,

 -----------------------------------------------------------
 # opt freq B3LYP/6-31G(d) empiricaldispersion=gd3bj scf=xqc
 -----------------------------------------------------------

 -------------------------------
 CID_130517657_JID_1130_neutraal
 -------------------------------
 Symbolic Z-matrix:
 Charge =  0 Multiplicity = 1

 SCF Done:  E(RB3LYP) =  -517.899687933     A.U. after   14 cycles
 SCF Done:  E(RB3LYP) =  -517.902389805     A.U. after   12 cycles
 SCF Done:  E(RB3LYP) =  -517.903692126     A.U. after   12 cycles
 SCF Done:  E(RB3LYP) =  -517.904470199     A.U. after   12 cycles
 SCF Done:  E(RB3LYP) =  -517.904699932     A.U. after   12 cycles
 SCF Done:  E(RB3LYP) =  -517.904859874     A.U. after   11 cycles
 SCF Done:  E(RB3LYP) =  -517.904912230     A.U. after   11 cycles
 SCF Done:  E(RB3LYP) =  -517.904928801     A.U. after   10 cycles
 SCF Done:  E(RB3LYP) =  -517.904942128     A.U. after   10 cycles
 SCF Done:  E(RB3LYP) =  -517.904954310     A.U. after    9 cycles
 SCF Done:  E(RB3LYP) =  -517.904959375     A.U. after    9 cycles
 SCF Done:  E(RB3LYP) =  -517.904963793     A.U. after    9 cycles
 SCF Done:  E(RB3LYP) =  -517.904970951     A.U. after    9 cycles
 SCF Done:  E(RB3LYP) =  -517.904976743     A.U. after    9 cycles
 SCF Done:  E(RB3LYP) =  -517.904977664     A.U. after    8 cycles
 Optimization completed.
    -- Stationary point found.
 Normal termination of Gaussian 16 at Tue Dec  8 19:15:52 2020.

 --------------------------------------------------------------------
 #N Geom=AllCheck Guess=TCheck SCRF=Check GenChk RB3LYP/6-31G(d) Freq
 --------------------------------------------------------------------

 Structure from the checkpoint file:  "JID_1130.chk"
 -------------------------------
 CID_130517657_JID_1130_neutraal
 -------------------------------
 Charge =  0 Multiplicity = 1

 SCF Done:  E(RB3LYP) =  -517.904977664     A.U. after    1 cycles

  Exact polarizability: 115.764  -3.223  89.349   3.700   4.586  72.147
 Approx polarizability: 148.373  -1.404 140.422   8.893  13.832 108.269

                      1                      2                      3
                      A                      A                      A
 Frequencies --     49.3856                68.7325                94.7540
 Red. masses --      3.4319                 3.0344                 1.3724
 Frc consts  --      0.0049                 0.0084                 0.0073
 IR Inten    --      1.6292                 0.9215                 0.4658

                      4                      5                      6
                      A                      A                      A
 Frequencies --    106.9189               163.2534               220.6390
 Red. masses --      2.1386                 3.5191                 1.1397
 Frc consts  --      0.0144                 0.0553                 0.0327
 IR Inten    --      0.6414                 0.3815                 0.4658

                      7                      8                      9
                      A                      A                      A
 Frequencies --    233.5484               241.2431               285.6338
 Red. masses --      2.6806                 1.1563                 3.4751
 Frc consts  --      0.0861                 0.0396                 0.1670
 IR Inten    --      4.8339                 6.7409                 3.4128

                     10                     11                     12
                      A                      A                      A
 Frequencies --    307.4608               320.4148               339.2663
 Red. masses --      2.5292                 2.8220                 3.8176
 Frc consts  --      0.1409                 0.1707                 0.2589
 IR Inten    --      8.3651                 1.0374                 1.7197

                     13                     14                     15
                      A                      A                      A
 Frequencies --    374.4811               419.0148               486.6993
 Red. masses --      1.2852                 2.6513                 4.1799
 Frc consts  --      0.1062                 0.2743                 0.5834
 IR Inten    --    132.4932                 0.6768                 3.9542

                     16                     17                     18
                      A                      A                      A
 Frequencies --    608.3196               640.6039               683.1664
 Red. masses --      2.8210                 3.1888                 4.7022
 Frc consts  --      0.6151                 0.7710                 1.2930
 IR Inten    --      5.1948                 7.8320                 6.8832

                     19                     20                     21
                      A                      A                      A
 Frequencies --    714.3990               753.7312               810.0095
 Red. masses --      4.5720                 1.3795                 3.7480
 Frc consts  --      1.3748                 0.4618                 1.4489
 IR Inten    --      4.7959                19.5572                 3.8970

                     22                     23                     24
                      A                      A                      A
 Frequencies --    837.0536               940.1681               943.5021
 Red. masses --      3.8630                 1.7523                 1.9324
 Frc consts  --      1.5947                 0.9126                 1.0135
 IR Inten    --     19.5878                26.5216                 8.8801

                     25                     26                     27
                      A                      A                      A
 Frequencies --    950.2471               979.8433              1029.1872
 Red. masses --      1.9209                 1.4819                 3.4724
 Frc consts  --      1.0219                 0.8383                 2.1670
 IR Inten    --     13.7598                 0.3045                25.6206

                     28                     29                     30
                      A                      A                      A
 Frequencies --   1040.7110              1056.2784              1079.9402
 Red. masses --      2.8068                 2.0919                 1.5066
 Frc consts  --      1.7911                 1.3751                 1.0353
 IR Inten    --     20.8565                12.6829                 2.9717

                     31                     32                     33
                      A                      A                      A
 Frequencies --   1115.8021              1132.5087              1161.1244
 Red. masses --      1.7981                 4.2314                 2.2212
 Frc consts  --      1.3190                 3.1976                 1.7644
 IR Inten    --     42.3119                24.3572                24.7700

                     34                     35                     36
                      A                      A                      A
 Frequencies --   1218.0403              1221.1392              1256.0937
 Red. masses --      1.8494                 1.8019                 1.6053
 Frc consts  --      1.6166                 1.5831                 1.4923
 IR Inten    --      4.4692                 3.9996                17.4624

                     37                     38                     39
                      A                      A                      A
 Frequencies --   1300.2176              1325.7426              1355.5224
 Red. masses --      2.8801                 1.3558                 3.1989
 Frc consts  --      2.8688                 1.4040                 3.4631
 IR Inten    --     11.3831                 1.6853                39.4470

                     40                     41                     42
                      A                      A                      A
 Frequencies --   1385.2305              1389.8777              1427.9873
 Red. masses --      1.6024                 1.4369                 1.3002
 Frc consts  --      1.8116                 1.6354                 1.5621
 IR Inten    --      4.4195                 1.8828                 6.4749

                     43                     44                     45
                      A                      A                      A
 Frequencies --   1436.5453              1439.1469              1448.1094
 Red. masses --      1.2449                 1.3251                 1.2536
 Frc consts  --      1.5136                 1.6170                 1.5488
 IR Inten    --     40.4384                 8.5736                 4.6490

                     46                     47                     48
                      A                      A                      A
 Frequencies --   1505.2517              1510.7544              1518.7420
 Red. masses --      1.0434                 1.1032                 1.0429
 Frc consts  --      1.3929                 1.4835                 1.4173
 IR Inten    --      7.4141                 9.6411                 1.5401

                     49                     50                     51
                      A                      A                      A
 Frequencies --   1526.1755              1538.9055              1543.2903
 Red. masses --      1.0521                 1.0433                 1.0556
 Frc consts  --      1.4438                 1.4558                 1.4814
 IR Inten    --      0.8228                 9.5057                 3.6765

                     52                     53                     54
                      A                      A                      A
 Frequencies --   1631.6088              1640.7111              3037.1078
 Red. masses --      6.7781                 8.1425                 1.0427
 Frc consts  --     10.6314                12.9144                 5.6665
 IR Inten    --     37.4760                35.5418                26.4579

                     55                     56                     57
                      A                      A                      A
 Frequencies --   3048.0750              3053.7237              3060.6758
 Red. masses --      1.0410                 1.0783                 1.0385
 Frc consts  --      5.6984                 5.9245                 5.7317
 IR Inten    --     19.3541                28.9068                16.3222

                     58                     59                     60
                      A                      A                      A
 Frequencies --   3065.1592              3103.7765              3112.1010
 Red. masses --      1.0829                 1.0945                 1.1020
 Frc consts  --      5.9942                 6.2120                 6.2884
 IR Inten    --     11.9284                23.8181                35.1134

                     61                     62                     63
                      A                      A                      A
 Frequencies --   3114.4213              3125.1551              3127.2032
 Red. masses --      1.1014                 1.1018                 1.1025
 Frc consts  --      6.2945                 6.3398                 6.3526
 IR Inten    --     10.8806                28.5559                37.1292

                     64                     65                     66
                      A                      A                      A
 Frequencies --   3171.7460              3326.5613              3727.4828
 Red. masses --      1.1001                 1.0997                 1.0653
 Frc consts  --      6.5205                 7.1699                 8.7210
 IR Inten    --      4.0210                 0.7355                 7.9710

 - Thermochemistry -
 -------------------
 Temperature   298.150 Kelvin.  Pressure   1.00000 Atm.
 Atom     1 has atomic number  6 and mass  12.00000

 Molecular mass:   155.09463 amu.
 Principal axes and moments of inertia in atomic units:
                           1         2         3
     Eigenvalues --   801.749862787.522153178.30758
           X            1.00000  -0.00027  -0.00253
           Y            0.00026   0.99999  -0.00418
           Z            0.00253   0.00418   0.99999
 This molecule is an asymmetric top.
 Rotational symmetry number  1.
 Warning -- assumption of classical behavior for rotation
           may cause significant error
 Rotational temperatures (Kelvin)      0.10803     0.03107     0.02725
 Rotational constants (GHZ):           2.25100     0.64744     0.56783
 Zero-point vibrational energy     537603.7 (Joules/Mol)
                                  128.49037 (Kcal/Mol)
 Warning -- explicit consideration of  16 degrees of freedom as
           vibrations may cause significant error
 Vibrational temperatures:     71.05    98.89   136.33   153.83   234.89
          (Kelvin)            317.45   336.02   347.09   410.96   442.37
                              461.01   488.13   538.79   602.87   700.25
                              875.24   921.69   982.92  1027.86  1084.45
                             1165.42  1204.33  1352.69  1357.49  1367.19
                             1409.78  1480.77  1497.35  1519.75  1553.79
                             1605.39  1629.43  1670.60  1752.49  1756.95
                             1807.24  1870.72  1907.45  1950.29  1993.04
                             1999.72  2054.56  2066.87  2070.61  2083.51
                             2165.72  2173.64  2185.13  2195.83  2214.14
                             2220.45  2347.52  2360.62  4369.72  4385.50
                             4393.63  4403.63  4410.08  4465.64  4477.62
                             4480.96  4496.40  4499.35  4563.44  4786.18
                             5363.02

 Zero-point correction=                           0.204762 (Hartree/Particle)
 Thermal correction to Energy=                    0.216599
 Thermal correction to Enthalpy=                  0.217543
 Thermal correction to Gibbs Free Energy=         0.166807
 Sum of electronic and zero-point Energies=           -517.700215
 Sum of electronic and thermal Energies=              -517.688379
 Sum of electronic and thermal Enthalpies=            -517.687435
 Sum of electronic and thermal Free Energies=         -517.738170

                     E (Thermal)             CV                S
                      KCal/Mol        Cal/Mol-Kelvin    Cal/Mol-Kelvin
 Total                  135.918             43.313            106.782
 Electronic               0.000              0.000              0.000
 Translational            0.889              2.981             41.026
 Rotational               0.889              2.981             30.342
 Vibrational            134.140             37.351             35.414
 Vibration     1          0.595              1.978              4.842
 Vibration     2          0.598              1.969              4.189
 Vibration     3          0.603              1.953              3.559
 Vibration     4          0.606              1.944              3.324
 Vibration     5          0.623              1.888              2.512
 Vibration     6          0.647              1.810              1.954
 Vibration     7          0.654              1.790              1.852
 Vibration     8          0.658              1.777              1.794
 Vibration     9          0.683              1.700              1.500
 Vibration    10          0.697              1.660              1.376
 Vibration    11          0.706              1.634              1.308
 Vibration    12          0.719              1.597              1.216
 Vibration    13          0.746              1.524              1.061
 Vibration    14          0.782              1.429              0.895
 Vibration    15          0.843              1.280              0.692
 Vibration    16          0.967              1.014              0.436

                           ! Non-Optimized Parameters !
 Normal termination of Gaussian 16 at Tue Dec  8 19:20:43 2020.

 ----------------------------------------------------------------------
 # B3LYP/6-311++G(d,p) empiricaldispersion=gd3bj scf=xqc pop=npa geom=c
 heck
 ----------------------------------------------------------------------

 ---------------------------------------
 CID_130517657_JID_1130_Energie_neutraal
 ---------------------------------------
 Structure from the checkpoint file:  "JID_1130.chk"
 Charge =  0 Multiplicity = 1

 SCF Done:  E(RB3LYP) =  -518.059270608     A.U. after   15 cycles
 Normal termination of Gaussian 16 at Tue Dec  8 19:23:01 2020.

 ----------------------------------------------------------------------
 # B3LYP/6-311++G(d,p) empiricaldispersion=gd3bj scf=xqc pop=npa geom=c
 heck
 ----------------------------------------------------------------------

 -------------------------------------
 CID_130517657_JID_1130_Energie_kation
 -------------------------------------
 Structure from the checkpoint file:  "JID_1130.chk"
 Charge =  1 Multiplicity = 2

 SCF Done:  E(UB3LYP) =  -517.737830561     A.U. after   22 cycles
 Normal termination of Gaussian 16 at Tue Dec  8 19:27:56 2020.
 Gaussian 16:  ES64L-G16RevA.03 25-Dec-2016

 ----------------------------------------------------------------------
 # B3LYP/6-311++G(d,p) empiricaldispersion=gd3bj scf=xqc pop=npa geom=c
 heck
 ----------------------------------------------------------------------

 ------------------------------------
 CID_130517657_JID_1130_Energie_anion
 ------------------------------------
 Structure from the checkpoint file:  "JID_1130.chk"
 Charge = -1 Multiplicity = 2

                         Standard orientation:
 ---------------------------------------------------------------------
 Center     Atomic      Atomic             Coordinates (Angstroms)
 Number     Number       Type             X           Y           Z
 ---------------------------------------------------------------------
      1          6           0        3.541190   -1.185946   -0.127345
      2          6           0        2.306726   -0.357838   -0.118429
      3          7           0        1.104360   -0.690101   -0.482579
      4          6           0        0.331276    0.453931   -0.270462
      5          6           0        1.130931    1.433348    0.222274
      6          8           0        2.406335    0.926828    0.327642
      7          6           0       -1.141539    0.510213   -0.563905
      8          6           0       -1.881783   -0.770476   -0.119240
      9          6           0       -1.812732   -0.971367    1.400119
     10          6           0       -3.330892   -0.746677   -0.614554
     11          8           0       -1.704934    1.701023   -0.009755
     12          1           0        4.311232   -0.738199   -0.765556
     13          1           0        3.959804   -1.280702    0.880936
     14          1           0        3.296910   -2.179330   -0.506946
     15          1           0        0.987544    2.461244    0.509249
     16          1           0       -1.285532    0.622692   -1.645889
     17          1           0       -1.349760   -1.604197   -0.593562
     18          1           0       -2.345566   -0.173443    1.934887
     19          1           0       -2.289552   -1.915272    1.684044
     20          1           0       -0.777796   -0.996617    1.756754
     21          1           0       -3.375648   -0.685726   -1.708320
     22          1           0       -3.866219   -1.651052   -0.304750
     23          1           0       -3.860631    0.122487   -0.210462
     24          1           0       -1.605573    1.634894    0.953828
 ---------------------------------------------------------------------

 SCF Done:  E(UB3LYP) =  -518.043398253     A.U. after   31 cycles

 The electronic state is 2-A.
 Alpha  occ. eigenvalues --  -19.09594 -19.02589 -14.20801 -10.16396 -10.12959
 Alpha  occ. eigenvalues --  -10.12232 -10.10088 -10.07900 -10.07432 -10.05892
 Alpha  occ. eigenvalues --  -10.05545  -1.02998  -0.93011  -0.82198  -0.70827
 Alpha  occ. eigenvalues --   -0.68985  -0.62104  -0.58793  -0.58479  -0.51240
 Alpha  occ. eigenvalues --   -0.47964  -0.46674  -0.42870  -0.38947  -0.37938
 Alpha  occ. eigenvalues --   -0.36930  -0.36089  -0.33370  -0.32625  -0.30948
 Alpha  occ. eigenvalues --   -0.30929  -0.30315  -0.29168  -0.28004  -0.26918
 Alpha  occ. eigenvalues --   -0.24532  -0.23811  -0.23110  -0.21335  -0.19474
 Alpha  occ. eigenvalues --   -0.18313  -0.14008   0.04614
 Alpha virt. eigenvalues --    0.06484   0.07514   0.08281   0.08863   0.09667
 Alpha virt. eigenvalues --    0.09879   0.09997   0.10533   0.12115   0.12211
 Alpha virt. eigenvalues --    0.12548   0.13039   0.13421   0.14461   0.15387

  Beta  occ. eigenvalues --  -19.09584 -19.02562 -14.20792 -10.16395 -10.12951
  Beta  occ. eigenvalues --  -10.12212 -10.10090 -10.07843 -10.07429 -10.05872
  Beta  occ. eigenvalues --  -10.05501  -1.02986  -0.92954  -0.82183  -0.70797
  Beta  occ. eigenvalues --   -0.68952  -0.62045  -0.58728  -0.58430  -0.51217
  Beta  occ. eigenvalues --   -0.47916  -0.46624  -0.42822  -0.38918  -0.37903
  Beta  occ. eigenvalues --   -0.36894  -0.36043  -0.33333  -0.32576  -0.30897
  Beta  occ. eigenvalues --   -0.30884  -0.30274  -0.29135  -0.27966  -0.26885
  Beta  occ. eigenvalues --   -0.24499  -0.23779  -0.23087  -0.21319  -0.19453
  Beta  occ. eigenvalues --   -0.18288  -0.13982
  Beta virt. eigenvalues --    0.06839   0.07616   0.08256   0.08734   0.09144
  Beta virt. eigenvalues --    0.10016   0.10409   0.10705   0.11060   0.12434
  Beta virt. eigenvalues --    0.12639   0.12928   0.13356   0.13766   0.14541

 Mulliken charges and spin densities:
               1          2
     1  C    4.461041  -5.015869
     2  C   -2.192602   2.152381
     3  N   -0.171072   0.178807
     4  C   -1.018373   0.594312
     5  C   -1.225493   1.171481
     6  O   -0.061544   0.026931
     7  C    2.716760  -2.544522
     8  C   -2.140274   2.247446
     9  C    1.224496  -1.846242
    10  C    0.330744  -0.917163
    11  O   -0.176362  -0.005890
    12  H   -0.577479   0.749727
    13  H   -0.530965   0.708399
    14  H   -0.163585   0.328821
    15  H   -0.710401   0.908560
    16  H    0.056074   0.163550
    17  H    0.118875   0.058932
    18  H   -0.301641   0.430858
    19  H   -0.277900   0.424434
    20  H   -0.160310   0.340720
    21  H   -0.039047   0.152042
    22  H   -0.192572   0.325495
    23  H    0.070238   0.095050
    24  H   -0.038608   0.271740
 Sum of Mulliken charges =  -1.00000   1.00000

 Dipole moment (field-independent basis, Debye):
    X=             -2.9077    Y=              1.3705    Z=             -2.3941  Tot=              4.0081
 Quadrupole moment (field-independent basis, Debye-Ang):
   XX=           -142.4169   YY=           -106.4122   ZZ=            -99.2242
   XY=              5.7523   XZ=              3.0314   YZ=              1.8631

 Summary of Natural Population Analysis:

                                       Natural Population
                Natural  -----------------------------------------------
    Atom  No    Charge         Core      Valence    Rydberg      Total
 -----------------------------------------------------------------------
      C    1   -0.31275      0.99962     2.30736    0.00577     3.31275
      C    2    0.27686      0.99961     1.70435    0.01917     2.72314
      N    3   -0.26060      0.99967     2.75100    0.00993     3.76060
      C    4    0.03045      0.99950     1.95488    0.01518     2.96955
      C    5    0.04323      0.99941     1.94403    0.01333     2.95677
      O    6   -0.23868      0.99986     3.23054    0.00827     4.23868
      C    7    0.05814      0.99949     1.92739    0.01498     2.94186
      C    8   -0.12501      0.99960     2.11471    0.01069     3.12501
      C    9   -0.29252      0.99965     2.28591    0.00697     3.29252
      C   10   -0.28369      0.99965     2.27914    0.00490     3.28369
      O   11   -0.37034      0.99990     3.36393    0.00651     4.37034
      H   12    0.11253      0.00000     0.38497    0.00250     0.38747
      H   13    0.11387      0.00000     0.38382    0.00231     0.38613
      H   14    0.11484      0.00000     0.38377    0.00139     0.38516
      H   15    0.10416      0.00000     0.39440    0.00144     0.39584
      H   16    0.09440      0.00000     0.40418    0.00142     0.40560
      H   17    0.10535      0.00000     0.39227    0.00238     0.39465
      H   18    0.09372      0.00000     0.40455    0.00172     0.40628
      H   19    0.10291      0.00000     0.39588    0.00121     0.39709
      H   20    0.10638      0.00000     0.39207    0.00155     0.39362
      H   21    0.09614      0.00000     0.40288    0.00098     0.40386
      H   22    0.09842      0.00000     0.40063    0.00095     0.40158
      H   23    0.10221      0.00000     0.39663    0.00116     0.39779
      H   24    0.22997      0.00000     0.26580    0.00423     0.27003
 =======================================================================
   * Total *    0.00000     10.99595    30.86511    0.13894    42.00000

 Normal termination of Gaussian 16 at Tue Dec  8 19:34:27 2020.
