 Gaussian 16, Revision A.03,

 -----------------------------------------------------------
 # opt freq B3LYP/6-31G(d) empiricaldispersion=gd3bj scf=xqc
 -----------------------------------------------------------

 ------------------------------
 CID_76224164_JID_1545_neutraal
 ------------------------------
 Symbolic Z-matrix:
 Charge =  0 Multiplicity = 1

 SCF Done:  E(RB3LYP) =  -459.697855407     A.U. after   14 cycles
 SCF Done:  E(RB3LYP) =  -459.701467616     A.U. after   12 cycles
 SCF Done:  E(RB3LYP) =  -459.701844298     A.U. after   11 cycles
 SCF Done:  E(RB3LYP) =  -459.702362103     A.U. after   12 cycles
 SCF Done:  E(RB3LYP) =  -459.702301213     A.U. after   12 cycles
 SCF Done:  E(RB3LYP) =  -459.703354997     A.U. after   12 cycles
 SCF Done:  E(RB3LYP) =  -459.670860078     A.U. after   15 cycles
 SCF Done:  E(RB3LYP) =  -459.704908004     A.U. after   13 cycles
 SCF Done:  E(RB3LYP) =  -459.691782231     A.U. after   14 cycles
 SCF Done:  E(RB3LYP) =  -459.705823395     A.U. after   12 cycles
 SCF Done:  E(RB3LYP) =  -459.708689688     A.U. after   11 cycles
 SCF Done:  E(RB3LYP) =  -459.708717025     A.U. after   10 cycles
 SCF Done:  E(RB3LYP) =  -459.708722605     A.U. after    9 cycles
 SCF Done:  E(RB3LYP) =  -459.708723833     A.U. after    8 cycles
 SCF Done:  E(RB3LYP) =  -459.708724127     A.U. after    7 cycles
 SCF Done:  E(RB3LYP) =  -459.708724294     A.U. after    7 cycles
 Optimization completed.
    -- Stationary point found.

 1\1\GINC-NODE123\FOpt\RB3LYP\6-31G(d)\C9H12N2\VSC10255\08-Dec-2020\0\\
 # opt freq B3LYP/6-31G(d) empiricaldispersion=gd3bj scf=xqc\\CID_76224
 164_JID_1545_neutraal\\0,1\C,1.2207223906,0.0015725257,0.1892691912\C,
 0.4505405884,-0.2885824243,1.4508560875\C,0.2278522594,0.7032487982,2.
 3575336624\C,-0.5027803872,0.6316511654,3.614782276\C,-0.1810247696,1.
 5233361944,4.658870938\C,-0.863834013,1.4590457074,5.8660495719\N,-1.8
 511526336,0.5879497639,6.1302969115\C,-2.1815645751,-0.2397335869,5.13
 21524777\C,-1.5615187554,-0.2607457714,3.8844842804\N,-0.0099894028,-1

 Normal termination of Gaussian 16 at Tue Dec  8 20:22:43 2020.

 --------------------------------------------------------------------
 #N Geom=AllCheck Guess=TCheck SCRF=Check GenChk RB3LYP/6-31G(d) Freq
 --------------------------------------------------------------------

 Structure from the checkpoint file:  "JID_1545.chk"
 ------------------------------
 CID_76224164_JID_1545_neutraal
 ------------------------------
 Charge =  0 Multiplicity = 1

 SCF Done:  E(RB3LYP) =  -459.708724294     A.U. after    1 cycles

  Exact polarizability: 175.885  -2.776 108.830   4.807  -7.434  56.972
 Approx polarizability: 261.355  -5.865 177.309  12.782 -16.998  86.669

                      1                      2                      3
                      A                      A                      A
 Frequencies --     52.3765                94.0661               114.0972
 Red. masses --      3.3724                 3.2454                 3.2835
 Frc consts  --      0.0055                 0.0169                 0.0252
 IR Inten    --      2.8504                 0.2095                 1.0282

                      4                      5                      6
                      A                      A                      A
 Frequencies --    157.9408               202.5888               227.3282
 Red. masses --      2.7394                 1.2752                 1.2199
 Frc consts  --      0.0403                 0.0308                 0.0371
 IR Inten    --      3.1919                 2.6691                 0.6208

                      7                      8                      9
                      A                      A                      A
 Frequencies --    250.2909               312.5752               339.8001
 Red. masses --      2.9540                 2.9047                 3.9306
 Frc consts  --      0.1090                 0.1672                 0.2674
 IR Inten    --      0.3801                 2.5733                 2.4620

                     10                     11                     12
                      A                      A                      A
 Frequencies --    356.6221               396.8997               499.5018
 Red. masses --      3.0802                 2.7458                 2.5162
 Frc consts  --      0.2308                 0.2549                 0.3699
 IR Inten    --      1.7781                 0.8749                13.7838

                     13                     14                     15
                      A                      A                      A
 Frequencies --    537.2896               595.9118               638.8631
 Red. masses --      2.8337                 2.7956                 3.2270
 Frc consts  --      0.4820                 0.5849                 0.7760
 IR Inten    --     21.6307                10.7221                59.4863

                     16                     17                     18
                      A                      A                      A
 Frequencies --    678.0280               699.3873               759.4499
 Red. masses --      3.8224                 2.9471                 2.1379
 Frc consts  --      1.0353                 0.8493                 0.7265
 IR Inten    --     13.2822                14.9915                 7.7750

                     19                     20                     21
                      A                      A                      A
 Frequencies --    777.3088               819.0304               865.1430
 Red. masses --      1.5587                 2.7272                 1.7787
 Frc consts  --      0.5549                 1.0779                 0.7844
 IR Inten    --     17.6426                23.2759                24.8379

                     22                     23                     24
                      A                      A                      A
 Frequencies --    889.0954               902.3318               981.0184
 Red. masses --      2.2299                 1.5884                 1.3123
 Frc consts  --      1.0386                 0.7620                 0.7441
 IR Inten    --      7.7645                 0.5309                 1.7992

                     25                     26                     27
                      A                      A                      A
 Frequencies --    991.7698              1013.6035              1045.9811
 Red. masses --      1.4784                 5.5858                 1.4319
 Frc consts  --      0.8567                 3.3812                 0.9230
 IR Inten    --      0.6939                16.3004                 3.3559

                     28                     29                     30
                      A                      A                      A
 Frequencies --   1077.2383              1100.3092              1105.9377
 Red. masses --      1.5125                 1.9458                 1.8687
 Frc consts  --      1.0341                 1.3880                 1.3467
 IR Inten    --      2.9894                 1.8564                 1.9085

                     31                     32                     33
                      A                      A                      A
 Frequencies --   1136.1177              1154.6302              1193.5617
 Red. masses --      1.5210                 1.3214                 2.7046
 Frc consts  --      1.1567                 1.0379                 2.2701
 IR Inten    --      0.1729                40.2792                38.5466

                     34                     35                     36
                      A                      A                      A
 Frequencies --   1250.8780              1261.8708              1291.6005
 Red. masses --      1.8512                 1.3214                 3.2178
 Frc consts  --      1.7066                 1.2397                 3.1627
 IR Inten    --     11.3837                20.4407                28.8288

                     37                     38                     39
                      A                      A                      A
 Frequencies --   1320.8653              1376.0529              1426.1651
 Red. masses --      4.1668                 1.3710                 1.4758
 Frc consts  --      4.2832                 1.5296                 1.7686
 IR Inten    --      2.8383                 0.6368                90.6660

                     40                     41                     42
                      A                      A                      A
 Frequencies --   1449.6720              1461.2577              1496.1107
 Red. masses --      1.4532                 2.0330                 1.1853
 Frc consts  --      1.7993                 2.5576                 1.5632
 IR Inten    --     60.8605                 5.8521                 5.3170

                     43                     44                     45
                      A                      A                      A
 Frequencies --   1509.3261              1514.8542              1519.8973
 Red. masses --      1.0588                 1.2810                 1.2536
 Frc consts  --      1.4211                 1.7319                 1.7062
 IR Inten    --      6.1783                48.8586                 1.6237

                     46                     47                     48
                      A                      A                      A
 Frequencies --   1531.6661              1543.1449              1558.5670
 Red. masses --      1.0473                 1.5633                 1.4317
 Frc consts  --      1.4476                 2.1933                 2.0490
 IR Inten    --      8.4505                12.9411                28.7768

                     49                     50                     51
                      A                      A                      A
 Frequencies --   1593.3258              1650.5135              1701.3561
 Red. masses --      5.0509                 5.1694                 4.5431
 Frc consts  --      7.5550                 8.2971                 7.7481
 IR Inten    --     19.7796               278.8109               274.8344

                     52                     53                     54
                      A                      A                      A
 Frequencies --   3003.9804              3046.1160              3094.5803
 Red. masses --      1.0560                 1.0403                 1.0998
 Frc consts  --      5.6145                 5.6875                 6.2054
 IR Inten    --     95.9458                35.5134                14.7515

                     55                     56                     57
                      A                      A                      A
 Frequencies --   3106.6191              3145.7976              3156.8045
 Red. masses --      1.0791                 1.1039                 1.0984
 Frc consts  --      6.1359                 6.4366                 6.4489
 IR Inten    --     36.3706                21.6952                 9.6056

                     58                     59                     60
                      A                      A                      A
 Frequencies --   3160.5300              3164.5960              3189.3144
 Red. masses --      1.0881                 1.0890                 1.0891
 Frc consts  --      6.4036                 6.4257                 6.5271
 IR Inten    --     39.4239                34.5107                 8.2383

                     61                     62                     63
                      A                      A                      A
 Frequencies --   3195.6016              3211.4529              3575.8928
 Red. masses --      1.0927                 1.0921                 1.0756
 Frc consts  --      6.5742                 6.6360                 8.1037
 IR Inten    --     31.7015                 8.5982                 8.1201

 - Thermochemistry -
 -------------------
 Temperature   298.150 Kelvin.  Pressure   1.00000 Atm.
 Atom     1 has atomic number  6 and mass  12.00000

 Molecular mass:   148.10005 amu.
 Principal axes and moments of inertia in atomic units:
                           1         2         3
     Eigenvalues --   692.263703051.094113593.33335
           X            0.99998  -0.00626  -0.00205
           Y            0.00626   0.99998   0.00046
           Z            0.00205  -0.00047   1.00000
 This molecule is an asymmetric top.
 Rotational symmetry number  1.
 Warning -- assumption of classical behavior for rotation
           may cause significant error
 Rotational temperatures (Kelvin)      0.12512     0.02839     0.02410
 Rotational constants (GHZ):           2.60701     0.59151     0.50225
 Zero-point vibrational energy     517232.4 (Joules/Mol)
                                  123.62151 (Kcal/Mol)
 Warning -- explicit consideration of  14 degrees of freedom as
           vibrations may cause significant error
 Vibrational temperatures:     75.36   135.34   164.16   227.24   291.48
          (Kelvin)            327.07   360.11   449.73   488.90   513.10
                              571.05   718.67   773.04   857.38   919.18
                              975.53  1006.26  1092.68  1118.37  1178.40
                             1244.75  1279.21  1298.25  1411.47  1426.94
                             1458.35  1504.93  1549.91  1583.10  1591.20
                             1634.62  1661.26  1717.27  1799.73  1815.55
                             1858.33  1900.43  1979.83  2051.93  2085.75
                             2102.42  2152.57  2171.58  2179.54  2186.79
                             2203.73  2220.24  2242.43  2292.44  2374.72
                             2447.87  4322.06  4382.68  4452.41  4469.73
                             4526.10  4541.94  4547.30  4553.15  4588.71
                             4597.76  4620.56  5144.91

 Zero-point correction=                           0.197003 (Hartree/Particle)
 Thermal correction to Energy=                    0.207528
 Thermal correction to Enthalpy=                  0.208472
 Thermal correction to Gibbs Free Energy=         0.160685
 Sum of electronic and zero-point Energies=           -459.511721
 Sum of electronic and thermal Energies=              -459.501196
 Sum of electronic and thermal Enthalpies=            -459.500252
 Sum of electronic and thermal Free Energies=         -459.548039

                     E (Thermal)             CV                S
                      KCal/Mol        Cal/Mol-Kelvin    Cal/Mol-Kelvin
 Total                  130.226             39.771            100.578
 Electronic               0.000              0.000              0.000
 Translational            0.889              2.981             40.889
 Rotational               0.889              2.981             30.407
 Vibrational            128.449             33.809             29.282
 Vibration     1          0.596              1.977              4.726
 Vibration     2          0.603              1.953              3.574
 Vibration     3          0.607              1.938              3.198
 Vibration     4          0.621              1.894              2.574
 Vibration     5          0.639              1.836              2.109
 Vibration     6          0.651              1.799              1.900
 Vibration     7          0.663              1.762              1.729
 Vibration     8          0.701              1.650              1.349
 Vibration     9          0.720              1.596              1.213
 Vibration    10          0.732              1.562              1.137
 Vibration    11          0.763              1.477              0.974
 Vibration    12          0.855              1.251              0.659
 Vibration    13          0.892              1.168              0.571
 Vibration    14          0.954              1.040              0.457

 Optimization completed.
    -- Stationary point found.

 1\1\GINC-NODE123\Freq\RB3LYP\6-31G(d)\C9H12N2\VSC10255\08-Dec-2020\0\\
 #N Geom=AllCheck Guess=TCheck SCRF=Check GenChk RB3LYP/6-31G(d) Freq\\
 CID_76224164_JID_1545_neutraal\\0,1\C,1.2207223906,0.0015725257,0.1892
 691912\C,0.4505405884,-0.2885824243,1.4508560875\C,0.2278522594,0.7032
 487982,2.3575336624\C,-0.5027803872,0.6316511654,3.614782276\C,-0.1810
 247696,1.5233361944,4.658870938\C,-0.863834013,1.4590457074,5.86604957
 19\N,-1.8511526336,0.5879497639,6.1302969115\C,-2.1815645751,-0.239733
 5869,5.1321524777\C,-1.5615187554,-0.2607457714,3.8844842804\N,-0.0099

 Normal termination of Gaussian 16 at Tue Dec  8 20:27:10 2020.

 ----------------------------------------------------------------------
 # B3LYP/6-311++G(d,p) empiricaldispersion=gd3bj scf=xqc pop=npa geom=c
 heck
 ----------------------------------------------------------------------

 --------------------------------------
 CID_76224164_JID_1545_Energie_neutraal
 --------------------------------------
 Structure from the checkpoint file:  "JID_1545.chk"
 Charge =  0 Multiplicity = 1

 SCF Done:  E(RB3LYP) =  -459.834489523     A.U. after   15 cycles
 Normal termination of Gaussian 16 at Tue Dec  8 20:30:40 2020.

 ----------------------------------------------------------------------
 # B3LYP/6-311++G(d,p) empiricaldispersion=gd3bj scf=xqc pop=npa geom=c
 heck
 ----------------------------------------------------------------------

 ------------------------------------
 CID_76224164_JID_1545_Energie_kation
 ------------------------------------
 Structure from the checkpoint file:  "JID_1545.chk"
 Charge =  1 Multiplicity = 2

 SCF Done:  E(UB3LYP) =  -459.563087056     A.U. after   23 cycles
 Normal termination of Gaussian 16 at Tue Dec  8 20:35:25 2020.
 Gaussian 16:  ES64L-G16RevA.03 25-Dec-2016

 -----------------------------------
 CID_76224164_JID_1545_Energie_anion
 -----------------------------------
 Structure from the checkpoint file:  "JID_1545.chk"
 Charge = -1 Multiplicity = 2

                         Standard orientation:
 ---------------------------------------------------------------------
 Center     Atomic      Atomic             Coordinates (Angstroms)
 Number     Number       Type             X           Y           Z
 ---------------------------------------------------------------------
      1          6           0       -3.025733   -1.319336   -0.275659
      2          6           0       -1.772191   -0.495192   -0.140043
      3          6           0       -0.550916   -1.094124   -0.211815
      4          6           0        0.765071   -0.477403   -0.125456
      5          6           0        1.860709   -1.236126    0.335700
      6          6           0        3.118883   -0.656974    0.431739
      7          7           0        3.392257    0.615521    0.100899
      8          6           0        2.362609    1.330825   -0.366743
      9          6           0        1.062089    0.849248   -0.502038
     10          7           0       -1.955190    0.866798    0.036639
     11          6           0       -3.201620    1.425404    0.538943
     12          1           0       -2.774597   -2.365238   -0.460377
     13          1           0       -3.640479   -0.964368   -1.112371
     14          1           0       -3.647639   -1.269331    0.626524
     15          1           0       -0.552731   -2.176437   -0.296985
     16          1           0        1.715932   -2.272652    0.628254
     17          1           0        3.960076   -1.243476    0.798628
     18          1           0        2.589517    2.354815   -0.661607
     19          1           0        0.309542    1.482911   -0.959185
     20          1           0       -1.132556    1.342379    0.385959
     21          1           0       -3.457501    1.094545    1.557817
     22          1           0       -3.110020    2.514647    0.545991
     23          1           0       -4.032423    1.168045   -0.123183
 ---------------------------------------------------------------------

 SCF Done:  E(UB3LYP) =  -459.826959897     A.U. after   32 cycles

 The electronic state is 2-A.
 Alpha  occ. eigenvalues --  -14.21016 -14.17420 -10.09433 -10.08268 -10.08169
 Alpha  occ. eigenvalues --  -10.08168 -10.06612 -10.05956 -10.05361 -10.05181
 Alpha  occ. eigenvalues --  -10.03470  -0.82113  -0.81462  -0.69785  -0.65530
 Alpha  occ. eigenvalues --   -0.63705  -0.59253  -0.56259  -0.50635  -0.49322
 Alpha  occ. eigenvalues --   -0.45416  -0.40533  -0.38257  -0.35442  -0.34935
 Alpha  occ. eigenvalues --   -0.33516  -0.32868  -0.30561  -0.29926  -0.28819
 Alpha  occ. eigenvalues --   -0.28663  -0.27973  -0.27288  -0.24334  -0.23521
 Alpha  occ. eigenvalues --   -0.20852  -0.17063  -0.14535  -0.13745  -0.08128
 Alpha  occ. eigenvalues --    0.04606
 Alpha virt. eigenvalues --    0.06873   0.08113   0.08411   0.09289   0.09707
 Alpha virt. eigenvalues --    0.09969   0.10506   0.11746   0.11907   0.12488
 Alpha virt. eigenvalues --    0.12890   0.13894   0.15037   0.15198   0.16180

  Beta  occ. eigenvalues --  -14.20991 -14.17217 -10.09250 -10.08194 -10.08161
  Beta  occ. eigenvalues --  -10.08150 -10.06429 -10.05934 -10.05356 -10.05166
  Beta  occ. eigenvalues --  -10.03521  -0.81965  -0.81203  -0.69526  -0.65325
  Beta  occ. eigenvalues --   -0.63590  -0.59150  -0.56129  -0.50584  -0.49068
  Beta  occ. eigenvalues --   -0.45303  -0.40427  -0.38158  -0.35337  -0.34810
  Beta  occ. eigenvalues --   -0.33316  -0.32753  -0.30529  -0.29769  -0.28751
  Beta  occ. eigenvalues --   -0.28543  -0.27779  -0.26930  -0.24201  -0.23436
  Beta  occ. eigenvalues --   -0.20371  -0.16303  -0.14218  -0.13516  -0.07809
  Beta virt. eigenvalues --    0.07427   0.08194   0.08618   0.08864   0.09714
  Beta virt. eigenvalues --    0.09886   0.10512   0.10792   0.12078   0.12288
  Beta virt. eigenvalues --    0.12690   0.13088   0.14224   0.15279   0.15434

 Mulliken charges and spin densities:
               1          2
     1  C    0.671478  -1.455908
     2  C   -1.143298   1.525909
     3  C    0.622792  -1.531756
     4  C    0.297733   0.381142
     5  C    0.089799   0.168850
     6  C   -0.522292  -0.024679
     7  N   -0.125878   0.090864
     8  C   -0.454255  -0.158754
     9  C   -0.106761   0.216822
    10  N   -0.370346   0.320384
    11  C    1.399692  -1.736861
    12  H   -0.015077   0.156634
    13  H   -0.330385   0.512066
    14  H   -0.054971   0.206678
    15  H    0.144939  -0.037933
    16  H    0.117250   0.019653
    17  H    0.124587  -0.002671
    18  H    0.088687   0.049115
    19  H    0.070731   0.122791
    20  H    0.192976   0.025376
    21  H   -0.455758   0.617649
    22  H   -0.762648   0.903007
    23  H   -0.478995   0.631623
 Sum of Mulliken charges =  -1.00000   1.00000

 Dipole moment (field-independent basis, Debye):
    X=              4.8402    Y=             -3.8180    Z=             -0.5358  Tot=              6.1881
 Quadrupole moment (field-independent basis, Debye-Ang):
   XX=           -148.3400   YY=            -92.4959   ZZ=            -90.1342
   XY=              6.1612   XZ=              1.0987   YZ=             -4.1450

 Summary of Natural Population Analysis:

                                       Natural Population
                Natural  -----------------------------------------------
    Atom  No    Charge         Core      Valence    Rydberg      Total
 -----------------------------------------------------------------------
      C    1   -0.30363      0.99963     2.29862    0.00538     3.30363
      C    2    0.15493      0.99950     1.83431    0.01126     2.84507
      C    3   -0.18361      0.99948     2.17374    0.01038     3.18361
      C    4    0.01721      0.99951     1.97244    0.01084     2.98279
      C    5   -0.12271      0.99953     2.11594    0.00724     3.12271
      C    6    0.02251      0.99959     1.96391    0.01399     2.97749
      N    7   -0.22657      0.99972     2.71601    0.01084     3.72657
      C    8    0.02160      0.99960     1.95992    0.01888     2.97840
      C    9   -0.14040      0.99952     2.13151    0.00937     3.14040
      N   10   -0.31242      0.99968     2.80127    0.01147     3.81242
      C   11   -0.17768      0.99965     2.16997    0.00807     3.17768
      H   12    0.10213      0.00000     0.39711    0.00076     0.39787
      H   13    0.10946      0.00000     0.38860    0.00194     0.39054
      H   14    0.10465      0.00000     0.39429    0.00107     0.39535
      H   15    0.09578      0.00000     0.40282    0.00140     0.40422
      H   16    0.09574      0.00000     0.40315    0.00111     0.40426
      H   17    0.08145      0.00000     0.41728    0.00127     0.41855
      H   18    0.08364      0.00000     0.41493    0.00143     0.41636
      H   19    0.10343      0.00000     0.39517    0.00140     0.39657
      H   20    0.18991      0.00000     0.30726    0.00283     0.31009
      H   21    0.08836      0.00000     0.40850    0.00313     0.41164
      H   22    0.09925      0.00000     0.39876    0.00199     0.40075
      H   23    0.09697      0.00000     0.40094    0.00208     0.40303
 =======================================================================
   * Total *   -0.00000     10.99542    28.86646    0.13813    40.00000

 Normal termination of Gaussian 16 at Tue Dec  8 20:42:14 2020.
