 Gaussian 16, Revision A.03,

 -----------------------------------------------------------
 # opt freq B3LYP/6-31G(d) empiricaldispersion=gd3bj scf=xqc
 -----------------------------------------------------------

 ------------------------------
 CID_79638822_JID_4351_neutraal
 ------------------------------
 Symbolic Z-matrix:
 Charge =  0 Multiplicity = 1

 SCF Done:  E(RB3LYP) =  -596.091109398     A.U. after   14 cycles
 SCF Done:  E(RB3LYP) =  -596.095486062     A.U. after   12 cycles
 SCF Done:  E(RB3LYP) =  -596.096051660     A.U. after   11 cycles
 SCF Done:  E(RB3LYP) =  -596.096348280     A.U. after   11 cycles
 SCF Done:  E(RB3LYP) =  -596.096605175     A.U. after   11 cycles
 SCF Done:  E(RB3LYP) =  -596.097098679     A.U. after   12 cycles
 SCF Done:  E(RB3LYP) =  -596.097555187     A.U. after   11 cycles
 SCF Done:  E(RB3LYP) =  -596.097669758     A.U. after   10 cycles
 SCF Done:  E(RB3LYP) =  -596.098002530     A.U. after   12 cycles
 SCF Done:  E(RB3LYP) =  -596.097869178     A.U. after   11 cycles
 SCF Done:  E(RB3LYP) =  -596.098205623     A.U. after   10 cycles
 SCF Done:  E(RB3LYP) =  -596.098212534     A.U. after   10 cycles
 SCF Done:  E(RB3LYP) =  -596.098212779     A.U. after    8 cycles
 SCF Done:  E(RB3LYP) =  -596.098212532     A.U. after    8 cycles
 SCF Done:  E(RB3LYP) =  -596.098212873     A.U. after    8 cycles
 SCF Done:  E(RB3LYP) =  -596.098212860     A.U. after    7 cycles
 Optimization completed.
    -- Stationary point found.
 Normal termination of Gaussian 16 at Thu Dec 10 09:34:49 2020.

 --------------------------------------------------------------------
 #N Geom=AllCheck Guess=TCheck SCRF=Check GenChk RB3LYP/6-31G(d) Freq
 --------------------------------------------------------------------

 Structure from the checkpoint file:  "JID_4351.chk"
 ------------------------------
 CID_79638822_JID_4351_neutraal
 ------------------------------
 Charge =  0 Multiplicity = 1

 SCF Done:  E(RB3LYP) =  -596.098212860     A.U. after    1 cycles

  Exact polarizability: 151.397   4.204 129.676  -0.975  -1.707 108.181
 Approx polarizability: 182.196  10.436 195.517  -2.108  -4.026 163.275

                      1                      2                      3
                      A                      A                      A
 Frequencies --     20.0857                30.2544                69.4838
 Red. masses --      3.2326                 3.0774                 2.6427
 Frc consts  --      0.0008                 0.0017                 0.0075
 IR Inten    --      0.1435                 0.4285                 0.4024

                      4                      5                      6
                      A                      A                      A
 Frequencies --     86.1160               109.9548               114.7406
 Red. masses --      2.8052                 2.6277                 5.2946
 Frc consts  --      0.0123                 0.0187                 0.0411
 IR Inten    --      0.5879                 0.0379                 4.7571

                      7                      8                      9
                      A                      A                      A
 Frequencies --    154.7678               173.2817               214.3632
 Red. masses --      3.6331                 1.8518                 2.3068
 Frc consts  --      0.0513                 0.0328                 0.0625
 IR Inten    --      4.2915                 1.1049                 1.7876

                     10                     11                     12
                      A                      A                      A
 Frequencies --    242.6401               253.1078               263.0336
 Red. masses --      1.2099                 1.6911                 1.3051
 Frc consts  --      0.0420                 0.0638                 0.0532
 IR Inten    --      1.2143                 0.5357                 2.7297

                     13                     14                     15
                      A                      A                      A
 Frequencies --    271.7382               300.2375               308.0241
 Red. masses --      2.4254                 1.8186                 2.1228
 Frc consts  --      0.1055                 0.0966                 0.1187
 IR Inten    --      0.7153                 1.0532                 2.6163

                     16                     17                     18
                      A                      A                      A
 Frequencies --    357.0262               396.6039               422.8646
 Red. masses --      2.6360                 2.2855                 3.1570
 Frc consts  --      0.1980                 0.2118                 0.3326
 IR Inten    --      0.9139                 3.3736                 1.4519

                     19                     20                     21
                      A                      A                      A
 Frequencies --    436.2123               460.4617               502.6184
 Red. masses --      2.6324                 2.7340                 2.9704
 Frc consts  --      0.2951                 0.3415                 0.4421
 IR Inten    --      3.9168                 0.3839                 1.8152

                     22                     23                     24
                      A                      A                      A
 Frequencies --    511.8623               573.2166               631.9937
 Red. masses --      3.2744                 4.3344                 3.9263
 Frc consts  --      0.5055                 0.8391                 0.9240
 IR Inten    --      6.0430                 2.0631                 2.2037

                     25                     26                     27
                      A                      A                      A
 Frequencies --    655.2705               723.4863               753.8425
 Red. masses --      2.7687                 2.1461                 1.7601
 Frc consts  --      0.7004                 0.6619                 0.5893
 IR Inten    --      1.6855                 5.2576                24.2274

                     28                     29                     30
                      A                      A                      A
 Frequencies --    793.3690               812.7500               864.9457
 Red. masses --      1.2216                 2.8287                 2.1132
 Frc consts  --      0.4531                 1.1009                 0.9315
 IR Inten    --     32.1354                 3.8028                 7.6139

                     31                     32                     33
                      A                      A                      A
 Frequencies --    897.2537               906.2218               924.1200
 Red. masses --      2.5895                 2.4242                 1.4877
 Frc consts  --      1.2283                 1.1730                 0.7486
 IR Inten    --      3.7027                 6.3627                 6.0105

                     34                     35                     36
                      A                      A                      A
 Frequencies --    951.5566               990.1375              1004.8413
 Red. masses --      1.8278                 1.9801                 2.1677
 Frc consts  --      0.9751                 1.1437                 1.2896
 IR Inten    --      4.9870                 0.8453                 7.6132

                     37                     38                     39
                      A                      A                      A
 Frequencies --   1025.7339              1038.4832              1063.8461
 Red. masses --      1.6750                 2.7852                 2.0526
 Frc consts  --      1.0383                 1.7697                 1.3687
 IR Inten    --      3.1936                 4.6659                44.1254

                     40                     41                     42
                      A                      A                      A
 Frequencies --   1079.2149              1092.3879              1105.7007
 Red. masses --      1.6358                 2.2968                 2.2140
 Frc consts  --      1.1225                 1.6149                 1.5948
 IR Inten    --     14.3731                17.9808                13.7728

                     43                     44                     45
                      A                      A                      A
 Frequencies --   1119.1555              1131.9443              1139.4900
 Red. masses --      2.6633                 1.4208                 2.3387
 Frc consts  --      1.9654                 1.0726                 1.7892
 IR Inten    --     23.0056                 9.8449                15.9803

                     46                     47                     48
                      A                      A                      A
 Frequencies --   1169.9808              1176.0684              1198.3028
 Red. masses --      1.7540                 1.7075                 1.6098
 Frc consts  --      1.4146                 1.3915                 1.3619
 IR Inten    --      3.5253                13.6010                12.3091

                     49                     50                     51
                      A                      A                      A
 Frequencies --   1207.4304              1248.3754              1252.5021
 Red. masses --      1.8234                 1.4051                 1.9610
 Frc consts  --      1.5662                 1.2901                 1.8125
 IR Inten    --      3.0539                 2.5023                12.5671

                     52                     53                     54
                      A                      A                      A
 Frequencies --   1273.9605              1301.4525              1313.2948
 Red. masses --      1.5759                 1.3692                 1.4994
 Frc consts  --      1.5070                 1.3664                 1.5237
 IR Inten    --     37.7298                 1.2314                 1.5507

                     55                     56                     57
                      A                      A                      A
 Frequencies --   1320.2596              1331.2996              1347.5786
 Red. masses --      2.0436                 1.2519                 1.3028
 Frc consts  --      2.0987                 1.3073                 1.3939
 IR Inten    --     19.2633                 7.6341                 2.4517

                     58                     59                     60
                      A                      A                      A
 Frequencies --   1360.7662              1365.4024              1396.3258
 Red. masses --      1.3926                 1.4637                 1.3656
 Frc consts  --      1.5193                 1.6077                 1.5688
 IR Inten    --      0.8310                 1.2519                 4.2311

                     61                     62                     63
                      A                      A                      A
 Frequencies --   1416.7239              1424.4105              1446.3135
 Red. masses --      1.3567                 1.3816                 1.2586
 Frc consts  --      1.6043                 1.6516                 1.5512
 IR Inten    --      0.9565                18.2813                 6.9311

                     64                     65                     66
                      A                      A                      A
 Frequencies --   1469.0229              1498.5188              1503.6806
 Red. masses --      1.1533                 1.1541                 1.1063
 Frc consts  --      1.4664                 1.5269                 1.4738
 IR Inten    --      0.9901                 1.8553                 3.9481

                     67                     68                     69
                      A                      A                      A
 Frequencies --   1508.7979              1510.8543              1514.3887
 Red. masses --      1.1041                 1.0820                 1.0668
 Frc consts  --      1.4809                 1.4552                 1.4415
 IR Inten    --      7.7007                 6.8793                 6.5401

                     70                     71                     72
                      A                      A                      A
 Frequencies --   1520.3062              1528.0347              1531.6910
 Red. masses --      1.1050                 1.0626                 1.0732
 Frc consts  --      1.5048                 1.4618                 1.4834
 IR Inten    --     12.1003                15.0248                17.3043

                     73                     74                     75
                      A                      A                      A
 Frequencies --   1535.9366              1537.8539              1546.4552
 Red. masses --      1.0679                 1.0800                 1.0804
 Frc consts  --      1.4843                 1.5048                 1.5223
 IR Inten    --      7.8670                 0.8469                 8.6233

                     76                     77                     78
                      A                      A                      A
 Frequencies --   1549.5246              1551.8670              2343.6826
 Red. masses --      1.0695                 1.0747                12.7160
 Frc consts  --      1.5130                 1.5250                41.1526
 IR Inten    --      6.2423                14.3885                 8.3881

                     79                     80                     81
                      A                      A                      A
 Frequencies --   2940.1033              2953.3766              2975.1626
 Red. masses --      1.0609                 1.0626                 1.0724
 Frc consts  --      5.4034                 5.4608                 5.5929
 IR Inten    --     53.6567                95.1573                38.1042

                     82                     83                     84
                      A                      A                      A
 Frequencies --   3044.7841              3048.5121              3073.7864
 Red. masses --      1.0393                 1.0580                 1.0676
 Frc consts  --      5.6765                 5.7929                 5.9431
 IR Inten    --     13.8101                30.1944                39.2162

                     85                     86                     87
                      A                      A                      A
 Frequencies --   3074.1875              3082.3139              3082.5831
 Red. masses --      1.0691                 1.1020                 1.0716
 Frc consts  --      5.9528                 6.1687                 5.9995
 IR Inten    --     10.1817                 7.7877                20.8194

                     88                     89                     90
                      A                      A                      A
 Frequencies --   3084.0675              3087.4460              3088.6010
 Red. masses --      1.0736                 1.0685                 1.0859
 Frc consts  --      6.0166                 6.0013                 6.1033
 IR Inten    --      6.1514                69.4948                11.6626

                     91                     92                     93
                      A                      A                      A
 Frequencies --   3093.8065              3110.6306              3118.5656
 Red. masses --      1.0727                 1.1029                 1.1013
 Frc consts  --      6.0495                 6.2874                 6.3105
 IR Inten    --     15.7707                65.7307                34.9361

                     94                     95                     96
                      A                      A                      A
 Frequencies --   3119.8424              3124.7346              3129.2147
 Red. masses --      1.1038                 1.1010                 1.1025
 Frc consts  --      6.3302                 6.3338                 6.3606
 IR Inten    --     22.2886                12.4650                44.1423

                     97                     98                     99
                      A                      A                      A
 Frequencies --   3135.8730              3139.5647              3505.5629
 Red. masses --      1.1010                 1.1010                 1.0734
 Frc consts  --      6.3790                 6.3940                 7.7720
 IR Inten    --     31.5073                40.8320                 0.6114

 - Thermochemistry -
 -------------------
 Temperature   298.150 Kelvin.  Pressure   1.00000 Atm.
 Atom     1 has atomic number  6 and mass  12.00000

 Molecular mass:   195.17355 amu.
 Principal axes and moments of inertia in atomic units:
                           1         2         3
     Eigenvalues --  1631.744694854.441925656.83231
           X            0.99982  -0.01811  -0.00534
           Y            0.01821   0.99964   0.01956
           Z            0.00499  -0.01965   0.99979
 This molecule is an asymmetric top.
 Rotational symmetry number  1.
 Warning -- assumption of classical behavior for rotation
           may cause significant error
 Rotational temperatures (Kelvin)      0.05308     0.01784     0.01531
 Rotational constants (GHZ):           1.10602     0.37177     0.31904
 Zero-point vibrational energy     832554.4 (Joules/Mol)
                                  198.98527 (Kcal/Mol)
 Warning -- explicit consideration of  23 degrees of freedom as
           vibrations may cause significant error
 Vibrational temperatures:     28.90    43.53    99.97   123.90   158.20
          (Kelvin)            165.09   222.68   249.31   308.42   349.10
                              364.17   378.45   390.97   431.97   443.18
                              513.68   570.62   608.41   627.61   662.50
                              723.16   736.46   824.73   909.30   942.79
                             1040.94  1084.61  1141.48  1169.37  1244.46
                             1290.95  1303.85  1329.60  1369.08  1424.59
                             1445.74  1475.80  1494.15  1530.64  1552.75
                             1571.70  1590.86  1610.22  1628.62  1639.47
                             1683.34  1692.10  1724.09  1737.22  1796.13
                             1802.07  1832.95  1872.50  1889.54  1899.56
                             1915.44  1938.87  1957.84  1964.51  2009.00
                             2038.35  2049.41  2080.92  2113.60  2156.03
                             2163.46  2170.82  2173.78  2178.87  2187.38
                             2198.50  2203.76  2209.87  2212.63  2225.00
                             2229.42  2232.79  3372.04  4230.15  4249.25
                             4280.60  4380.77  4386.13  4422.49  4423.07
                             4434.76  4435.15  4437.29  4442.15  4443.81
                             4451.30  4475.50  4486.92  4488.76  4495.80
                             4502.24  4511.82  4517.13  5043.72

 Zero-point correction=                           0.317103 (Hartree/Particle)
 Thermal correction to Energy=                    0.332771
 Thermal correction to Enthalpy=                  0.333715
 Thermal correction to Gibbs Free Energy=         0.273178
 Sum of electronic and zero-point Energies=           -595.781110
 Sum of electronic and thermal Energies=              -595.765442
 Sum of electronic and thermal Enthalpies=            -595.764498
 Sum of electronic and thermal Free Energies=         -595.825035

                     E (Thermal)             CV                S
                      KCal/Mol        Cal/Mol-Kelvin    Cal/Mol-Kelvin
 Total                  208.817             58.587            127.410
 Electronic               0.000              0.000              0.000
 Translational            0.889              2.981             41.711
 Rotational               0.889              2.981             32.172
 Vibrational            207.039             52.626             53.527
 Vibration     1          0.593              1.986              6.626
 Vibration     2          0.594              1.984              5.813
 Vibration     3          0.598              1.969              4.168
 Vibration     4          0.601              1.959              3.746
 Vibration     5          0.606              1.941              3.270
 Vibration     6          0.608              1.937              3.187
 Vibration     7          0.620              1.897              2.613
 Vibration     8          0.627              1.875              2.400
 Vibration     9          0.644              1.819              2.006
 Vibration    10          0.659              1.775              1.783
 Vibration    11          0.664              1.758              1.709
 Vibration    12          0.670              1.741              1.642
 Vibration    13          0.675              1.725              1.585
 Vibration    14          0.693              1.673              1.416
 Vibration    15          0.698              1.658              1.373
 Vibration    16          0.732              1.561              1.135
 Vibration    17          0.763              1.477              0.975
 Vibration    18          0.785              1.421              0.882
 Vibration    19          0.797              1.391              0.839
 Vibration    20          0.818              1.338              0.765
 Vibration    21          0.858              1.244              0.652
 Vibration    22          0.867              1.224              0.629
 Vibration    23          0.929              1.089              0.498

                           ! Non-Optimized Parameters !
 Normal termination of Gaussian 16 at Thu Dec 10 09:46:28 2020.

 ----------------------------------------------------------------------
 # B3LYP/6-311++G(d,p) empiricaldispersion=gd3bj scf=xqc pop=npa geom=c
 heck
 ----------------------------------------------------------------------

 --------------------------------------
 CID_79638822_JID_4351_Energie_neutraal
 --------------------------------------
 Structure from the checkpoint file:  "JID_4351.chk"
 Charge =  0 Multiplicity = 1

 SCF Done:  E(RB3LYP) =  -596.266551973     A.U. after   14 cycles
 Normal termination of Gaussian 16 at Thu Dec 10 09:52:13 2020.

 ----------------------------------------------------------------------
 # B3LYP/6-311++G(d,p) empiricaldispersion=gd3bj scf=xqc pop=npa geom=c
 heck
 ----------------------------------------------------------------------

 ------------------------------------
 CID_79638822_JID_4351_Energie_kation
 ------------------------------------
 Structure from the checkpoint file:  "JID_4351.chk"
 Charge =  1 Multiplicity = 2

 SCF Done:  E(UB3LYP) =  -595.971439407     A.U. after   28 cycles
 Normal termination of Gaussian 16 at Thu Dec 10 10:08:14 2020.
 Gaussian 16:  ES64L-G16RevA.03 25-Dec-2016

 ----------------------------------------------------------------------
 # B3LYP/6-311++G(d,p) empiricaldispersion=gd3bj scf=xqc pop=npa geom=c
 heck
 ----------------------------------------------------------------------

 -----------------------------------
 CID_79638822_JID_4351_Energie_anion
 -----------------------------------
 Structure from the checkpoint file:  "JID_4351.chk"
 Charge = -1 Multiplicity = 2

                         Standard orientation:
 ---------------------------------------------------------------------
 Center     Atomic      Atomic             Coordinates (Angstroms)
 Number     Number       Type             X           Y           Z
 ---------------------------------------------------------------------
      1          6           0        4.148776   -1.392328   -0.947327
      2          6           0        3.567350   -1.354850    0.470065
      3          6           0        2.608595   -0.187906    0.716303
      4          7           0        1.408230   -0.312618   -0.115600
      5          6           0        0.416320    0.761125   -0.001701
      6          6           0       -0.310667    0.692354    1.363399
      7          6           0       -1.192466   -0.555602    1.226705
      8          6           0       -1.602486   -0.612328   -0.283509
      9          6           0       -0.735299    0.462893   -0.985160
     10          7           0       -3.025590   -0.450685   -0.597074
     11          6           0       -3.790560   -1.654692   -0.309892
     12          6           0       -3.663397    0.715225   -0.002943
     13          6           0        1.018566    2.093735   -0.245575
     14          7           0        1.548005    3.108171   -0.446983
     15          1           0        3.378674   -1.589959   -1.702674
     16          1           0        4.897653   -2.185702   -1.042369
     17          1           0        4.633433   -0.441588   -1.200648
     18          1           0        3.043087   -2.294478    0.683863
     19          1           0        4.387919   -1.274088    1.193860
     20          1           0        2.298019   -0.198851    1.766312
     21          1           0        3.136175    0.767458    0.547354
     22          1           0        1.688097   -0.375846   -1.092066
     23          1           0        0.380009    0.659888    2.209436
     24          1           0       -0.920261    1.596113    1.473879
     25          1           0       -2.061321   -0.518305    1.890503
     26          1           0       -0.617180   -1.446859    1.487420
     27          1           0       -1.323991   -1.591553   -0.681255
     28          1           0       -1.309730    1.376375   -1.157893
     29          1           0       -0.364368    0.130548   -1.959417
     30          1           0       -3.849731   -1.896298    0.769296
     31          1           0       -4.814867   -1.532847   -0.679122
     32          1           0       -3.341394   -2.510342   -0.825020
     33          1           0       -3.770400    0.654478    1.096537
     34          1           0       -3.105153    1.625782   -0.236720
     35          1           0       -4.667571    0.826240   -0.425855
 ---------------------------------------------------------------------

 SCF Done:  E(UB3LYP) =  -596.255151414     A.U. after   31 cycles

 The electronic state is 2-A.
 Alpha  occ. eigenvalues --  -14.22219 -14.22094 -14.21220 -10.15566 -10.11726
 Alpha  occ. eigenvalues --  -10.10663 -10.10410 -10.09230 -10.09047 -10.08740
 Alpha  occ. eigenvalues --  -10.08585 -10.07824 -10.07038 -10.07018  -0.85055
 Alpha  occ. eigenvalues --   -0.83043  -0.81076  -0.73886  -0.68268  -0.63707
 Alpha  occ. eigenvalues --   -0.63249  -0.61288  -0.58284  -0.54527  -0.51229
 Alpha  occ. eigenvalues --   -0.49548  -0.46590  -0.44760  -0.41250  -0.39885
 Alpha  occ. eigenvalues --   -0.38948  -0.36809  -0.35727  -0.34521  -0.34349
 Alpha  occ. eigenvalues --   -0.33069  -0.31840  -0.30468  -0.29926  -0.29323
 Alpha  occ. eigenvalues --   -0.28843  -0.28437  -0.27725  -0.27230  -0.26308
 Alpha  occ. eigenvalues --   -0.25869  -0.25416  -0.25148  -0.24893  -0.23931
 Alpha  occ. eigenvalues --   -0.23469  -0.22473  -0.15776  -0.12212   0.04071
 Alpha virt. eigenvalues --    0.05865   0.06882   0.07312   0.07767   0.08512
 Alpha virt. eigenvalues --    0.08831   0.09798   0.09922   0.10412   0.10633
 Alpha virt. eigenvalues --    0.11157   0.11303   0.11513   0.11860   0.12513

  Beta  occ. eigenvalues --  -14.22212 -14.22071 -14.21215 -10.15564 -10.11727
  Beta  occ. eigenvalues --  -10.10655 -10.10399 -10.09194 -10.09015 -10.08726
  Beta  occ. eigenvalues --  -10.08573 -10.07805 -10.07015 -10.06980  -0.85033
  Beta  occ. eigenvalues --   -0.83024  -0.81063  -0.73862  -0.68229  -0.63673
  Beta  occ. eigenvalues --   -0.63214  -0.61232  -0.58224  -0.54473  -0.51184
  Beta  occ. eigenvalues --   -0.49478  -0.46540  -0.44718  -0.41207  -0.39853
  Beta  occ. eigenvalues --   -0.38918  -0.36775  -0.35697  -0.34478  -0.34311
  Beta  occ. eigenvalues --   -0.33035  -0.31809  -0.30434  -0.29896  -0.29291
  Beta  occ. eigenvalues --   -0.28816  -0.28404  -0.27699  -0.27194  -0.26275
  Beta  occ. eigenvalues --   -0.25840  -0.25387  -0.25112  -0.24853  -0.23910
  Beta  occ. eigenvalues --   -0.23439  -0.22453  -0.15738  -0.12179
  Beta virt. eigenvalues --    0.06149   0.06743   0.07471   0.07781   0.08400
  Beta virt. eigenvalues --    0.08973   0.09111   0.10218   0.10244   0.10779
  Beta virt. eigenvalues --    0.10959   0.11242   0.11428   0.11700   0.12141

 Mulliken charges and spin densities:
               1          2
     1  C    0.378434  -0.917086
     2  C    0.104045  -0.336189
     3  C    0.135674  -0.423649
     4  N    0.356213   0.059644
     5  C    0.553870   0.055927
     6  C   -0.574375  -0.033969
     7  C    0.961165  -1.111214
     8  C   -1.018434   0.683304
     9  C   -1.060084   0.342093
    10  N    0.068358   0.120448
    11  C    0.699126  -0.915833
    12  C    0.618263  -0.974320
    13  C   -0.439576  -0.419261
    14  N   -0.229612  -0.014843
    15  H   -0.430963   0.569403
    16  H   -0.458438   0.611474
    17  H    0.071550   0.063649
    18  H   -0.019611   0.167278
    19  H   -0.132484   0.266058
    20  H   -0.030385   0.150286
    21  H    0.128413   0.035441
    22  H    0.640967  -0.397299
    23  H   -0.039408   0.224624
    24  H    0.068450   0.137881
    25  H   -0.106561   0.289462
    26  H   -0.039640   0.201016
    27  H   -0.002340   0.221723
    28  H    0.101257   0.123252
    29  H   -0.277902   0.437279
    30  H   -0.158554   0.273326
    31  H   -0.158296   0.294756
    32  H   -0.325351   0.454098
    33  H   -0.266327   0.393002
    34  H   -0.040803   0.133512
    35  H   -0.076642   0.234725
 Sum of Mulliken charges =  -1.00000   1.00000

 Dipole moment (field-independent basis, Debye):
    X=              0.2830    Y=              1.9337    Z=              0.9931  Tot=              2.1922
 Quadrupole moment (field-independent basis, Debye-Ang):
   XX=           -176.0286   YY=           -143.9358   ZZ=           -124.4383
   XY=              0.8371   XZ=              6.1502   YZ=             -1.3216

 Summary of Natural Population Analysis:

                                       Natural Population
                Natural  -----------------------------------------------
    Atom  No    Charge         Core      Valence    Rydberg      Total
 -----------------------------------------------------------------------
      C    1   -0.28945      0.99967     2.28463    0.00515     3.28945
      C    2   -0.19287      0.99964     2.18477    0.00846     3.19287
      C    3   -0.08764      0.99961     2.07817    0.00986     3.08764
      N    4   -0.33282      0.99972     2.82151    0.01159     3.83282
      C    5    0.00896      0.99947     1.97828    0.01328     2.99104
      C    6   -0.18336      0.99960     2.17404    0.00972     3.18336
      C    7   -0.20595      0.99961     2.19774    0.00859     3.20595
      C    8    0.00015      0.99958     1.98605    0.01423     2.99985
      C    9   -0.18199      0.99958     2.17097    0.01144     3.18199
      N   10   -0.27723      0.99972     2.76384    0.01367     3.77723
      C   11   -0.17556      0.99964     2.16738    0.00854     3.17556
      C   12   -0.18070      0.99963     2.17217    0.00890     3.18070
      C   13    0.16091      0.99962     1.81935    0.02013     2.83909
      N   14   -0.18730      0.99979     2.67619    0.01132     3.68730
      H   15    0.09662      0.00000     0.40214    0.00123     0.40338
      H   16    0.10258      0.00000     0.39613    0.00129     0.39742
      H   17    0.09573      0.00000     0.40319    0.00108     0.40427
      H   18    0.09988      0.00000     0.39872    0.00140     0.40012
      H   19    0.09634      0.00000     0.40271    0.00095     0.40366
      H   20    0.09384      0.00000     0.40456    0.00160     0.40616
      H   21    0.08212      0.00000     0.41568    0.00220     0.41788
      H   22    0.17678      0.00000     0.31918    0.00403     0.32322
      H   23    0.10519      0.00000     0.39361    0.00119     0.39481
      H   24    0.10178      0.00000     0.39649    0.00173     0.39822
      H   25    0.10523      0.00000     0.39341    0.00137     0.39477
      H   26    0.10701      0.00000     0.39144    0.00155     0.39299
      H   27    0.10309      0.00000     0.39503    0.00188     0.39691
      H   28    0.10641      0.00000     0.39193    0.00166     0.39359
      H   29    0.10687      0.00000     0.39168    0.00144     0.39313
      H   30    0.08128      0.00000     0.41714    0.00159     0.41872
      H   31    0.09468      0.00000     0.40414    0.00118     0.40532
      H   32    0.09682      0.00000     0.40187    0.00131     0.40318
      H   33    0.08188      0.00000     0.41654    0.00158     0.41812
      H   34    0.09354      0.00000     0.40515    0.00131     0.40646
      H   35    0.09719      0.00000     0.40172    0.00109     0.40281
 =======================================================================
   * Total *   -0.00000     13.99489    39.81758    0.18753    54.00000

 Normal termination of Gaussian 16 at Thu Dec 10 10:25:45 2020.
