 Gaussian 16, Revision A.03,

 -----------------------------------------------------------
 # opt freq B3LYP/6-31G(d) empiricaldispersion=gd3bj scf=xqc
 -----------------------------------------------------------

 -------------------------------
 CID_131460419_JID_4487_neutraal
 -------------------------------
 Symbolic Z-matrix:
 Charge =  0 Multiplicity = 1

 SCF Done:  E(RB3LYP) =  -1025.80771049     A.U. after   15 cycles
 SCF Done:  E(RB3LYP) =  -1025.81277585     A.U. after   13 cycles
 SCF Done:  E(RB3LYP) =  -1025.81311718     A.U. after   13 cycles
 SCF Done:  E(RB3LYP) =  -1025.81395922     A.U. after   12 cycles
 SCF Done:  E(RB3LYP) =  -1025.81464647     A.U. after   12 cycles
 SCF Done:  E(RB3LYP) =  -1025.81500131     A.U. after   12 cycles
 SCF Done:  E(RB3LYP) =  -1025.81510961     A.U. after   12 cycles
 SCF Done:  E(RB3LYP) =  -1025.81522585     A.U. after   12 cycles
 SCF Done:  E(RB3LYP) =  -1025.81532869     A.U. after   12 cycles
 SCF Done:  E(RB3LYP) =  -1025.81537004     A.U. after   11 cycles
 SCF Done:  E(RB3LYP) =  -1025.81538523     A.U. after   10 cycles
 SCF Done:  E(RB3LYP) =  -1025.81539496     A.U. after   10 cycles
 SCF Done:  E(RB3LYP) =  -1025.81539611     A.U. after    9 cycles
 SCF Done:  E(RB3LYP) =  -1025.81539623     A.U. after    8 cycles
 Optimization completed.
    -- Stationary point found.
 Normal termination of Gaussian 16 at Thu Dec 10 09:53:22 2020.

 --------------------------------------------------------------------
 #N Geom=AllCheck Guess=TCheck SCRF=Check GenChk RB3LYP/6-31G(d) Freq
 --------------------------------------------------------------------

 Structure from the checkpoint file:  "JID_4487.chk"
 -------------------------------
 CID_131460419_JID_4487_neutraal
 -------------------------------
 Charge =  0 Multiplicity = 1

 SCF Done:  E(RB3LYP) =  -1025.81539623     A.U. after    1 cycles

  Exact polarizability: 158.659 -18.181 141.914  -6.929  -3.582  64.184
 Approx polarizability: 254.461 -33.146 247.795 -20.193  -6.706 105.005

                      1                      2                      3
                      A                      A                      A
 Frequencies --     33.1396                72.5812                84.6464
 Red. masses --      8.4069                 6.8542                 7.2122
 Frc consts  --      0.0054                 0.0213                 0.0304
 IR Inten    --      1.1280                 0.4016                 0.1788

                      4                      5                      6
                      A                      A                      A
 Frequencies --     93.7181               112.5487               133.5080
 Red. masses --      7.8071                 6.4407                 6.1805
 Frc consts  --      0.0404                 0.0481                 0.0649
 IR Inten    --      0.3967                 0.6108                 0.0728

                      7                      8                      9
                      A                      A                      A
 Frequencies --    227.3801               248.8554               334.7000
 Red. masses --      7.7009                 5.9007                 7.2111
 Frc consts  --      0.2346                 0.2153                 0.4760
 IR Inten    --      0.2686                 0.5281                 0.2544

                     10                     11                     12
                      A                      A                      A
 Frequencies --    375.8142               424.8081               448.6203
 Red. masses --      6.1638                 5.0016                 2.8031
 Frc consts  --      0.5129                 0.5318                 0.3324
 IR Inten    --      0.3091                 1.0264                 2.1566

                     13                     14                     15
                      A                      A                      A
 Frequencies --    503.3220               518.9249               594.1861
 Red. masses --      5.3451                 3.3164                 3.9755
 Frc consts  --      0.7978                 0.5262                 0.8270
 IR Inten    --      1.0738                15.8171                34.1237

                     16                     17                     18
                      A                      A                      A
 Frequencies --    624.0005               655.9325               661.8735
 Red. masses --      2.6040                 3.1489                 2.0950
 Frc consts  --      0.5974                 0.7982                 0.5407
 IR Inten    --     35.9624                36.1696                47.7784

                     19                     20                     21
                      A                      A                      A
 Frequencies --    684.2033               699.3032               728.4664
 Red. masses --      2.6058                 4.3240                 1.8202
 Frc consts  --      0.7187                 1.2459                 0.5691
 IR Inten    --     43.1133                15.8086                22.3926

                     22                     23                     24
                      A                      A                      A
 Frequencies --    793.9527               813.3653               846.0400
 Red. masses --      4.6678                 1.5200                 4.9916
 Frc consts  --      1.7336                 0.5925                 2.1051
 IR Inten    --     23.7106                 7.6746                10.2889

                     25                     26                     27
                      A                      A                      A
 Frequencies --    882.1031               898.7181               904.6316
 Red. masses --      1.5616                 1.5672                 2.2894
 Frc consts  --      0.7159                 0.7458                 1.1039
 IR Inten    --      2.4580                 7.8054                18.0052

                     28                     29                     30
                      A                      A                      A
 Frequencies --    912.2758               942.6235               956.3429
 Red. masses --      5.4920                 3.7952                 3.4179
 Frc consts  --      2.6930                 1.9868                 1.8418
 IR Inten    --     25.8029                 5.3316                 4.5188

                     31                     32                     33
                      A                      A                      A
 Frequencies --   1001.7187              1035.1973              1124.8152
 Red. masses --      3.1240                 4.5733                 1.1664
 Frc consts  --      1.8470                 2.8876                 0.8695
 IR Inten    --     13.2282                 8.9889                20.9430

                     34                     35                     36
                      A                      A                      A
 Frequencies --   1138.0198              1141.9737              1143.8597
 Red. masses --      5.9746                 1.7113                 2.8047
 Frc consts  --      4.5589                 1.3149                 2.1622
 IR Inten    --      4.6733               160.9703                54.5079

                     37                     38                     39
                      A                      A                      A
 Frequencies --   1240.2088              1253.4935              1276.5828
 Red. masses --      1.8476                 1.9590                 1.3505
 Frc consts  --      1.6743                 1.8135                 1.2967
 IR Inten    --     92.2132                 8.4507                17.4874

                     40                     41                     42
                      A                      A                      A
 Frequencies --   1309.6987              1338.1816              1351.8661
 Red. masses --      1.8035                 1.5478                 2.4271
 Frc consts  --      1.8227                 1.6331                 2.6134
 IR Inten    --      4.1704                 2.7774                 1.2319

                     43                     44                     45
                      A                      A                      A
 Frequencies --   1390.6768              1427.7012              1487.1924
 Red. masses --      2.5096                 3.3769                 6.5929
 Frc consts  --      2.8596                 4.0555                 8.5913
 IR Inten    --     79.1071                 3.7065                 5.1434

                     46                     47                     48
                      A                      A                      A
 Frequencies --   1504.1300              1547.0126              1585.9237
 Red. masses --      1.0975                 5.8477                 5.9710
 Frc consts  --      1.4629                 8.2456                 8.8483
 IR Inten    --     11.2838                28.4667                 3.9562

                     49                     50                     51
                      A                      A                      A
 Frequencies --   1638.2582              1840.8331              3082.2730
 Red. masses --      7.6872                 9.4918                 1.0610
 Frc consts  --     12.1557                18.9508                 5.9392
 IR Inten    --      4.5209               223.8192                13.4326

                     52                     53                     54
                      A                      A                      A
 Frequencies --   3145.0935              3226.7632              3273.0910
 Red. masses --      1.1037                 1.0912                 1.0970
 Frc consts  --      6.4322                 6.6937                 6.9241
 IR Inten    --      1.4352                 4.5553                 0.2725

                     55                     56                     57
                      A                      A                      A
 Frequencies --   3287.0533              3299.6827              3682.9223
 Red. masses --      1.0988                 1.0994                 1.0640
 Frc consts  --      6.9946                 7.0528                 8.5029
 IR Inten    --      9.4142                 0.8467                57.1328

 - Thermochemistry -
 -------------------
 Temperature   298.150 Kelvin.  Pressure   1.00000 Atm.
 Atom     1 has atomic number  6 and mass  12.00000

 Molecular mass:   209.01466 amu.
 Principal axes and moments of inertia in atomic units:
                           1         2         3
     Eigenvalues --  2302.171133199.321955212.10997
           X            0.99965  -0.02643  -0.00268
           Y            0.02643   0.99965  -0.00111
           Z            0.00271   0.00104   1.00000
 This molecule is an asymmetric top.
 Rotational symmetry number  1.
 Warning -- assumption of classical behavior for rotation
           may cause significant error
 Rotational temperatures (Kelvin)      0.03762     0.02707     0.01662
 Rotational constants (GHZ):           0.78393     0.56410     0.34626
 Zero-point vibrational energy     394676.8 (Joules/Mol)
                                   94.33002 (Kcal/Mol)
 Warning -- explicit consideration of  15 degrees of freedom as
           vibrations may cause significant error
 Vibrational temperatures:     47.68   104.43   121.79   134.84   161.93
          (Kelvin)            192.09   327.15   358.05   481.56   540.71
                              611.20   645.46   724.17   746.62   854.90
                              897.80   943.74   952.29   984.42  1006.14
                             1048.10  1142.32  1170.25  1217.26  1269.15
                             1293.05  1301.56  1312.56  1356.22  1375.96
                             1441.25  1489.42  1618.36  1637.36  1643.05
                             1645.76  1784.38  1803.50  1836.72  1884.36
                             1925.34  1945.03  2000.87  2054.14  2139.74
                             2164.11  2225.81  2281.79  2357.09  2648.55
                             4434.70  4525.09  4642.59  4709.25  4729.34
                             4747.51  5298.90

 Zero-point correction=                           0.150324 (Hartree/Particle)
 Thermal correction to Energy=                    0.162105
 Thermal correction to Enthalpy=                  0.163049
 Thermal correction to Gibbs Free Energy=         0.110544
 Sum of electronic and zero-point Energies=          -1025.665072
 Sum of electronic and thermal Energies=             -1025.653291
 Sum of electronic and thermal Enthalpies=           -1025.652347
 Sum of electronic and thermal Free Energies=        -1025.704852

                     E (Thermal)             CV                S
                      KCal/Mol        Cal/Mol-Kelvin    Cal/Mol-Kelvin
 Total                  101.723             43.831            110.507
 Electronic               0.000              0.000              0.000
 Translational            0.889              2.981             41.916
 Rotational               0.889              2.981             32.018
 Vibrational             99.945             37.870             36.573
 Vibration     1          0.594              1.983              5.632
 Vibration     2          0.599              1.967              4.082
 Vibration     3          0.601              1.960              3.780
 Vibration     4          0.603              1.954              3.581
 Vibration     5          0.607              1.939              3.224
 Vibration     6          0.613              1.920              2.895
 Vibration     7          0.651              1.799              1.900
 Vibration     8          0.662              1.765              1.739
 Vibration     9          0.716              1.606              1.237
 Vibration    10          0.747              1.522              1.056
 Vibration    11          0.787              1.416              0.876
 Vibration    12          0.808              1.364              0.800
 Vibration    13          0.859              1.243              0.650
 Vibration    14          0.874              1.208              0.612
 Vibration    15          0.952              1.044              0.460

 Optimization completed.
    -- Stationary point found.
 Normal termination of Gaussian 16 at Thu Dec 10 09:58:49 2020.

 ----------------------------------------------------------------------
 # B3LYP/6-311++G(d,p) empiricaldispersion=gd3bj scf=xqc pop=npa geom=c
 heck
 ----------------------------------------------------------------------

 ---------------------------------------
 CID_131460419_JID_4487_Energie_neutraal
 ---------------------------------------
 Structure from the checkpoint file:  "JID_4487.chk"
 Charge =  0 Multiplicity = 1

 SCF Done:  E(RB3LYP) =  -1026.02256368     A.U. after   15 cycles
 Normal termination of Gaussian 16 at Thu Dec 10 10:00:44 2020.

 ----------------------------------------------------------------------
 # B3LYP/6-311++G(d,p) empiricaldispersion=gd3bj scf=xqc pop=npa geom=c
 heck
 ----------------------------------------------------------------------

 -------------------------------------
 CID_131460419_JID_4487_Energie_kation
 -------------------------------------
 Structure from the checkpoint file:  "JID_4487.chk"
 Charge =  1 Multiplicity = 2

 SCF Done:  E(UB3LYP) =  -1025.72997252     A.U. after   23 cycles
 Normal termination of Gaussian 16 at Thu Dec 10 10:05:12 2020.
 Gaussian 16:  ES64L-G16RevA.03 25-Dec-2016

 ----------------------------------------------------------------------
 # B3LYP/6-311++G(d,p) empiricaldispersion=gd3bj scf=xqc pop=npa geom=c
 heck
 ----------------------------------------------------------------------

 ------------------------------------
 CID_131460419_JID_4487_Energie_anion
 ------------------------------------
 Structure from the checkpoint file:  "JID_4487.chk"
 Charge = -1 Multiplicity = 2

                         Standard orientation:
 ---------------------------------------------------------------------
 Center     Atomic      Atomic             Coordinates (Angstroms)
 Number     Number       Type             X           Y           Z
 ---------------------------------------------------------------------
      1          6           0       -1.755843    1.740269    0.374211
      2          6           0       -1.039162    2.797798   -0.108799
      3         16           0        0.609723    2.369009   -0.429163
      4          6           0        0.328333    0.722036    0.098979
      5          6           0       -0.980666    0.547884    0.509990
      6          6           0       -1.536023   -0.744532    1.055759
      7          6           0       -2.160376   -1.576202   -0.049282
      8          8           0       -1.640538   -2.516702   -0.608911
      9          8           0       -3.390201   -1.117755   -0.379515
     10          6           0        1.391959   -0.248653    0.054284
     11          6           0        1.469164   -1.610003   -0.076023
     12          7           0        2.802709   -2.001007   -0.054439
     13          6           0        3.463145   -0.893934    0.068694
     14          8           0        2.690051    0.220578    0.142621
     15          1           0       -2.805644    1.793680    0.639850
     16          1           0       -1.377385    3.809695   -0.284847
     17          1           0       -0.744899   -1.341436    1.514664
     18          1           0       -2.301953   -0.527535    1.806905
     19          1           0       -3.697434   -1.667827   -1.124885
     20          1           0        0.663280   -2.314689   -0.221263
     21          1           0        4.531830   -0.745930    0.116814
 ---------------------------------------------------------------------

 SCF Done:  E(UB3LYP) =  -1026.02388710     A.U. after   33 cycles
 SCF Done:  E(UB3LYP) =  -1026.02388710     a.u. after    1 cycles

 The electronic state is 2-A.
 Alpha  occ. eigenvalues --  -88.72607 -19.06085 -19.04939 -18.99942 -14.17440
 Alpha  occ. eigenvalues --  -10.18769 -10.10772 -10.08829 -10.06710 -10.05325
 Alpha  occ. eigenvalues --  -10.04828 -10.04195 -10.03964 -10.03755  -7.81262
 Alpha  occ. eigenvalues --   -5.77569  -5.77202  -5.76856  -0.99919  -0.98810
 Alpha  occ. eigenvalues --   -0.90829  -0.77970  -0.74406  -0.66123  -0.64402
 Alpha  occ. eigenvalues --   -0.58217  -0.56874  -0.50176  -0.48400  -0.47289
 Alpha  occ. eigenvalues --   -0.42101  -0.41457  -0.38859  -0.37620  -0.36834
 Alpha  occ. eigenvalues --   -0.35922  -0.33532  -0.32652  -0.30541  -0.29073
 Alpha  occ. eigenvalues --   -0.28711  -0.27897  -0.25751  -0.25058  -0.24061
 Alpha  occ. eigenvalues --   -0.23922  -0.21577  -0.20308  -0.18638  -0.17329
 Alpha  occ. eigenvalues --   -0.15841  -0.14385  -0.11454  -0.07820   0.05203
 Alpha virt. eigenvalues --    0.07211   0.09030   0.09626   0.09703   0.11031
 Alpha virt. eigenvalues --    0.11653   0.12870   0.13255   0.13845   0.14257
 Alpha virt. eigenvalues --    0.15033   0.15487   0.15692   0.16508   0.16809

  Beta  occ. eigenvalues --  -88.72550 -19.06053 -19.04739 -18.99887 -14.17537
  Beta  occ. eigenvalues --  -10.18689 -10.10539 -10.08785 -10.06729 -10.05075
  Beta  occ. eigenvalues --  -10.04540 -10.04004 -10.03837 -10.03770  -7.81210
  Beta  occ. eigenvalues --   -5.77545  -5.77180  -5.76663  -0.99835  -0.98491
  Beta  occ. eigenvalues --   -0.90740  -0.77862  -0.74059  -0.65900  -0.63980
  Beta  occ. eigenvalues --   -0.57994  -0.56430  -0.50015  -0.48216  -0.46788
  Beta  occ. eigenvalues --   -0.41830  -0.41240  -0.38627  -0.37480  -0.36686
  Beta  occ. eigenvalues --   -0.35707  -0.32724  -0.32429  -0.30397  -0.28910
  Beta  occ. eigenvalues --   -0.28560  -0.27736  -0.25559  -0.24851  -0.23785
  Beta  occ. eigenvalues --   -0.23178  -0.21364  -0.20027  -0.18065  -0.17146
  Beta  occ. eigenvalues --   -0.15806  -0.13084  -0.10590  -0.06345
  Beta virt. eigenvalues --    0.07504   0.09033   0.09598   0.09709   0.10404
  Beta virt. eigenvalues --    0.11466   0.11713   0.13169   0.13372   0.13812
  Beta virt. eigenvalues --    0.14611   0.15052   0.15421   0.15650   0.16524

 Mulliken charges and spin densities:
               1          2
     1  C    0.023944  -0.000463
     2  C   -0.188108   0.158962
     3  S   -0.650679   0.098273
     4  C    0.279127   0.124365
     5  C    0.155345   0.454655
     6  C   -0.175779  -0.615966
     7  C   -0.077453  -0.025690
     8  O   -0.318222   0.028981
     9  O   -0.172255   0.016468
    10  C    0.125280  -0.007742
    11  C   -0.642773   0.082429
    12  N   -0.117272  -0.056731
    13  C    0.086534   0.204912
    14  O   -0.086836   0.035402
    15  H    0.038533   0.097719
    16  H    0.181956  -0.006184
    17  H    0.134385   0.029135
    18  H    0.004382   0.174692
    19  H    0.074394   0.192790
    20  H    0.176778   0.025000
    21  H    0.148718  -0.011006
 Sum of Mulliken charges =  -1.00000   1.00000

 Dipole moment (field-independent basis, Debye):
    X=             -1.7331    Y=              1.7627    Z=              0.4465  Tot=              2.5120
 Quadrupole moment (field-independent basis, Debye-Ang):
   XX=           -115.0499   YY=           -119.7823   ZZ=            -97.9044
   XY=              5.1955   XZ=              1.1813   YZ=             -2.5960

 Summary of Natural Population Analysis:

                                       Natural Population
                Natural  -----------------------------------------------
    Atom  No    Charge         Core      Valence    Rydberg      Total
 -----------------------------------------------------------------------
      C    1   -0.14654      0.99949     2.13714    0.00990     3.14654
      C    2   -0.14769      0.99955     2.13692    0.01122     3.14769
      S    3    0.21238      4.99946     2.76598    0.02218     7.78762
      C    4   -0.07503      0.99938     2.06422    0.01143     3.07503
      C    5   -0.01455      0.99944     2.00400    0.01112     3.01455
      C    6   -0.24455      0.99955     2.23502    0.00999     3.24455
      C    7    0.41914      0.99973     1.55402    0.02711     2.58086
      O    8   -0.30987      0.99986     3.30374    0.00627     4.30987
      O    9   -0.34738      0.99987     3.34085    0.00666     4.34738
      C   10    0.12058      0.99942     1.86617    0.01382     2.87942
      C   11   -0.01883      0.99952     2.00480    0.01452     3.01883
      N   12   -0.27542      0.99972     2.76552    0.01018     3.77542
      C   13    0.20818      0.99967     1.77261    0.01954     2.79182
      O   14   -0.22558      0.99987     3.21754    0.00817     4.22558
      H   15    0.10075      0.00000     0.39815    0.00110     0.39925
      H   16    0.09679      0.00000     0.40232    0.00089     0.40321
      H   17    0.11681      0.00000     0.38168    0.00152     0.38319
      H   18    0.10958      0.00000     0.38897    0.00145     0.39042
      H   19    0.23534      0.00000     0.26048    0.00418     0.26466
      H   20    0.10858      0.00000     0.38940    0.00202     0.39142
      H   21    0.07733      0.00000     0.42166    0.00101     0.42267
 =======================================================================
   * Total *   -0.00000     17.99454    35.81119    0.19427    54.00000

 Normal termination of Gaussian 16 at Thu Dec 10 10:14:57 2020.
