 Gaussian 16, Revision A.03,

 -----------------------------------------------------------
 # opt freq B3LYP/6-31G(d) empiricaldispersion=gd3bj scf=xqc
 -----------------------------------------------------------

 ------------------------------
 CID_60968059_JID_5600_neutraal
 ------------------------------
 Symbolic Z-matrix:
 Charge =  0 Multiplicity = 1

 SCF Done:  E(RB3LYP) =  -687.359798791     A.U. after   14 cycles
 SCF Done:  E(RB3LYP) =  -687.351784631     A.U. after   13 cycles
 SCF Done:  E(RB3LYP) =  -687.363318326     A.U. after   12 cycles
 SCF Done:  E(RB3LYP) =  -687.364852507     A.U. after   12 cycles
 SCF Done:  E(RB3LYP) =  -687.359954022     A.U. after   13 cycles
 SCF Done:  E(RB3LYP) =  -687.363284575     A.U. after   13 cycles
 SCF Done:  E(RB3LYP) =  -687.365492070     A.U. after   10 cycles
 SCF Done:  E(RB3LYP) =  -687.365842739     A.U. after   11 cycles
 SCF Done:  E(RB3LYP) =  -687.366037439     A.U. after   11 cycles
 SCF Done:  E(RB3LYP) =  -687.366102168     A.U. after   11 cycles
 SCF Done:  E(RB3LYP) =  -687.366231174     A.U. after    9 cycles
 SCF Done:  E(RB3LYP) =  -687.366233396     A.U. after    9 cycles
 SCF Done:  E(RB3LYP) =  -687.366234485     A.U. after    9 cycles
 SCF Done:  E(RB3LYP) =  -687.366234827     A.U. after    8 cycles
 SCF Done:  E(RB3LYP) =  -687.366235100     A.U. after    8 cycles
 SCF Done:  E(RB3LYP) =  -687.366235147     A.U. after    6 cycles
 Optimization completed.
    -- Stationary point found.
 Normal termination of Gaussian 16 at Thu Dec 10 16:51:06 2020.

 --------------------------------------------------------------------
 #N Geom=AllCheck Guess=TCheck SCRF=Check GenChk RB3LYP/6-31G(d) Freq
 --------------------------------------------------------------------

 Structure from the checkpoint file:  "JID_5600.chk"
 ------------------------------
 CID_60968059_JID_5600_neutraal
 ------------------------------
 Charge =  0 Multiplicity = 1

 SCF Done:  E(RB3LYP) =  -687.366235147     A.U. after    1 cycles

  Exact polarizability: 162.986   2.583 119.713  -0.585   4.993 113.841
 Approx polarizability: 211.070   4.028 167.576   2.089  17.391 185.872

                      1                      2                      3
                      A                      A                      A
 Frequencies --     32.9167                51.3056                57.6777
 Red. masses --      2.4878                 3.2979                 3.6352
 Frc consts  --      0.0016                 0.0051                 0.0071
 IR Inten    --      1.1859                 1.4960                 5.6426

                      4                      5                      6
                      A                      A                      A
 Frequencies --     61.5981                70.9807               108.3464
 Red. masses --      1.1972                 2.2487                 2.7630
 Frc consts  --      0.0027                 0.0067                 0.0191
 IR Inten    --      0.5326                 1.7560                 3.1676

                      7                      8                      9
                      A                      A                      A
 Frequencies --    125.1932               161.0154               171.3919
 Red. masses --      3.4399                 1.8026                 1.3536
 Frc consts  --      0.0318                 0.0275                 0.0234
 IR Inten    --      3.2654                 0.7811                 0.4876

                     10                     11                     12
                      A                      A                      A
 Frequencies --    186.2081               207.8146               211.8691
 Red. masses --      3.0145                 3.4068                 3.6248
 Frc consts  --      0.0616                 0.0867                 0.0959
 IR Inten    --      5.4454                 3.2236                 0.4695

                     13                     14                     15
                      A                      A                      A
 Frequencies --    238.4845               248.1106               285.3304
 Red. masses --      1.9463                 2.2752                 2.5235
 Frc consts  --      0.0652                 0.0825                 0.1210
 IR Inten    --      1.1205                 0.6273                 0.7463

                     16                     17                     18
                      A                      A                      A
 Frequencies --    291.2593               320.9935               349.3019
 Red. masses --      2.3549                 3.9950                 2.4311
 Frc consts  --      0.1177                 0.2425                 0.1748
 IR Inten    --      1.1989                 0.7853                 1.8319

                     19                     20                     21
                      A                      A                      A
 Frequencies --    383.2007               431.5392               474.4520
 Red. masses --      3.1652                 2.4580                 1.9347
 Frc consts  --      0.2738                 0.2697                 0.2566
 IR Inten    --      3.3784                 0.9713                 4.0227

                     22                     23                     24
                      A                      A                      A
 Frequencies --    513.6361               548.4298               630.7720
 Red. masses --      3.0791                 2.1211                 4.3332
 Frc consts  --      0.4786                 0.3759                 1.0158
 IR Inten    --      2.3613                14.5897                 3.0303

                     25                     26                     27
                      A                      A                      A
 Frequencies --    671.4682               690.6400               720.6814
 Red. masses --      4.7674                 6.7484                 1.6551
 Frc consts  --      1.2664                 1.8965                 0.5065
 IR Inten    --      4.3632                 2.5781                41.2644

                     28                     29                     30
                      A                      A                      A
 Frequencies --    735.9070               762.5936               786.9135
 Red. masses --      1.3566                 2.5888                 4.5894
 Frc consts  --      0.4329                 0.8870                 1.6744
 IR Inten    --     69.5672                45.3214                31.2237

                     31                     32                     33
                      A                      A                      A
 Frequencies --    829.2841               861.5671               896.9804
 Red. masses --      2.0971                 2.1738                 2.4227
 Frc consts  --      0.8497                 0.9507                 1.1485
 IR Inten    --      0.6553                 9.2514                 1.6053

                     34                     35                     36
                      A                      A                      A
 Frequencies --    924.5257               946.4630               998.9786
 Red. masses --      1.5192                 1.7988                 2.1816
 Frc consts  --      0.7651                 0.9494                 1.2827
 IR Inten    --      1.4350                15.6608                16.3602

                     37                     38                     39
                      A                      A                      A
 Frequencies --   1008.5947              1033.7408              1057.6572
 Red. masses --      2.1230                 2.0863                 2.2825
 Frc consts  --      1.2724                 1.3136                 1.5044
 IR Inten    --      7.7708                 0.7341                 7.7061

                     40                     41                     42
                      A                      A                      A
 Frequencies --   1079.9591              1094.2438              1100.1567
 Red. masses --      1.4752                 2.3973                10.3555
 Frc consts  --      1.0137                 1.6912                 7.3846
 IR Inten    --      1.8241                17.7792                 2.1053

                     43                     44                     45
                      A                      A                      A
 Frequencies --   1110.2925              1118.4970              1145.8929
 Red. masses --      2.0813                 2.5715                 2.0120
 Frc consts  --      1.5117                 1.8954                 1.5566
 IR Inten    --     47.5727                41.4694                18.7517

                     46                     47                     48
                      A                      A                      A
 Frequencies --   1159.7307              1175.5391              1194.1524
 Red. masses --      1.3060                 2.0579                 2.0463
 Frc consts  --      1.0349                 1.6755                 1.7193
 IR Inten    --      0.1046                 4.3756                28.3700

                     49                     50                     51
                      A                      A                      A
 Frequencies --   1215.1220              1270.0582              1275.2006
 Red. masses --      1.8510                 4.2787                 1.3114
 Frc consts  --      1.6102                 4.0664                 1.2565
 IR Inten    --     22.6670                 0.9299                 5.7101

                     52                     53                     54
                      A                      A                      A
 Frequencies --   1295.6340              1326.3737              1357.7823
 Red. masses --      1.1711                 1.1602                 2.2649
 Frc consts  --      1.1582                 1.2026                 2.4602
 IR Inten    --      2.0334                 2.9078                28.3459

                     55                     56                     57
                      A                      A                      A
 Frequencies --   1380.0701              1386.5578              1398.0468
 Red. masses --      1.3608                 1.5594                 1.3914
 Frc consts  --      1.5271                 1.7664                 1.6023
 IR Inten    --     14.4560                11.7395                13.9676

                     58                     59                     60
                      A                      A                      A
 Frequencies --   1412.0444              1420.4165              1428.8831
 Red. masses --      1.4799                 1.8189                 1.3178
 Frc consts  --      1.7385                 2.1621                 1.5852
 IR Inten    --     37.3461                13.5014                15.4598

                     61                     62                     63
                      A                      A                      A
 Frequencies --   1435.9028              1437.7654              1453.0920
 Red. masses --      1.3218                 1.2901                 1.3337
 Frc consts  --      1.6058                 1.5713                 1.6591
 IR Inten    --      0.8821                 4.8119                15.7802

                     64                     65                     66
                      A                      A                      A
 Frequencies --   1468.4190              1484.1516              1488.3037
 Red. masses --      1.7183                 1.1720                 1.1509
 Frc consts  --      2.1830                 1.5211                 1.5020
 IR Inten    --     18.4459                16.6909                12.8405

                     67                     68                     69
                      A                      A                      A
 Frequencies --   1498.5862              1501.8086              1509.0485
 Red. masses --      1.2734                 1.1003                 1.0497
 Frc consts  --      1.6849                 1.4622                 1.4084
 IR Inten    --     16.2931                11.3608                11.4024

                     70                     71                     72
                      A                      A                      A
 Frequencies --   1509.9009              1522.1578              1523.3841
 Red. masses --      1.0742                 1.1033                 1.1538
 Frc consts  --      1.4428                 1.5062                 1.5776
 IR Inten    --      7.3887                 1.8239                 2.6496

                     73                     74                     75
                      A                      A                      A
 Frequencies --   1525.0392              1531.0781              1532.2572
 Red. masses --      1.3514                 1.1173                 1.1536
 Frc consts  --      1.8518                 1.5432                 1.5958
 IR Inten    --      0.3406                11.1070                 7.3765

                     76                     77                     78
                      A                      A                      A
 Frequencies --   1535.7192              1541.5691              1571.4662
 Red. masses --      1.0658                 1.0850                 3.4897
 Frc consts  --      1.4810                 1.5191                 5.0775
 IR Inten    --      8.6472                 9.4207                15.2940

                     79                     80                     81
                      A                      A                      A
 Frequencies --   1590.4255              2997.8370              3003.3316
 Red. masses --      5.1321                 1.0661                 1.0661
 Frc consts  --      7.6485                 5.6452                 5.6656
 IR Inten    --     37.6617                 7.2555                83.8035

                     82                     83                     84
                      A                      A                      A
 Frequencies --   3005.8723              3017.1954              3037.4854
 Red. masses --      1.0675                 1.0689                 1.0628
 Frc consts  --      5.6830                 5.7332                 5.7775
 IR Inten    --     33.5122                45.7702                23.4899

                     85                     86                     87
                      A                      A                      A
 Frequencies --   3049.6269              3056.0822              3056.4773
 Red. masses --      1.0399                 1.0984                 1.0405
 Frc consts  --      5.6981                 6.0440                 5.7271
 IR Inten    --     25.1321               102.0483                14.4324

                     88                     89                     90
                      A                      A                      A
 Frequencies --   3069.6249              3073.0002              3076.0535
 Red. masses --      1.0374                 1.0920                 1.0981
 Frc consts  --      5.7595                 6.0759                 6.1216
 IR Inten    --     27.2863                17.3158                29.2174

                     91                     92                     93
                      A                      A                      A
 Frequencies --   3077.7551              3081.2855              3101.0411
 Red. masses --      1.0943                 1.0954                 1.1018
 Frc consts  --      6.1076                 6.1274                 6.2426
 IR Inten    --     24.6242                66.2887                14.7119

                     94                     95                     96
                      A                      A                      A
 Frequencies --   3114.5835              3133.0068              3141.0365
 Red. masses --      1.1020                 1.1054                 1.0970
 Frc consts  --      6.2987                 6.3926                 6.3767
 IR Inten    --     41.9365                13.8815                56.6543

                     97                     98                     99
                      A                      A                      A
 Frequencies --   3164.9843              3174.2220              3530.8817
 Red. masses --      1.0978                 1.1017                 1.0670
 Frc consts  --      6.4792                 6.5399                 7.8377
 IR Inten    --      2.6150                 7.6730               540.6469

 - Thermochemistry -
 -------------------
 Temperature   298.150 Kelvin.  Pressure   1.00000 Atm.
 Atom     1 has atomic number  6 and mass  12.00000

 Molecular mass:   212.16371 amu.
 Principal axes and moments of inertia in atomic units:
                           1         2         3
     Eigenvalues --  2265.409173944.795315064.18083
           X            0.99992   0.00602   0.01122
           Y           -0.00588   0.99990  -0.01273
           Z           -0.01130   0.01266   0.99986
 This molecule is an asymmetric top.
 Rotational symmetry number  1.
 Warning -- assumption of classical behavior for rotation
           may cause significant error
 Rotational temperatures (Kelvin)      0.03823     0.02196     0.01710
 Rotational constants (GHZ):           0.79665     0.45750     0.35637
 Zero-point vibrational energy     813783.2 (Joules/Mol)
                                  194.49886 (Kcal/Mol)
 Warning -- explicit consideration of  23 degrees of freedom as
           vibrations may cause significant error
 Vibrational temperatures:     47.36    73.82    82.99    88.63   102.13
          (Kelvin)            155.89   180.13   231.67   246.59   267.91
                              299.00   304.83   343.13   356.98   410.53
                              419.06   461.84   502.57   551.34   620.89
                              682.63   739.01   789.07   907.54   966.09
                              993.68  1036.90  1058.81  1097.20  1132.19
                             1193.15  1239.60  1290.55  1330.19  1361.75
                             1437.31  1451.14  1487.32  1521.73  1553.82
                             1574.37  1582.88  1597.46  1609.27  1648.68
                             1668.59  1691.34  1718.12  1748.29  1827.33
                             1834.73  1864.13  1908.36  1953.55  1985.61
                             1994.95  2011.48  2031.62  2043.66  2055.84
                             2065.94  2068.62  2090.68  2112.73  2135.36
                             2141.34  2156.13  2160.77  2171.18  2172.41
                             2190.05  2191.81  2194.19  2202.88  2204.58
                             2209.56  2217.97  2260.99  2288.27  4313.22
                             4321.12  4324.78  4341.07  4370.26  4387.73
                             4397.02  4397.59  4416.51  4421.36  4425.75
                             4428.20  4433.28  4461.71  4481.19  4507.70
                             4519.25  4553.71  4567.00  5080.15

 Zero-point correction=                           0.309954 (Hartree/Particle)
 Thermal correction to Energy=                    0.326679
 Thermal correction to Enthalpy=                  0.327624
 Thermal correction to Gibbs Free Energy=         0.264828
 Sum of electronic and zero-point Energies=           -687.056281
 Sum of electronic and thermal Energies=              -687.039556
 Sum of electronic and thermal Enthalpies=            -687.038612
 Sum of electronic and thermal Free Energies=         -687.101407

                     E (Thermal)             CV                S
                      KCal/Mol        Cal/Mol-Kelvin    Cal/Mol-Kelvin
 Total                  204.994             60.580            132.165
 Electronic               0.000              0.000              0.000
 Translational            0.889              2.981             41.960
 Rotational               0.889              2.981             32.182
 Vibrational            203.217             54.619             58.023
 Vibration     1          0.594              1.983              5.645
 Vibration     2          0.596              1.977              4.766
 Vibration     3          0.596              1.974              4.535
 Vibration     4          0.597              1.973              4.405
 Vibration     5          0.598              1.968              4.126
 Vibration     6          0.606              1.943              3.298
 Vibration     7          0.610              1.928              3.019
 Vibration     8          0.622              1.890              2.538
 Vibration     9          0.626              1.878              2.420
 Vibration    10          0.632              1.859              2.265
 Vibration    11          0.641              1.829              2.063
 Vibration    12          0.643              1.823              2.028
 Vibration    13          0.656              1.782              1.814
 Vibration    14          0.662              1.766              1.744
 Vibration    15          0.683              1.701              1.502
 Vibration    16          0.687              1.690              1.467
 Vibration    17          0.706              1.633              1.305
 Vibration    18          0.727              1.577              1.169
 Vibration    19          0.752              1.506              1.027
 Vibration    20          0.793              1.402              0.854
 Vibration    21          0.831              1.307              0.725
 Vibration    22          0.869              1.220              0.625
 Vibration    23          0.904              1.143              0.547

                           ! Non-Optimized Parameters !
 Normal termination of Gaussian 16 at Thu Dec 10 17:03:30 2020.

 ----------------------------------------------------------------------
 # B3LYP/6-311++G(d,p) empiricaldispersion=gd3bj scf=xqc pop=npa geom=c
 heck
 ----------------------------------------------------------------------

 --------------------------------------
 CID_60968059_JID_5600_Energie_neutraal
 --------------------------------------
 Structure from the checkpoint file:  "JID_5600.chk"
 Charge =  0 Multiplicity = 1

 SCF Done:  E(RB3LYP) =  -687.563812378     A.U. after   15 cycles
 Normal termination of Gaussian 16 at Thu Dec 10 17:09:56 2020.

 ----------------------------------------------------------------------
 # B3LYP/6-311++G(d,p) empiricaldispersion=gd3bj scf=xqc pop=npa geom=c
 heck
 ----------------------------------------------------------------------

 ------------------------------------
 CID_60968059_JID_5600_Energie_kation
 ------------------------------------
 Structure from the checkpoint file:  "JID_5600.chk"
 Charge =  1 Multiplicity = 2

 SCF Done:  E(UB3LYP) =  -687.289088746     A.U. after   20 cycles
 Normal termination of Gaussian 16 at Thu Dec 10 17:22:39 2020.
 Gaussian 16:  ES64L-G16RevA.03 25-Dec-2016

 ----------------------------------------------------------------------
 # B3LYP/6-311++G(d,p) empiricaldispersion=gd3bj scf=xqc pop=npa geom=c
 heck
 ----------------------------------------------------------------------

 -----------------------------------
 CID_60968059_JID_5600_Energie_anion
 -----------------------------------
 Structure from the checkpoint file:  "JID_5600.chk"
 Charge = -1 Multiplicity = 2

                         Standard orientation:
 ---------------------------------------------------------------------
 Center     Atomic      Atomic             Coordinates (Angstroms)
 Number     Number       Type             X           Y           Z
 ---------------------------------------------------------------------
      1          6           0        0.220744    2.831728   -0.717001
      2          6           0       -1.303125    2.688825   -0.611250
      3          6           0       -1.859194    1.256524   -0.700851
      4          7           0       -1.873532    0.515844    0.558964
      5          6           0       -2.920881   -0.498762    0.664873
      6          6           0       -2.872114   -1.696665   -0.293804
      7          8           0       -1.798153   -2.573531   -0.028944
      8          6           0       -0.607825    0.237870    1.204946
      9          6           0        0.510173   -0.304387    0.344839
     10          7           0        0.397449   -1.002926   -0.763331
     11          7           0        1.665460   -1.258287   -1.250610
     12          6           0        2.520015   -0.703680   -0.423757
     13          7           0        1.842681   -0.084601    0.606454
     14          6           0        2.411142    0.619300    1.743545
     15          6           0        4.002418   -0.734810   -0.567888
     16          1           0        0.739270    2.470266    0.175046
     17          1           0        0.502498    3.882420   -0.849805
     18          1           0        0.608150    2.268273   -1.573550
     19          1           0       -1.671417    3.154212    0.311926
     20          1           0       -1.746832    3.254147   -1.441220
     21          1           0       -2.908509    1.325994   -1.008936
     22          1           0       -1.331680    0.713982   -1.501427
     23          1           0       -2.908651   -0.887266    1.690564
     24          1           0       -3.884395    0.014950    0.527785
     25          1           0       -3.802073   -2.266718   -0.163109
     26          1           0       -2.856453   -1.341499   -1.336440
     27          1           0       -1.013161   -2.195773   -0.479040
     28          1           0       -0.230696    1.155734    1.680249
     29          1           0       -0.798236   -0.469435    2.020607
     30          1           0        3.497665    0.534590    1.705747
     31          1           0        2.141851    1.679936    1.720443
     32          1           0        2.058860    0.181783    2.681791
     33          1           0        4.486876   -1.232351    0.281047
     34          1           0        4.241740   -1.292757   -1.475000
     35          1           0        4.427892    0.271874   -0.657375
 ---------------------------------------------------------------------

 SCF Done:  E(UB3LYP) =  -687.558451454     A.U. after   29 cycles

 The electronic state is 2-A.
 Alpha  occ. eigenvalues --  -19.00554 -14.28400 -14.22802 -14.22330 -14.21644
 Alpha  occ. eigenvalues --  -10.14175 -10.14139 -10.12186 -10.11738 -10.11579
 Alpha  occ. eigenvalues --  -10.10494 -10.10105 -10.08444 -10.07734 -10.06487
 Alpha  occ. eigenvalues --   -0.96714  -0.91304  -0.83631  -0.82994  -0.73746
 Alpha  occ. eigenvalues --   -0.68921  -0.65968  -0.63651  -0.62543  -0.61825
 Alpha  occ. eigenvalues --   -0.57013  -0.52027  -0.51422  -0.48502  -0.46709
 Alpha  occ. eigenvalues --   -0.42512  -0.41099  -0.40866  -0.39337  -0.38559
 Alpha  occ. eigenvalues --   -0.36796  -0.35143  -0.34519  -0.33482  -0.33415
 Alpha  occ. eigenvalues --   -0.33054  -0.31915  -0.31481  -0.30928  -0.30475
 Alpha  occ. eigenvalues --   -0.29984  -0.29201  -0.28071  -0.25250  -0.24728
 Alpha  occ. eigenvalues --   -0.24576  -0.24087  -0.21485  -0.19381  -0.18059
 Alpha  occ. eigenvalues --   -0.17052  -0.15774  -0.11765   0.03953
 Alpha virt. eigenvalues --    0.06267   0.07175   0.07373   0.08654   0.08872
 Alpha virt. eigenvalues --    0.09169   0.09679   0.10117   0.10303   0.10976
 Alpha virt. eigenvalues --    0.11464   0.11660   0.12340   0.12615   0.12647

  Beta  occ. eigenvalues --  -19.00552 -14.28395 -14.22801 -14.22326 -14.21643
  Beta  occ. eigenvalues --  -10.14175 -10.14139 -10.12166 -10.11737 -10.11484
  Beta  occ. eigenvalues --  -10.10490 -10.10103 -10.08394 -10.07724 -10.06459
  Beta  occ. eigenvalues --   -0.96704  -0.91301  -0.83624  -0.82977  -0.73735
  Beta  occ. eigenvalues --   -0.68901  -0.65938  -0.63572  -0.62473  -0.61792
  Beta  occ. eigenvalues --   -0.56991  -0.52012  -0.51388  -0.48455  -0.46670
  Beta  occ. eigenvalues --   -0.42459  -0.41057  -0.40848  -0.39315  -0.38537
  Beta  occ. eigenvalues --   -0.36767  -0.35120  -0.34471  -0.33446  -0.33369
  Beta  occ. eigenvalues --   -0.33028  -0.31879  -0.31458  -0.30855  -0.30436
  Beta  occ. eigenvalues --   -0.29959  -0.29181  -0.28060  -0.25220  -0.24710
  Beta  occ. eigenvalues --   -0.24553  -0.24075  -0.21468  -0.19357  -0.18052
  Beta  occ. eigenvalues --   -0.17039  -0.15764  -0.11759
  Beta virt. eigenvalues --    0.06160   0.07106   0.07496   0.07987   0.09036
  Beta virt. eigenvalues --    0.09279   0.09563   0.10097   0.10449   0.10585
  Beta virt. eigenvalues --    0.11333   0.11703   0.12045   0.12423   0.12828

 Mulliken charges and spin densities:
               1          2
     1  C   -0.403175  -0.033385
     2  C   -0.433475   0.068892
     3  C    0.142954  -0.412307
     4  N    0.158500   0.106813
     5  C   -0.014460  -0.055360
     6  C   -0.311778  -0.050644
     7  O   -0.300550   0.003796
     8  C    0.005609  -1.045181
     9  C   -0.769679   0.602627
    10  N   -0.258968  -0.039135
    11  N    0.111658   0.077863
    12  C   -1.444538   1.804515
    13  N   -0.183841   0.342877
    14  C    2.099441  -2.395140
    15  C    2.087545  -2.830935
    16  H    0.691457  -0.617988
    17  H   -0.443608   0.616212
    18  H    0.123547   0.027179
    19  H   -0.049193   0.199222
    20  H    0.085135   0.048690
    21  H    0.128518   0.002528
    22  H    0.124119   0.030266
    23  H    0.080966   0.056165
    24  H    0.072849   0.052772
    25  H    0.140908   0.002265
    26  H    0.134040   0.002259
    27  H    0.328777   0.017130
    28  H    0.033420   0.162892
    29  H    0.126100   0.089799
    30  H   -0.911214   1.090124
    31  H   -0.879691   1.080451
    32  H   -0.681882   0.870469
    33  H   -0.325373   0.505844
    34  H    0.085221   0.086588
    35  H   -0.349340   0.531839
 Sum of Mulliken charges =  -1.00000   1.00000

 Dipole moment (field-independent basis, Debye):
    X=             -8.9540    Y=             -0.9436    Z=             -3.9893  Tot=              9.8478
 Quadrupole moment (field-independent basis, Debye-Ang):
   XX=           -160.2746   YY=           -146.8094   ZZ=           -136.7484
   XY=            -10.1233   XZ=            -13.1258   YZ=             -7.5912

 Summary of Natural Population Analysis:

                                       Natural Population
                Natural  -----------------------------------------------
    Atom  No    Charge         Core      Valence    Rydberg      Total
 -----------------------------------------------------------------------
      C    1   -0.28652      0.99966     2.28166    0.00520     3.28652
      C    2   -0.19579      0.99964     2.18799    0.00817     3.19579
      C    3   -0.08702      0.99960     2.07642    0.01100     3.08702
      N    4   -0.28040      0.99972     2.76724    0.01344     3.78040
      C    5   -0.09056      0.99961     2.07826    0.01270     3.09056
      C    6   -0.01986      0.99960     2.00872    0.01154     3.01986
      O    7   -0.38829      0.99989     3.38066    0.00774     4.38829
      C    8   -0.10614      0.99957     2.09333    0.01324     3.10614
      C    9    0.19423      0.99958     1.78919    0.01699     2.80577
      N   10   -0.19920      0.99964     2.68530    0.01427     3.69920
      N   11   -0.16478      0.99968     2.65344    0.01166     3.66478
      C   12    0.19381      0.99960     1.78996    0.01663     2.80619
      N   13   -0.21446      0.99959     2.70305    0.01182     3.71446
      C   14   -0.17931      0.99963     2.17077    0.00892     3.17931
      C   15   -0.30999      0.99963     2.30465    0.00572     3.30999
      H   16    0.09525      0.00000     0.40310    0.00166     0.40475
      H   17    0.09973      0.00000     0.39930    0.00097     0.40027
      H   18    0.09855      0.00000     0.40033    0.00112     0.40145
      H   19    0.09753      0.00000     0.40117    0.00130     0.40247
      H   20    0.09377      0.00000     0.40538    0.00086     0.40623
      H   21    0.09223      0.00000     0.40674    0.00103     0.40777
      H   22    0.09271      0.00000     0.40563    0.00166     0.40729
      H   23    0.09468      0.00000     0.40417    0.00115     0.40532
      H   24    0.08889      0.00000     0.40988    0.00122     0.41111
      H   25    0.07863      0.00000     0.41998    0.00139     0.42137
      H   26    0.07647      0.00000     0.42244    0.00109     0.42353
      H   27    0.24708      0.00000     0.24908    0.00384     0.25292
      H   28    0.10225      0.00000     0.39559    0.00216     0.39775
      H   29    0.11223      0.00000     0.38633    0.00144     0.38777
      H   30    0.11365      0.00000     0.38043    0.00592     0.38635
      H   31    0.10538      0.00000     0.39046    0.00416     0.39462
      H   32    0.10632      0.00000     0.39024    0.00344     0.39368
      H   33    0.11172      0.00000     0.38669    0.00159     0.38828
      H   34    0.11497      0.00000     0.38393    0.00110     0.38503
      H   35    0.11225      0.00000     0.38618    0.00157     0.38775
 =======================================================================
   * Total *   -0.00000     14.99463    42.79767    0.20771    58.00000

 Normal termination of Gaussian 16 at Thu Dec 10 17:38:50 2020.
