 Gaussian 16, Revision A.03,

 -----------------------------------------------------------
 # opt freq B3LYP/6-31G(d) empiricaldispersion=gd3bj scf=xqc
 -----------------------------------------------------------

 -------------------------------
 CID_130957226_JID_2747_neutraal
 -------------------------------
 Symbolic Z-matrix:
 Charge =  0 Multiplicity = 1

 SCF Done:  E(RB3LYP) =  -861.494466107     A.U. after   13 cycles
 SCF Done:  E(RB3LYP) =  -861.506854997     A.U. after   11 cycles
 SCF Done:  E(RB3LYP) =  -861.508223618     A.U. after   11 cycles
 SCF Done:  E(RB3LYP) =  -861.508746565     A.U. after   10 cycles
 SCF Done:  E(RB3LYP) =  -861.508818169     A.U. after   10 cycles
 SCF Done:  E(RB3LYP) =  -861.508924072     A.U. after   10 cycles
 SCF Done:  E(RB3LYP) =  -861.508952597     A.U. after    9 cycles
 SCF Done:  E(RB3LYP) =  -861.508961810     A.U. after    9 cycles
 SCF Done:  E(RB3LYP) =  -861.508963528     A.U. after    8 cycles
 SCF Done:  E(RB3LYP) =  -861.508964477     A.U. after    8 cycles
 SCF Done:  E(RB3LYP) =  -861.508964602     A.U. after    6 cycles
 Optimization completed.
    -- Stationary point found.
 Normal termination of Gaussian 16 at Wed Dec  9 17:55:45 2020.

 --------------------------------------------------------------------
 #N Geom=AllCheck Guess=TCheck SCRF=Check GenChk RB3LYP/6-31G(d) Freq
 --------------------------------------------------------------------

 Structure from the checkpoint file:  "JID_2747.chk"
 -------------------------------
 CID_130957226_JID_2747_neutraal
 -------------------------------
 Charge =  0 Multiplicity = 1

 SCF Done:  E(RB3LYP) =  -861.508964602     A.U. after    1 cycles

  Exact polarizability: 135.569  -5.476 116.016  -1.033  -0.145 108.584
 Approx polarizability: 169.698 -13.843 172.975  -2.951   0.876 166.687

                      1                      2                      3
                      A                      A                      A
 Frequencies --     11.2473                49.4444                66.6761
 Red. masses --      1.7069                 3.6212                 2.7613
 Frc consts  --      0.0001                 0.0052                 0.0072
 IR Inten    --      0.0312                 0.6090                 0.7193

                      4                      5                      6
                      A                      A                      A
 Frequencies --     87.4095               114.2263               150.4268
 Red. masses --      4.0879                 3.5082                 2.7560
 Frc consts  --      0.0184                 0.0270                 0.0367
 IR Inten    --      0.7361                 2.3142                 1.2737

                      7                      8                      9
                      A                      A                      A
 Frequencies --    211.1645               231.5290               245.0803
 Red. masses --      2.4758                 1.4346                 1.9226
 Frc consts  --      0.0650                 0.0453                 0.0680
 IR Inten    --      0.1550                26.4171                11.2800

                     10                     11                     12
                      A                      A                      A
 Frequencies --    282.6799               344.9606               384.6296
 Red. masses --      3.2654                 2.3361                 3.1448
 Frc consts  --      0.1537                 0.1638                 0.2741
 IR Inten    --      0.7148                10.4162                 1.1483

                     13                     14                     15
                      A                      A                      A
 Frequencies --    390.4848               451.3164               518.3205
 Red. masses --      3.0385                 2.2261                 3.2542
 Frc consts  --      0.2730                 0.2672                 0.5151
 IR Inten    --      0.4502                 0.5410                 7.7956

                     16                     17                     18
                      A                      A                      A
 Frequencies --    562.1171               614.9229               626.6888
 Red. masses --      3.9360                 3.1665                 2.6632
 Frc consts  --      0.7327                 0.7055                 0.6163
 IR Inten    --      3.6690                13.3588                 0.5868

                     19                     20                     21
                      A                      A                      A
 Frequencies --    692.4272               723.4117               761.6199
 Red. masses --      5.5635                 2.4243                 1.5388
 Frc consts  --      1.5716                 0.7475                 0.5259
 IR Inten    --      2.7866                23.5912                31.4844

                     22                     23                     24
                      A                      A                      A
 Frequencies --    793.1027               802.9413               821.3965
 Red. masses --      1.4899                 2.3696                 1.5611
 Frc consts  --      0.5521                 0.9001                 0.6206
 IR Inten    --     13.3031                42.8022                 0.4196

                     25                     26                     27
                      A                      A                      A
 Frequencies --    865.6366               887.6156               893.3066
 Red. masses --      1.3528                 2.9722                 1.4827
 Frc consts  --      0.5972                 1.3797                 0.6971
 IR Inten    --     63.8071                 1.4846                 3.5949

                     28                     29                     30
                      A                      A                      A
 Frequencies --    903.5318               916.7863               960.9856
 Red. masses --      2.2868                 2.0477                 2.0382
 Frc consts  --      1.0999                 1.0140                 1.1090
 IR Inten    --      3.5755                10.0645                43.8159

                     31                     32                     33
                      A                      A                      A
 Frequencies --    971.9126               982.7801               990.8336
 Red. masses --      1.9970                 1.2872                 1.4943
 Frc consts  --      1.1114                 0.7325                 0.8644
 IR Inten    --      7.2798                 0.0680                 0.6277

                     34                     35                     36
                      A                      A                      A
 Frequencies --   1008.0842              1059.0034              1062.9986
 Red. masses --      1.4029                 1.8891                 2.1673
 Frc consts  --      0.8400                 1.2482                 1.4429
 IR Inten    --      2.8913                 5.1829                 1.0419

                     37                     38                     39
                      A                      A                      A
 Frequencies --   1072.2447              1083.5835              1110.4857
 Red. masses --      1.1467                 2.2661                 3.1515
 Frc consts  --      0.7768                 1.5677                 2.2898
 IR Inten    --      0.4409                 8.1348                 4.8086

                     40                     41                     42
                      A                      A                      A
 Frequencies --   1154.6331              1179.9947              1210.7520
 Red. masses --      1.8905                 2.4752                 1.4079
 Frc consts  --      1.4849                 2.0306                 1.2160
 IR Inten    --      3.4556                74.2383                 5.0517

                     43                     44                     45
                      A                      A                      A
 Frequencies --   1217.6207              1227.5115              1233.2250
 Red. masses --      1.3688                 1.4354                 1.4568
 Frc consts  --      1.1957                 1.2743                 1.3054
 IR Inten    --     12.3050                 7.6435                16.0750

                     46                     47                     48
                      A                      A                      A
 Frequencies --   1245.8882              1273.0077              1287.0186
 Red. masses --      1.5010                 1.2208                 1.8236
 Frc consts  --      1.3727                 1.1656                 1.7797
 IR Inten    --      5.7593                 2.7556                 2.6019

                     49                     50                     51
                      A                      A                      A
 Frequencies --   1295.0116              1312.1954              1335.5310
 Red. masses --      1.9270                 1.2770                 1.2419
 Frc consts  --      1.9041                 1.2955                 1.3051
 IR Inten    --     14.2801                 0.3333                 3.0482

                     52                     53                     54
                      A                      A                      A
 Frequencies --   1351.0546              1351.5263              1358.9704
 Red. masses --      1.2454                 1.3534                 1.4439
 Frc consts  --      1.3394                 1.4565                 1.5711
 IR Inten    --      1.4002                 0.3418                 3.7644

                     55                     56                     57
                      A                      A                      A
 Frequencies --   1373.2187              1416.4895              1439.0216
 Red. masses --      1.4236                 1.3774                 1.4614
 Frc consts  --      1.5816                 1.6283                 1.7830
 IR Inten    --     14.9853                 7.0837                 5.9254

                     58                     59                     60
                      A                      A                      A
 Frequencies --   1505.2614              1512.7326              1524.0412
 Red. masses --      1.0939                 1.0813                 1.1072
 Frc consts  --      1.4604                 1.4578                 1.5152
 IR Inten    --      1.1555                 1.2177                12.2741

                     61                     62                     63
                      A                      A                      A
 Frequencies --   1524.3183              1526.5917              1528.1712
 Red. masses --      1.0900                 1.1133                 1.0869
 Frc consts  --      1.4922                 1.5287                 1.4955
 IR Inten    --      1.3505                25.1255                 3.5651

                     64                     65                     66
                      A                      A                      A
 Frequencies --   1535.5486              1549.7345              1694.8364
 Red. masses --      1.2482                 1.1100                 1.0882
 Frc consts  --      1.7341                 1.5707                 1.8417
 IR Inten    --     77.1690                 5.3774                40.7580

                     67                     68                     69
                      A                      A                      A
 Frequencies --   3013.7772              3029.3819              3036.7050
 Red. masses --      1.0685                 1.0745                 1.0748
 Frc consts  --      5.7179                 5.8097                 5.8396
 IR Inten    --     42.3310                10.7724                13.5331

                     70                     71                     72
                      A                      A                      A
 Frequencies --   3050.2217              3056.7640              3069.2535
 Red. masses --      1.0709                 1.0638                 1.0644
 Frc consts  --      5.8702                 5.8566                 5.9075
 IR Inten    --     45.3781                18.6533                61.0017

                     73                     74                     75
                      A                      A                      A
 Frequencies --   3082.3228              3085.1446              3089.9489
 Red. masses --      1.0607                 1.0598                 1.0982
 Frc consts  --      5.9375                 5.9433                 6.1778
 IR Inten    --     45.5482                 5.9226                29.0214

                     76                     77                     78
                      A                      A                      A
 Frequencies --   3096.2659              3101.3991              3107.2156
 Red. masses --      1.0942                 1.0968                 1.0992
 Frc consts  --      6.1808                 6.2156                 6.2525
 IR Inten    --     27.2883                14.2397                24.4382

                     79                     80                     81
                      A                      A                      A
 Frequencies --   3118.1409              3142.6470              3154.1607
 Red. masses --      1.1047                 1.1100                 1.1029
 Frc consts  --      6.3284                 6.4592                 6.4647
 IR Inten    --     88.9558                17.5376                17.6849

                     82                     83                     84
                      A                      A                      A
 Frequencies --   3480.5938              3482.4994              3565.3362
 Red. masses --      1.0558                 1.0678                 1.0922
 Frc consts  --      7.5357                 7.6301                 8.1800
 IR Inten    --      6.2348                23.1811                 0.1218

 - Thermochemistry -
 -------------------
 Temperature   298.150 Kelvin.  Pressure   1.00000 Atm.
 Atom     1 has atomic number  6 and mass  12.00000

 Molecular mass:   186.11907 amu.
 Principal axes and moments of inertia in atomic units:
                           1         2         3
     Eigenvalues --  1449.083123781.662244324.42303
           X            0.99951   0.03099   0.00352
           Y           -0.03091   0.99932  -0.02007
           Z           -0.00414   0.01996   0.99979
 This molecule is an asymmetric top.
 Rotational symmetry number  1.
 Warning -- assumption of classical behavior for rotation
           may cause significant error
 Rotational temperatures (Kelvin)      0.05977     0.02290     0.02003
 Rotational constants (GHZ):           1.24544     0.47723     0.41734
 Zero-point vibrational energy     709587.1 (Joules/Mol)
                                  169.59539 (Kcal/Mol)
 Warning -- explicit consideration of  17 degrees of freedom as
           vibrations may cause significant error
 Vibrational temperatures:     16.18    71.14    95.93   125.76   164.35
          (Kelvin)            216.43   303.82   333.12   352.62   406.71
                              496.32   553.40   561.82   649.34   745.75
                              808.76   884.74   901.67   996.25  1040.83
                             1095.80  1141.10  1155.25  1181.81  1245.46
                             1277.08  1285.27  1299.98  1319.05  1382.64
                             1398.37  1414.00  1425.59  1450.41  1523.67
                             1529.42  1542.72  1559.03  1597.74  1661.26
                             1697.75  1742.00  1751.88  1766.12  1774.34
                             1792.56  1831.57  1851.73  1863.23  1887.96
                             1921.53  1943.87  1944.54  1955.26  1975.76
                             2038.01  2070.43  2165.74  2176.48  2192.76
                             2193.15  2196.43  2198.70  2209.31  2229.72
                             2438.49  4336.15  4358.60  4369.14  4388.59
                             4398.00  4415.97  4434.78  4438.83  4445.75
                             4454.84  4462.22  4470.59  4486.31  4521.57
                             4538.13  5007.80  5010.54  5129.72

 Zero-point correction=                           0.270267 (Hartree/Particle)
 Thermal correction to Energy=                    0.283127
 Thermal correction to Enthalpy=                  0.284071
 Thermal correction to Gibbs Free Energy=         0.228797
 Sum of electronic and zero-point Energies=           -861.238697
 Sum of electronic and thermal Energies=              -861.225838
 Sum of electronic and thermal Enthalpies=            -861.224894
 Sum of electronic and thermal Free Energies=         -861.280167

                     E (Thermal)             CV                S
                      KCal/Mol        Cal/Mol-Kelvin    Cal/Mol-Kelvin
 Total                  177.665             48.726            116.333
 Electronic               0.000              0.000              0.000
 Translational            0.889              2.981             41.570
 Rotational               0.889              2.981             31.539
 Vibrational            175.887             42.764             43.225
 Vibration     1          0.593              1.987              7.778
 Vibration     2          0.595              1.978              4.839
 Vibration     3          0.598              1.970              4.249
 Vibration     4          0.601              1.958              3.717
 Vibration     5          0.607              1.938              3.196
 Vibration     6          0.618              1.902              2.667
 Vibration     7          0.643              1.824              2.034
 Vibration     8          0.653              1.793              1.867
 Vibration     9          0.660              1.771              1.766
 Vibration    10          0.682              1.706              1.517
 Vibration    11          0.723              1.586              1.189
 Vibration    12          0.754              1.503              1.021
 Vibration    13          0.758              1.491              0.998
 Vibration    14          0.810              1.358              0.792
 Vibration    15          0.873              1.209              0.614
 Vibration    16          0.918              1.113              0.520
 Vibration    17          0.974              1.000              0.425

                           ! Non-Optimized Parameters !
 Normal termination of Gaussian 16 at Wed Dec  9 18:04:41 2020.

 ----------------------------------------------------------------------
 # B3LYP/6-311++G(d,p) empiricaldispersion=gd3bj scf=xqc pop=npa geom=c
 heck
 ----------------------------------------------------------------------

 ---------------------------------------
 CID_130957226_JID_2747_Energie_neutraal
 ---------------------------------------
 Structure from the checkpoint file:  "JID_2747.chk"
 Charge =  0 Multiplicity = 1

 SCF Done:  E(RB3LYP) =  -861.673203092     A.U. after   14 cycles
 Normal termination of Gaussian 16 at Wed Dec  9 18:09:03 2020.

 ----------------------------------------------------------------------
 # B3LYP/6-311++G(d,p) empiricaldispersion=gd3bj scf=xqc pop=npa geom=c
 heck
 ----------------------------------------------------------------------

 -------------------------------------
 CID_130957226_JID_2747_Energie_kation
 -------------------------------------
 Structure from the checkpoint file:  "JID_2747.chk"
 Charge =  1 Multiplicity = 2

 SCF Done:  E(UB3LYP) =  -861.389647596     A.U. after   22 cycles
 Normal termination of Gaussian 16 at Wed Dec  9 18:18:14 2020.
 Gaussian 16:  ES64L-G16RevA.03 25-Dec-2016

 ----------------------------------------------------------------------
 # B3LYP/6-311++G(d,p) empiricaldispersion=gd3bj scf=xqc pop=npa geom=c
 heck
 ----------------------------------------------------------------------

 ------------------------------------
 CID_130957226_JID_2747_Energie_anion
 ------------------------------------
 Structure from the checkpoint file:  "JID_2747.chk"
 Charge = -1 Multiplicity = 2

                         Standard orientation:
 ---------------------------------------------------------------------
 Center     Atomic      Atomic             Coordinates (Angstroms)
 Number     Number       Type             X           Y           Z
 ---------------------------------------------------------------------
      1          6           0       -3.721653   -0.432368    0.507415
      2          6           0       -3.408609   -0.357131   -1.021108
      3          6           0       -2.006393    0.274847   -1.130052
      4          6           0       -1.330096   -0.036203    0.223734
      5          6           0       -2.490306    0.165164    1.214950
      6          7           0       -0.159206    0.757209    0.566369
      7          6           0        1.159819    0.256597    0.267627
      8          6           0        1.607918   -0.925511    1.167038
      9         16           0        2.459886   -1.772144   -0.248260
     10          6           0        1.425072   -0.487227   -1.090416
     11          6           0        2.136751    1.431617    0.434027
     12          7           0        1.754815    2.546158   -0.442640
     13          1           0       -3.868393   -1.474881    0.810944
     14          1           0       -4.641136    0.101431    0.766821
     15          1           0       -3.407945   -1.362032   -1.457572
     16          1           0       -4.158785    0.221400   -1.569299
     17          1           0       -2.082840    1.366971   -1.227855
     18          1           0       -1.438956   -0.084417   -1.994609
     19          1           0       -1.044028   -1.096733    0.240138
     20          1           0       -2.617972    1.243998    1.375278
     21          1           0       -2.282214   -0.282290    2.191733
     22          1           0       -0.233704    1.708101    0.206774
     23          1           0        2.263386   -0.659651    2.001554
     24          1           0        0.767890   -1.515264    1.540490
     25          1           0        0.527500   -0.930659   -1.523084
     26          1           0        1.950927    0.080081   -1.864707
     27          1           0        2.055299    1.781384    1.468636
     28          1           0        3.162143    1.062830    0.279265
     29          1           0        2.260059    3.387321   -0.174434
     30          1           0        2.026305    2.344433   -1.403313
 ---------------------------------------------------------------------

 SCF Done:  E(UB3LYP) =  -861.659514874     A.U. after   31 cycles

 The electronic state is 2-A.
 Alpha  occ. eigenvalues --  -88.73437 -14.19000 -14.18795 -10.11625 -10.09658
 Alpha  occ. eigenvalues --  -10.09648 -10.09038 -10.08862 -10.06787 -10.06681
 Alpha  occ. eigenvalues --  -10.06234 -10.06148  -7.82032  -5.78363  -5.78145
 Alpha  occ. eigenvalues --   -5.77391  -0.82533  -0.77311  -0.73942  -0.71130
 Alpha  occ. eigenvalues --   -0.61536  -0.61154  -0.58335  -0.57100  -0.51734
 Alpha  occ. eigenvalues --   -0.47871  -0.46858  -0.44190  -0.40848  -0.39713
 Alpha  occ. eigenvalues --   -0.38466  -0.36609  -0.35420  -0.33403  -0.32343
 Alpha  occ. eigenvalues --   -0.31264  -0.30915  -0.30261  -0.28744  -0.26191
 Alpha  occ. eigenvalues --   -0.25624  -0.24440  -0.24229  -0.24032  -0.23201
 Alpha  occ. eigenvalues --   -0.22602  -0.22085  -0.19822  -0.14906  -0.12440
 Alpha  occ. eigenvalues --   -0.11599   0.04575
 Alpha virt. eigenvalues --    0.06246   0.07511   0.07711   0.08686   0.08973
 Alpha virt. eigenvalues --    0.09364   0.09718   0.10468   0.11273   0.11816
 Alpha virt. eigenvalues --    0.11857   0.12077   0.12205   0.13046   0.14370

  Beta  occ. eigenvalues --  -88.73433 -14.18992 -14.18725 -10.11624 -10.09653
  Beta  occ. eigenvalues --  -10.09643 -10.08990 -10.08842 -10.06772 -10.06663
  Beta  occ. eigenvalues --  -10.06224 -10.06129  -7.82028  -5.78353  -5.78140
  Beta  occ. eigenvalues --   -5.77389  -0.82508  -0.77216  -0.73902  -0.71103
  Beta  occ. eigenvalues --   -0.61483  -0.61117  -0.58284  -0.57033  -0.51682
  Beta  occ. eigenvalues --   -0.47824  -0.46806  -0.44142  -0.40810  -0.39667
  Beta  occ. eigenvalues --   -0.38411  -0.36561  -0.35362  -0.33346  -0.32310
  Beta  occ. eigenvalues --   -0.31222  -0.30880  -0.30231  -0.28700  -0.26149
  Beta  occ. eigenvalues --   -0.25585  -0.24405  -0.24193  -0.23998  -0.23169
  Beta  occ. eigenvalues --   -0.22577  -0.22058  -0.19788  -0.14846  -0.12423
  Beta  occ. eigenvalues --   -0.11576
  Beta virt. eigenvalues --    0.06581   0.07660   0.07733   0.08172   0.08868
  Beta virt. eigenvalues --    0.09550   0.09579   0.10268   0.10842   0.11560
  Beta virt. eigenvalues --    0.11997   0.12082   0.12201   0.12614   0.13322

 Mulliken charges and spin densities:
               1          2
     1  C   -0.071373  -0.227406
     2  C    0.283329  -0.760898
     3  C    0.224990  -0.484036
     4  C   -1.159236   0.814233
     5  C    0.429827  -0.683643
     6  N    0.343756  -0.040464
     7  C   -0.338336   0.944502
     8  C   -0.663305   0.158814
     9  S    0.000507  -0.208068
    10  C    0.148576  -0.554386
    11  C    1.286387  -2.240721
    12  N   -0.470489   0.138416
    13  H   -0.119632   0.252247
    14  H   -0.020041   0.159931
    15  H   -0.118879   0.261085
    16  H   -0.129251   0.268774
    17  H    0.043488   0.094443
    18  H   -0.178737   0.321983
    19  H    0.373784  -0.247453
    20  H   -0.035336   0.163894
    21  H    0.048696   0.101347
    22  H    0.307929  -0.011354
    23  H    0.160226   0.019146
    24  H    0.045994   0.138617
    25  H   -0.066003   0.266404
    26  H   -0.483029   0.682441
    27  H   -0.243479   0.430079
    28  H   -0.099866   0.262096
    29  H   -0.383656   0.645496
    30  H   -0.116838   0.334482
 Sum of Mulliken charges =  -1.00000   1.00000

 Dipole moment (field-independent basis, Debye):
    X=             -2.1327    Y=             -4.5141    Z=              3.3298  Tot=              6.0011
 Quadrupole moment (field-independent basis, Debye-Ang):
   XX=           -148.5646   YY=           -134.1613   ZZ=           -117.5215
   XY=            -13.2975   XZ=              4.8460   YZ=              0.7594

 Summary of Natural Population Analysis:

                                       Natural Population
                Natural  -----------------------------------------------
    Atom  No    Charge         Core      Valence    Rydberg      Total
 -----------------------------------------------------------------------
      C    1   -0.19291      0.99965     2.18657    0.00670     3.19291
      C    2   -0.19295      0.99965     2.18591    0.00739     3.19295
      C    3   -0.19698      0.99962     2.18828    0.00908     3.19698
      C    4   -0.01390      0.99958     2.00061    0.01371     3.01390
      C    5   -0.18703      0.99962     2.17977    0.00765     3.18703
      N    6   -0.34898      0.99967     2.83717    0.01214     3.84898
      C    7    0.05193      0.99954     1.93044    0.01809     2.94807
      C    8   -0.22781      0.99956     2.21950    0.00875     3.22781
      S    9    0.05412      4.99967     2.92984    0.01638     7.94588
      C   10   -0.23736      0.99957     2.22648    0.01131     3.23736
      C   11   -0.08946      0.99955     2.07602    0.01388     3.08946
      N   12   -0.43057      0.99977     2.91945    0.01136     3.93057
      H   13    0.09444      0.00000     0.40418    0.00138     0.40556
      H   14    0.09708      0.00000     0.40172    0.00120     0.40292
      H   15    0.09591      0.00000     0.40284    0.00125     0.40409
      H   16    0.09808      0.00000     0.40082    0.00111     0.40192
      H   17    0.09525      0.00000     0.40326    0.00149     0.40475
      H   18    0.10212      0.00000     0.39662    0.00126     0.39788
      H   19    0.08939      0.00000     0.40836    0.00224     0.41061
      H   20    0.09565      0.00000     0.40294    0.00141     0.40435
      H   21    0.09938      0.00000     0.39950    0.00113     0.40062
      H   22    0.19191      0.00000     0.30406    0.00403     0.30809
      H   23    0.09855      0.00000     0.40019    0.00125     0.40145
      H   24    0.10050      0.00000     0.39791    0.00159     0.39950
      H   25    0.10191      0.00000     0.39597    0.00213     0.39809
      H   26    0.10320      0.00000     0.39463    0.00217     0.39680
      H   27    0.09557      0.00000     0.40298    0.00145     0.40443
      H   28    0.08923      0.00000     0.40848    0.00229     0.41077
      H   29    0.18425      0.00000     0.30973    0.00601     0.31575
      H   30    0.17946      0.00000     0.31499    0.00555     0.32054
 =======================================================================
   * Total *    0.00000     15.99543    34.82922    0.17535    51.00000

 Normal termination of Gaussian 16 at Wed Dec  9 18:30:58 2020.
