 Gaussian 16, Revision A.03,

 -----------------------------------------------------------
 # opt freq B3LYP/6-31G(d) empiricaldispersion=gd3bj scf=xqc
 -----------------------------------------------------------

 -------------------------------
 CID_123140871_JID_1692_neutraal
 -------------------------------
 Symbolic Z-matrix:
 Charge =  0 Multiplicity = 1

 SCF Done:  E(RB3LYP) =  -499.213166240     A.U. after   14 cycles
 SCF Done:  E(RB3LYP) =  -499.216657187     A.U. after   13 cycles
 SCF Done:  E(RB3LYP) =  -499.216930801     A.U. after   13 cycles
 SCF Done:  E(RB3LYP) =  -499.217014616     A.U. after   13 cycles
 SCF Done:  E(RB3LYP) =  -499.218645392     A.U. after   12 cycles
 SCF Done:  E(RB3LYP) =  -499.218855207     A.U. after   11 cycles
 SCF Done:  E(RB3LYP) =  -499.219027525     A.U. after   12 cycles
 SCF Done:  E(RB3LYP) =  -499.219065847     A.U. after   11 cycles
 SCF Done:  E(RB3LYP) =  -499.219159854     A.U. after   12 cycles
 SCF Done:  E(RB3LYP) =  -499.219987487     A.U. after   15 cycles
 SCF Done:  E(RB3LYP) =  -499.229266292     A.U. after   10 cycles
 SCF Done:  E(RB3LYP) =  -499.229269133     A.U. after    9 cycles
 SCF Done:  E(RB3LYP) =  -499.229270694     A.U. after    9 cycles
 SCF Done:  E(RB3LYP) =  -499.229271435     A.U. after    9 cycles
 SCF Done:  E(RB3LYP) =  -499.229271579     A.U. after    8 cycles
 Optimization completed.
    -- Stationary point found.
 Normal termination of Gaussian 16 at Tue Dec  8 21:01:06 2020.

 --------------------------------------------------------------------
 #N Geom=AllCheck Guess=TCheck SCRF=Check GenChk RB3LYP/6-31G(d) Freq
 --------------------------------------------------------------------

 Structure from the checkpoint file:  "JID_1692.chk"
 -------------------------------
 CID_123140871_JID_1692_neutraal
 -------------------------------
 Charge =  0 Multiplicity = 1

 SCF Done:  E(RB3LYP) =  -499.229271579     A.U. after    1 cycles

  Exact polarizability: 111.952  -2.177  94.726   1.756   0.318  87.077
 Approx polarizability: 143.456  -8.050 133.349   6.942  -2.434 135.922

                      1                      2                      3
                      A                      A                      A
 Frequencies --     50.6111                87.8242               116.2621
 Red. masses --      4.6332                 4.1978                 2.6357
 Frc consts  --      0.0070                 0.0191                 0.0210
 IR Inten    --      3.3474                 4.4506                 0.5679

                      4                      5                      6
                      A                      A                      A
 Frequencies --    152.1112               199.0542               236.9304
 Red. masses --      2.8416                 2.6837                 1.1983
 Frc consts  --      0.0387                 0.0627                 0.0396
 IR Inten    --      1.1035                 0.4622                 0.2134

                      7                      8                      9
                      A                      A                      A
 Frequencies --    278.4164               288.4747               291.2329
 Red. masses --      1.1340                 2.2528                 2.6001
 Frc consts  --      0.0518                 0.1105                 0.1299
 IR Inten    --      0.2891                 0.1528                 2.2180

                     10                     11                     12
                      A                      A                      A
 Frequencies --    305.4120               324.3916               381.1585
 Red. masses --      2.3250                 2.1672                 3.0559
 Frc consts  --      0.1278                 0.1344                 0.2616
 IR Inten    --      2.8024                 3.3573                 1.6162

                     13                     14                     15
                      A                      A                      A
 Frequencies --    393.4918               462.0273               484.4610
 Red. masses --      2.3491                 3.0999                 3.6857
 Frc consts  --      0.2143                 0.3899                 0.5097
 IR Inten    --      0.5987                 3.0145                 4.8441

                     16                     17                     18
                      A                      A                      A
 Frequencies --    509.9098               578.0881               597.5583
 Red. masses --      3.9687                 1.8690                 3.1242
 Frc consts  --      0.6080                 0.3680                 0.6573
 IR Inten    --      4.8341                 7.9395                44.7073

                     19                     20                     21
                      A                      A                      A
 Frequencies --    806.3610               855.1738               868.4721
 Red. masses --      1.5597                 2.8198                 2.3813
 Frc consts  --      0.5975                 1.2150                 1.0582
 IR Inten    --     47.1275                 8.0543                11.2859

                     22                     23                     24
                      A                      A                      A
 Frequencies --    893.2302               921.6259               963.4510
 Red. masses --      1.5579                 2.6535                 1.8528
 Frc consts  --      0.7323                 1.3280                 1.0133
 IR Inten    --     12.3404                 4.1684                 9.7856

                     25                     26                     27
                      A                      A                      A
 Frequencies --    968.0540              1029.3064              1058.5248
 Red. masses --      2.4218                 2.0780                 2.3465
 Frc consts  --      1.3372                 1.2971                 1.5491
 IR Inten    --     10.6750                 2.3136                30.1588

                     28                     29                     30
                      A                      A                      A
 Frequencies --   1084.8812              1086.7118              1101.6895
 Red. masses --      1.5081                 1.6751                 2.1938
 Frc consts  --      1.0458                 1.1655                 1.5688
 IR Inten    --     15.9846                12.6369                 0.9876

                     31                     32                     33
                      A                      A                      A
 Frequencies --   1120.7835              1139.2337              1154.9112
 Red. masses --      2.1858                 1.2659                 2.7146
 Frc consts  --      1.6178                 0.9680                 2.1333
 IR Inten    --     41.6691                11.4238                13.0302

                     34                     35                     36
                      A                      A                      A
 Frequencies --   1165.5309              1199.4292              1211.6391
 Red. masses --      2.6088                 1.3896                 1.5728
 Frc consts  --      2.0881                 1.1779                 1.3604
 IR Inten    --     31.8171                 5.7180                18.5106

                     37                     38                     39
                      A                      A                      A
 Frequencies --   1235.5597              1254.6509              1281.7000
 Red. masses --      2.0614                 1.4151                 1.4075
 Frc consts  --      1.8542                 1.3124                 1.3623
 IR Inten    --     20.0380                12.3585                 9.7641

                     40                     41                     42
                      A                      A                      A
 Frequencies --   1311.5183              1336.5521              1343.8289
 Red. masses --      1.3474                 1.7932                 1.5326
 Frc consts  --      1.3655                 1.8873                 1.6307
 IR Inten    --     10.0968                 4.8404                17.8497

                     43                     44                     45
                      A                      A                      A
 Frequencies --   1369.7969              1388.8828              1398.3009
 Red. masses --      1.2950                 1.4159                 1.4319
 Frc consts  --      1.4316                 1.6092                 1.6496
 IR Inten    --     26.5039                23.8493                 4.9506

                     46                     47                     48
                      A                      A                      A
 Frequencies --   1420.4332              1431.0575              1443.9276
 Red. masses --      1.3284                 1.3816                 1.2387
 Frc consts  --      1.5791                 1.6670                 1.5216
 IR Inten    --      9.1570                23.3166                 7.0178

                     49                     50                     51
                      A                      A                      A
 Frequencies --   1463.4992              1481.5392              1498.4481
 Red. masses --      1.1491                 1.2959                 1.1884
 Frc consts  --      1.4501                 1.6759                 1.5722
 IR Inten    --      1.0406                 8.5423                14.0899

                     52                     53                     54
                      A                      A                      A
 Frequencies --   1510.1386              1514.0501              1521.3854
 Red. masses --      1.0909                 1.0812                 1.0955
 Frc consts  --      1.4658                 1.4603                 1.4940
 IR Inten    --      1.4411                11.4052                 5.5593

                     55                     56                     57
                      A                      A                      A
 Frequencies --   1533.2930              1536.2519              1541.5636
 Red. masses --      1.0655                 1.0979                 1.0520
 Frc consts  --      1.4759                 1.5267                 1.4729
 IR Inten    --     10.7329                 2.1999                 4.9445

                     58                     59                     60
                      A                      A                      A
 Frequencies --   1557.6039              1824.6840              2870.4540
 Red. masses --      1.0586                 9.8712                 1.0818
 Frc consts  --      1.5132                19.3640                 5.2517
 IR Inten    --      8.0782               164.9623                68.1394

                     61                     62                     63
                      A                      A                      A
 Frequencies --   2910.6459              2920.0325              2978.6845
 Red. masses --      1.0810                 1.0739                 1.0548
 Frc consts  --      5.3958                 5.3948                 5.5139
 IR Inten    --     42.4900               128.4238                35.8786

                     64                     65                     66
                      A                      A                      A
 Frequencies --   2985.1032              3023.3562              3053.8010
 Red. masses --      1.0573                 1.0664                 1.0612
 Frc consts  --      5.5510                 5.7430                 5.8308
 IR Inten    --     84.6628                31.3964                19.5858

                     67                     68                     69
                      A                      A                      A
 Frequencies --   3071.2170              3080.7375              3081.6599
 Red. masses --      1.0779                 1.0902                 1.0852
 Frc consts  --      5.9900                 6.0965                 6.0717
 IR Inten    --     43.6333                67.4181                14.0321

                     70                     71                     72
                      A                      A                      A
 Frequencies --   3087.9513              3098.6239              3106.9684
 Red. masses --      1.0875                 1.1038                 1.0880
 Frc consts  --      6.1100                 6.2440                 6.1879
 IR Inten    --     53.9855                25.4845                24.6646

                     73                     74                     75
                      A                      A                      A
 Frequencies --   3115.1418              3150.2192              3506.2227
 Red. masses --      1.1026                 1.0987                 1.0743
 Frc consts  --      6.3040                 6.4243                 7.7817
 IR Inten    --     35.4389                11.7260                 0.3577

 - Thermochemistry -
 -------------------
 Temperature   298.150 Kelvin.  Pressure   1.00000 Atm.
 Atom     1 has atomic number  6 and mass  12.00000

 Molecular mass:   156.12626 amu.
 Principal axes and moments of inertia in atomic units:
                           1         2         3
     Eigenvalues --  1295.415271847.781682674.69512
           X            0.99762   0.06893  -0.00130
           Y           -0.06890   0.99753   0.01394
           Z            0.00225  -0.01381   0.99990
 This molecule is an asymmetric top.
 Rotational symmetry number  1.
 Warning -- assumption of classical behavior for rotation
           may cause significant error
 Rotational temperatures (Kelvin)      0.06686     0.04687     0.03238
 Rotational constants (GHZ):           1.39318     0.97671     0.67475
 Zero-point vibrational energy     637644.9 (Joules/Mol)
                                  152.40080 (Kcal/Mol)
 Warning -- explicit consideration of  18 degrees of freedom as
           vibrations may cause significant error
 Vibrational temperatures:     72.82   126.36   167.28   218.85   286.39
          (Kelvin)            340.89   400.58   415.05   419.02   439.42
                              466.73   548.40   566.15   664.75   697.03
                              733.65   831.74   859.75  1160.17  1230.40
                             1249.54  1285.16  1326.01  1386.19  1392.81
                             1480.94  1522.98  1560.90  1563.54  1585.09
                             1612.56  1639.10  1661.66  1676.94  1725.71
                             1743.28  1777.69  1805.16  1844.08  1886.98
                             1923.00  1933.47  1970.83  1998.29  2011.84
                             2043.69  2058.97  2077.49  2105.65  2131.60
                             2155.93  2172.75  2178.38  2188.93  2206.07
                             2210.32  2217.97  2241.04  2625.31  4129.94
                             4187.77  4201.28  4285.66  4294.90  4349.94
                             4393.74  4418.80  4432.49  4433.82  4442.87
                             4458.23  4470.23  4481.99  4532.46  5044.67

 Zero-point correction=                           0.242866 (Hartree/Particle)
 Thermal correction to Energy=                    0.254311
 Thermal correction to Enthalpy=                  0.255255
 Thermal correction to Gibbs Free Energy=         0.205923
 Sum of electronic and zero-point Energies=           -498.986405
 Sum of electronic and thermal Energies=              -498.974961
 Sum of electronic and thermal Enthalpies=            -498.974017
 Sum of electronic and thermal Free Energies=         -499.023348

                     E (Thermal)             CV                S
                      KCal/Mol        Cal/Mol-Kelvin    Cal/Mol-Kelvin
 Total                  159.582             43.440            103.827
 Electronic               0.000              0.000              0.000
 Translational            0.889              2.981             41.046
 Rotational               0.889              2.981             30.238
 Vibrational            157.805             37.479             32.542
 Vibration     1          0.595              1.977              4.793
 Vibration     2          0.601              1.958              3.708
 Vibration     3          0.608              1.936              3.162
 Vibration     4          0.619              1.900              2.646
 Vibration     5          0.637              1.841              2.142
 Vibration     6          0.656              1.784              1.826
 Vibration     7          0.679              1.713              1.543
 Vibration     8          0.685              1.695              1.483
 Vibration     9          0.687              1.690              1.467
 Vibration    10          0.696              1.663              1.387
 Vibration    11          0.709              1.627              1.288
 Vibration    12          0.751              1.510              1.035
 Vibration    13          0.761              1.484              0.987
 Vibration    14          0.820              1.334              0.760
 Vibration    15          0.841              1.285              0.698
 Vibration    16          0.865              1.228              0.634
 Vibration    17          0.935              1.079              0.489
 Vibration    18          0.955              1.037              0.454

                           ! Non-Optimized Parameters !
 Normal termination of Gaussian 16 at Tue Dec  8 21:07:59 2020.

 ----------------------------------------------------------------------
 # B3LYP/6-311++G(d,p) empiricaldispersion=gd3bj scf=xqc pop=npa geom=c
 heck
 ----------------------------------------------------------------------

 ---------------------------------------
 CID_123140871_JID_1692_Energie_neutraal
 ---------------------------------------
 Structure from the checkpoint file:  "JID_1692.chk"
 Charge =  0 Multiplicity = 1

 SCF Done:  E(RB3LYP) =  -499.375441971     A.U. after   14 cycles
 Normal termination of Gaussian 16 at Tue Dec  8 21:11:25 2020.

 ----------------------------------------------------------------------
 # B3LYP/6-311++G(d,p) empiricaldispersion=gd3bj scf=xqc pop=npa geom=c
 heck
 ----------------------------------------------------------------------

 -------------------------------------
 CID_123140871_JID_1692_Energie_kation
 -------------------------------------
 Structure from the checkpoint file:  "JID_1692.chk"
 Charge =  1 Multiplicity = 2

 SCF Done:  E(UB3LYP) =  -499.077367009     A.U. after   27 cycles
 Normal termination of Gaussian 16 at Tue Dec  8 21:19:34 2020.
 Gaussian 16:  ES64L-G16RevA.03 25-Dec-2016

 ----------------------------------------------------------------------
 # B3LYP/6-311++G(d,p) empiricaldispersion=gd3bj scf=xqc pop=npa geom=c
 heck
 ----------------------------------------------------------------------

 ------------------------------------
 CID_123140871_JID_1692_Energie_anion
 ------------------------------------
 Structure from the checkpoint file:  "JID_1692.chk"
 Charge = -1 Multiplicity = 2

                         Standard orientation:
 ---------------------------------------------------------------------
 Center     Atomic      Atomic             Coordinates (Angstroms)
 Number     Number       Type             X           Y           Z
 ---------------------------------------------------------------------
      1          6           0       -2.401648   -0.812199    0.976782
      2          7           0       -1.303215   -1.221131    0.117098
      3          6           0       -1.679794   -1.244532   -1.292134
      4          6           0       -0.022326   -0.589710    0.398984
      5          6           0        0.208193    0.823219   -0.210486
      6          6           0        1.632147    1.318194    0.135082
      7          6           0        2.686987    0.298465   -0.304608
      8          6           0        2.371469   -1.073698    0.288722
      9          7           0        1.023868   -1.474259   -0.107229
     10          6           0       -0.792048    1.827805    0.303131
     11          8           0       -1.526471    2.495618   -0.393085
     12          1           0       -3.230992   -1.518423    0.853784
     13          1           0       -2.795127    0.196558    0.761030
     14          1           0       -2.085138   -0.842504    2.024940
     15          1           0       -2.057402   -0.274327   -1.658931
     16          1           0       -0.811301   -1.535798   -1.886842
     17          1           0       -2.469377   -1.990294   -1.438474
     18          1           0        0.031008   -0.483295    1.501008
     19          1           0        0.099035    0.762985   -1.297070
     20          1           0        1.809889    2.292117   -0.335640
     21          1           0        1.706053    1.472356    1.221985
     22          1           0        2.690075    0.219859   -1.398306
     23          1           0        3.684923    0.625827    0.009886
     24          1           0        3.077951   -1.824507   -0.081058
     25          1           0        2.491275   -1.023267    1.389842
     26          1           0        0.806194   -2.411571    0.224329
     27          1           0       -0.797736    1.951805    1.412272
 ---------------------------------------------------------------------

 SCF Done:  E(UB3LYP) =  -499.360709513     A.U. after   33 cycles
 SCF Done:  E(UB3LYP) =  -499.360709513     a.u. after    1 cycles

 The electronic state is 2-A.
 Alpha  occ. eigenvalues --  -18.99829 -14.20049 -14.18773 -10.13045 -10.12039
 Alpha  occ. eigenvalues --  -10.08158 -10.08075 -10.07894 -10.06993 -10.06741
 Alpha  occ. eigenvalues --  -10.05944  -0.92936  -0.84140  -0.78210  -0.69378
 Alpha  occ. eigenvalues --   -0.65078  -0.60268  -0.56272  -0.54188  -0.48900
 Alpha  occ. eigenvalues --   -0.46671  -0.45496  -0.40466  -0.37614  -0.36555
 Alpha  occ. eigenvalues --   -0.35700  -0.34409  -0.32782  -0.32419  -0.30986
 Alpha  occ. eigenvalues --   -0.30393  -0.30065  -0.28463  -0.27654  -0.26352
 Alpha  occ. eigenvalues --   -0.26271  -0.24483  -0.23269  -0.22632  -0.22327
 Alpha  occ. eigenvalues --   -0.14098  -0.12348  -0.11119   0.04937
 Alpha virt. eigenvalues --    0.06876   0.07170   0.08066   0.08678   0.09785
 Alpha virt. eigenvalues --    0.09975   0.10728   0.11202   0.11707   0.12449
 Alpha virt. eigenvalues --    0.13022   0.13351   0.14119   0.14347   0.15647

  Beta  occ. eigenvalues --  -18.99648 -14.20046 -14.18755 -10.12858 -10.12007
  Beta  occ. eigenvalues --  -10.08124 -10.08039 -10.07885 -10.06977 -10.06757
  Beta  occ. eigenvalues --  -10.05918  -0.92586  -0.84113  -0.78178  -0.69301
  Beta  occ. eigenvalues --   -0.65003  -0.60230  -0.56160  -0.54084  -0.48774
  Beta  occ. eigenvalues --   -0.46411  -0.45419  -0.40391  -0.37554  -0.36508
  Beta  occ. eigenvalues --   -0.35582  -0.34257  -0.32722  -0.32344  -0.30807
  Beta  occ. eigenvalues --   -0.30352  -0.29939  -0.28363  -0.27440  -0.26247
  Beta  occ. eigenvalues --   -0.25839  -0.24383  -0.23231  -0.22479  -0.22245
  Beta  occ. eigenvalues --   -0.13951  -0.12294  -0.11086
  Beta virt. eigenvalues --    0.07407   0.08200   0.08514   0.08694   0.09206
  Beta virt. eigenvalues --    0.10254   0.10538   0.11098   0.11550   0.12030
  Beta virt. eigenvalues --    0.12888   0.13291   0.13746   0.14350   0.14437

 Mulliken charges and spin densities:
               1          2
     1  C    0.433300  -0.684415
     2  N    0.012315   0.154593
     3  C   -0.064506  -0.280859
     4  C   -0.306283  -0.738144
     5  C    0.123061   0.416511
     6  C   -0.148561  -0.226274
     7  C   -0.251210  -0.056161
     8  C    1.385910  -1.740671
     9  N   -0.375725   0.255749
    10  C    0.027071  -0.275685
    11  O   -0.229968   0.054042
    12  H   -0.340561   0.490667
    13  H    0.146752  -0.005069
    14  H   -0.351207   0.471297
    15  H    0.159928  -0.024034
    16  H    0.137808   0.030129
    17  H   -0.105764   0.239577
    18  H   -0.068638   0.268242
    19  H    0.137422   0.077866
    20  H    0.100176   0.058738
    21  H    0.021078   0.119480
    22  H    0.267691  -0.143649
    23  H   -0.768842   0.949763
    24  H   -0.817147   0.994006
    25  H   -0.207878   0.320502
    26  H    0.056316   0.209703
    27  H    0.027464   0.064094
 Sum of Mulliken charges =  -1.00000   1.00000

 Dipole moment (field-independent basis, Debye):
    X=             -2.8757    Y=              1.9611    Z=             -2.5181  Tot=              4.2961
 Quadrupole moment (field-independent basis, Debye-Ang):
   XX=           -136.9777   YY=           -110.2916   ZZ=            -97.3091
   XY=              6.8624   XZ=             -2.8782   YZ=              5.0411

 Summary of Natural Population Analysis:

                                       Natural Population
                Natural  -----------------------------------------------
    Atom  No    Charge         Core      Valence    Rydberg      Total
 -----------------------------------------------------------------------
      C    1   -0.17618      0.99963     2.16825    0.00830     3.17618
      N    2   -0.28555      0.99971     2.76999    0.01584     3.78555
      C    3   -0.18324      0.99964     2.17562    0.00798     3.18324
      C    4    0.10153      0.99955     1.88136    0.01755     2.89847
      C    5   -0.17265      0.99954     2.16159    0.01152     3.17265
      C    6   -0.18348      0.99961     2.17508    0.00878     3.18348
      C    7   -0.19210      0.99962     2.18282    0.00965     3.19210
      C    8   -0.08602      0.99962     2.07434    0.01205     3.08602
      N    9   -0.34627      0.99971     2.83447    0.01209     3.84627
      C   10    0.25279      0.99969     1.72704    0.02048     2.74721
      O   11   -0.26862      0.99988     3.26214    0.00660     4.26862
      H   12    0.09477      0.00000     0.40380    0.00144     0.40523
      H   13    0.08465      0.00000     0.41414    0.00121     0.41535
      H   14    0.09761      0.00000     0.40118    0.00121     0.40239
      H   15    0.08447      0.00000     0.41451    0.00102     0.41553
      H   16    0.10422      0.00000     0.39459    0.00118     0.39578
      H   17    0.09229      0.00000     0.40685    0.00086     0.40771
      H   18    0.08231      0.00000     0.41506    0.00263     0.41769
      H   19    0.10657      0.00000     0.39160    0.00182     0.39343
      H   20    0.09934      0.00000     0.39968    0.00097     0.40066
      H   21    0.09584      0.00000     0.40258    0.00158     0.40416
      H   22    0.09506      0.00000     0.40363    0.00131     0.40494
      H   23    0.10349      0.00000     0.39435    0.00216     0.39651
      H   24    0.09833      0.00000     0.39957    0.00209     0.40167
      H   25    0.07922      0.00000     0.41782    0.00296     0.42078
      H   26    0.17964      0.00000     0.31694    0.00342     0.32036
      H   27    0.04196      0.00000     0.45589    0.00216     0.45804
 =======================================================================
   * Total *   -0.00000     10.99621    31.84490    0.15889    43.00000

 Normal termination of Gaussian 16 at Tue Dec  8 21:29:59 2020.
