 Gaussian 16, Revision A.03,

 -----------------------------------------------------------
 # opt freq B3LYP/6-31G(d) empiricaldispersion=gd3bj scf=xqc
 -----------------------------------------------------------

 ------------------------------
 CID_76208153_JID_7659_neutraal
 ------------------------------
 Symbolic Z-matrix:
 Charge =  0 Multiplicity = 1

 SCF Done:  E(RB3LYP) =  -782.242902383     A.U. after   15 cycles
 SCF Done:  E(RB3LYP) =  -782.242904317     A.U. after   13 cycles
 SCF Done:  E(RB3LYP) =  -782.249893125     A.U. after   13 cycles
 SCF Done:  E(RB3LYP) =  -782.247389895     A.U. after   13 cycles
 SCF Done:  E(RB3LYP) =  -782.249801204     A.U. after   13 cycles
 SCF Done:  E(RB3LYP) =  -782.250602285     A.U. after   10 cycles
 SCF Done:  E(RB3LYP) =  -782.251159280     A.U. after   12 cycles
 SCF Done:  E(RB3LYP) =  -782.251277779     A.U. after   12 cycles
 SCF Done:  E(RB3LYP) =  -782.251336154     A.U. after   12 cycles
 SCF Done:  E(RB3LYP) =  -782.251554044     A.U. after   11 cycles
 SCF Done:  E(RB3LYP) =  -782.251664549     A.U. after    8 cycles
 SCF Done:  E(RB3LYP) =  -782.251666161     A.U. after    9 cycles
 SCF Done:  E(RB3LYP) =  -782.251666569     A.U. after    8 cycles
 SCF Done:  E(RB3LYP) =  -782.251666841     A.U. after    8 cycles
 SCF Done:  E(RB3LYP) =  -782.251666841     A.U. after    7 cycles
 Optimization completed.
    -- Stationary point found.
 Normal termination of Gaussian 16 at Fri Dec 11 13:20:10 2020.

 --------------------------------------------------------------------
 #N Geom=AllCheck Guess=TCheck SCRF=Check GenChk RB3LYP/6-31G(d) Freq
 --------------------------------------------------------------------

 Structure from the checkpoint file:  "JID_7659.chk"
 ------------------------------
 CID_76208153_JID_7659_neutraal
 ------------------------------
 Charge =  0 Multiplicity = 1

 SCF Done:  E(RB3LYP) =  -782.251666841     A.U. after    1 cycles

  Exact polarizability: 158.283 -10.138 159.362  26.685  -1.855 115.455
 Approx polarizability: 234.415 -29.090 266.694  52.511  -3.536 179.216

                      1                      2                      3
                      A                      A                      A
 Frequencies --     40.2551                47.2503                56.3099
 Red. masses --      3.3076                 1.1463                 4.4885
 Frc consts  --      0.0032                 0.0015                 0.0084
 IR Inten    --      0.4650                 0.0751                 1.3572

                      4                      5                      6
                      A                      A                      A
 Frequencies --     64.4914                76.0375                95.5144
 Red. masses --      4.5345                 4.4722                 5.8092
 Frc consts  --      0.0111                 0.0152                 0.0312
 IR Inten    --      1.8530                 0.3337                 1.3978

                      7                      8                      9
                      A                      A                      A
 Frequencies --    116.2283               153.6029               174.4457
 Red. masses --      4.8338                 2.9612                 1.2069
 Frc consts  --      0.0385                 0.0412                 0.0216
 IR Inten    --      0.9385                 1.6060                 0.8797

                     10                     11                     12
                      A                      A                      A
 Frequencies --    202.0027               225.4117               251.0564
 Red. masses --      2.8132                 4.7900                 4.2471
 Frc consts  --      0.0676                 0.1434                 0.1577
 IR Inten    --      3.0203                 0.4778                 3.7314

                     13                     14                     15
                      A                      A                      A
 Frequencies --    271.5995               296.4039               303.6922
 Red. masses --      2.8573                 2.2711                 2.9129
 Frc consts  --      0.1242                 0.1176                 0.1583
 IR Inten    --     15.1561                15.5129                19.6027

                     16                     17                     18
                      A                      A                      A
 Frequencies --    318.7279               334.6182               351.8173
 Red. masses --      2.8962                 1.8610                 1.7137
 Frc consts  --      0.1733                 0.1228                 0.1250
 IR Inten    --     13.3960                60.0205                39.2731

                     19                     20                     21
                      A                      A                      A
 Frequencies --    375.4512               438.7426               451.9694
 Red. masses --      1.6055                 2.8288                 2.5429
 Frc consts  --      0.1333                 0.3208                 0.3061
 IR Inten    --     48.7300                 1.5256                 3.8657

                     22                     23                     24
                      A                      A                      A
 Frequencies --    463.7947               469.0888               493.3758
 Red. masses --      3.8712                 2.8870                 3.1166
 Frc consts  --      0.4906                 0.3743                 0.4470
 IR Inten    --      4.3476                 1.9965                17.9050

                     25                     26                     27
                      A                      A                      A
 Frequencies --    525.3322               534.5856               558.3490
 Red. masses --      2.6422                 3.4712                 3.2564
 Frc consts  --      0.4296                 0.5845                 0.5981
 IR Inten    --     14.0144                13.9161                 1.6345

                     28                     29                     30
                      A                      A                      A
 Frequencies --    578.7785               605.8132               660.0865
 Red. masses --      5.9717                 1.5741                 3.8984
 Frc consts  --      1.1786                 0.3404                 1.0008
 IR Inten    --     23.1956                56.5720                11.5880

                     31                     32                     33
                      A                      A                      A
 Frequencies --    714.2659               728.2329               739.6402
 Red. masses --      4.9609                 4.2079                 4.0668
 Frc consts  --      1.4912                 1.3148                 1.3108
 IR Inten    --     12.4351                 0.9565                 3.9940

                     34                     35                     36
                      A                      A                      A
 Frequencies --    803.6894               807.6005               828.4839
 Red. masses --      2.0157                 2.4912                 1.3593
 Frc consts  --      0.7671                 0.9573                 0.5497
 IR Inten    --    179.3930                94.5203                19.1964

                     37                     38                     39
                      A                      A                      A
 Frequencies --    838.1080               860.0267               933.8847
 Red. masses --      3.4855                 3.2684                 1.4505
 Frc consts  --      1.4425                 1.4243                 0.7453
 IR Inten    --     11.3111                14.0534                 8.0753

                     40                     41                     42
                      A                      A                      A
 Frequencies --    942.2817               957.0066               960.8120
 Red. masses --      2.0407                 2.3354                 1.5009
 Frc consts  --      1.0675                 1.2602                 0.8163
 IR Inten    --      6.9699                10.4184                10.3847

                     43                     44                     45
                      A                      A                      A
 Frequencies --    962.3271              1002.2385              1029.7988
 Red. masses --      3.9957                 2.0021                 1.7457
 Frc consts  --      2.1802                 1.1849                 1.0907
 IR Inten    --     82.2469                15.6548                 4.7630

                     46                     47                     48
                      A                      A                      A
 Frequencies --   1045.3574              1074.9962              1083.2676
 Red. masses --      1.3869                 1.5086                 1.4895
 Frc consts  --      0.8929                 1.0271                 1.0298
 IR Inten    --      0.7030                 6.0328                11.3371

                     49                     50                     51
                      A                      A                      A
 Frequencies --   1128.0809              1151.3308              1178.7048
 Red. masses --      2.2186                 2.5311                 1.5059
 Frc consts  --      1.6635                 1.9768                 1.2327
 IR Inten    --      7.1405                 7.9724                46.0886

                     52                     53                     54
                      A                      A                      A
 Frequencies --   1195.6021              1198.4813              1250.9094
 Red. masses --      1.4678                 1.2786                 2.0082
 Frc consts  --      1.2362                 1.0821                 1.8514
 IR Inten    --     13.6287                23.6748                 2.7752

                     55                     56                     57
                      A                      A                      A
 Frequencies --   1272.5117              1288.4189              1309.8680
 Red. masses --      4.0641                 1.3111                 1.6497
 Frc consts  --      3.8774                 1.2823                 1.6677
 IR Inten    --      0.8495                15.8604                 2.7589

                     58                     59                     60
                      A                      A                      A
 Frequencies --   1335.1733              1343.4832              1358.4566
 Red. masses --      1.3939                 1.5251                 3.1453
 Frc consts  --      1.4641                 1.6219                 3.4199
 IR Inten    --      9.2031                42.8009                28.3650

                     61                     62                     63
                      A                      A                      A
 Frequencies --   1380.2827              1400.6650              1443.3526
 Red. masses --      1.8403                 1.9090                 1.2689
 Frc consts  --      2.0658                 2.2066                 1.5574
 IR Inten    --    104.7611                33.6133                 0.3453

                     64                     65                     66
                      A                      A                      A
 Frequencies --   1446.5399              1452.4219              1456.7680
 Red. masses --      1.7325                 2.0336                 1.6398
 Frc consts  --      2.1359                 2.5276                 2.0504
 IR Inten    --      0.2918                 4.3133                 2.6456

                     67                     68                     69
                      A                      A                      A
 Frequencies --   1488.2202              1498.5884              1516.7853
 Red. masses --      1.1665                 1.7406                 1.0836
 Frc consts  --      1.5222                 2.3031                 1.4688
 IR Inten    --      1.9143                65.2493                 9.5919

                     70                     71                     72
                      A                      A                      A
 Frequencies --   1517.3104              1521.2341              1529.3423
 Red. masses --      1.0529                 1.0843                 1.0804
 Frc consts  --      1.4282                 1.4784                 1.4888
 IR Inten    --     13.4855                 3.6813                 8.8582

                     73                     74                     75
                      A                      A                      A
 Frequencies --   1536.7056              1558.6776              1631.1162
 Red. masses --      1.1115                 2.6464                 5.5370
 Frc consts  --      1.5465                 3.7881                 8.6795
 IR Inten    --     12.1325                26.5011                 5.3707

                     76                     77                     78
                      A                      A                      A
 Frequencies --   1662.5905              1674.5881              1737.2077
 Red. masses --      1.2098                 5.7136                 5.7987
 Frc consts  --      1.9703                 9.4401                10.3105
 IR Inten    --     38.2838                 4.4301                65.4071

                     79                     80                     81
                      A                      A                      A
 Frequencies --   1786.0846              3043.3602              3051.2099
 Red. masses --      7.8270                 1.0392                 1.0368
 Frc consts  --     14.7112                 5.6710                 5.6873
 IR Inten    --    358.5381                33.4740                20.7472

                     82                     83                     84
                      A                      A                      A
 Frequencies --   3082.5335              3091.2374              3098.2162
 Red. masses --      1.0701                 1.0611                 1.0979
 Frc consts  --      5.9908                 5.9743                 6.2091
 IR Inten    --      8.1160                 9.8401                18.6071

                     85                     86                     87
                      A                      A                      A
 Frequencies --   3110.7636              3123.8648              3127.3820
 Red. masses --      1.1015                 1.1010                 1.1020
 Frc consts  --      6.2800                 6.3300                 6.3506
 IR Inten    --      8.5213                17.6405                14.9177

                     88                     89                     90
                      A                      A                      A
 Frequencies --   3138.5133              3149.4397              3174.5566
 Red. masses --      1.1021                 1.0932                 1.0869
 Frc consts  --      6.3963                 6.3889                 6.4535
 IR Inten    --      8.3783                 4.6342                11.0882

                     91                     92                     93
                      A                      A                      A
 Frequencies --   3182.2288              3192.9590              3529.3776
 Red. masses --      1.0901                 1.0944                 1.0477
 Frc consts  --      6.5038                 6.5738                 7.6891
 IR Inten    --      3.7629                23.4931                27.1774

                     94                     95                     96
                      A                      A                      A
 Frequencies --   3603.0145              3624.7911              3779.4377
 Red. masses --      1.0762                 1.0964                 1.0679
 Frc consts  --      8.2315                 8.4873                 8.9871
 IR Inten    --     30.4759                24.2602                67.9673

 - Thermochemistry -
 -------------------
 Temperature   298.150 Kelvin.  Pressure   1.00000 Atm.
 Atom     1 has atomic number  6 and mass  12.00000

 Molecular mass:   235.13208 amu.
 Principal axes and moments of inertia in atomic units:
                           1         2         3
     Eigenvalues --  3182.068974191.688955321.98234
           X            0.99932   0.01004   0.03559
           Y           -0.00929   0.99973  -0.02127
           Z           -0.03579   0.02092   0.99914
 This molecule is an asymmetric top.
 Rotational symmetry number  1.
 Warning -- assumption of classical behavior for rotation
           may cause significant error
 Rotational temperatures (Kelvin)      0.02722     0.02066     0.01627
 Rotational constants (GHZ):           0.56716     0.43055     0.33911
 Zero-point vibrational energy     748857.7 (Joules/Mol)
                                  178.98130 (Kcal/Mol)
 Warning -- explicit consideration of  29 degrees of freedom as
           vibrations may cause significant error
 Vibrational temperatures:     57.92    67.98    81.02    92.79   109.40
          (Kelvin)            137.42   167.23   221.00   250.99   290.64
                              324.32   361.21   390.77   426.46   436.95
                              458.58   481.44   506.19   540.19   631.25
                              650.28   667.30   674.91   709.86   755.84
                              769.15   803.34   832.73   871.63   949.72
                             1027.67  1047.76  1064.18  1156.33  1161.96
                             1192.00  1205.85  1237.39  1343.65  1355.73
                             1376.92  1382.39  1384.57  1442.00  1481.65
                             1504.04  1546.68  1558.58  1623.06  1656.51
                             1695.89  1720.20  1724.35  1799.78  1830.86
                             1853.75  1884.61  1921.02  1932.97  1954.52
                             1985.92  2015.24  2076.66  2081.25  2089.71
                             2095.96  2141.22  2156.13  2182.32  2183.07
                             2188.72  2200.38  2210.98  2242.59  2346.81
                             2392.10  2409.36  2499.45  2569.78  4378.72
                             4390.01  4435.08  4447.60  4457.64  4475.69
                             4494.54  4499.61  4515.62  4531.34  4567.48
                             4578.52  4593.96  5077.99  5183.93  5215.27
                             5437.77

 Zero-point correction=                           0.285225 (Hartree/Particle)
 Thermal correction to Energy=                    0.302789
 Thermal correction to Enthalpy=                  0.303733
 Thermal correction to Gibbs Free Energy=         0.239711
 Sum of electronic and zero-point Energies=           -781.966442
 Sum of electronic and thermal Energies=              -781.948878
 Sum of electronic and thermal Enthalpies=            -781.947934
 Sum of electronic and thermal Free Energies=         -782.011956

                     E (Thermal)             CV                S
                      KCal/Mol        Cal/Mol-Kelvin    Cal/Mol-Kelvin
 Total                  190.003             66.105            134.747
 Electronic               0.000              0.000              0.000
 Translational            0.889              2.981             42.267
 Rotational               0.889              2.981             32.629
 Vibrational            188.226             60.144             59.851
 Vibration     1          0.594              1.981              5.246
 Vibration     2          0.595              1.979              4.929
 Vibration     3          0.596              1.975              4.582
 Vibration     4          0.597              1.971              4.315
 Vibration     5          0.599              1.965              3.991
 Vibration     6          0.603              1.952              3.544
 Vibration     7          0.608              1.936              3.162
 Vibration     8          0.619              1.899              2.627
 Vibration     9          0.627              1.874              2.387
 Vibration    10          0.639              1.837              2.115
 Vibration    11          0.650              1.802              1.915
 Vibration    12          0.663              1.761              1.723
 Vibration    13          0.675              1.726              1.586
 Vibration    14          0.690              1.680              1.437
 Vibration    15          0.695              1.667              1.396
 Vibration    16          0.705              1.638              1.317
 Vibration    17          0.716              1.606              1.238
 Vibration    18          0.728              1.572              1.158
 Vibration    19          0.746              1.522              1.057
 Vibration    20          0.799              1.386              0.831
 Vibration    21          0.811              1.357              0.790
 Vibration    22          0.821              1.330              0.755
 Vibration    23          0.826              1.319              0.740
 Vibration    24          0.849              1.265              0.675
 Vibration    25          0.880              1.194              0.598
 Vibration    26          0.890              1.174              0.577
 Vibration    27          0.914              1.121              0.527
 Vibration    28          0.935              1.077              0.488
 Vibration    29          0.964              1.019              0.440

                           ! Non-Optimized Parameters !
 Normal termination of Gaussian 16 at Fri Dec 11 13:34:30 2020.

 ----------------------------------------------------------------------
 # B3LYP/6-311++G(d,p) empiricaldispersion=gd3bj scf=xqc pop=npa geom=c
 heck
 ----------------------------------------------------------------------

 --------------------------------------
 CID_76208153_JID_7659_Energie_neutraal
 --------------------------------------
 Structure from the checkpoint file:  "JID_7659.chk"
 Charge =  0 Multiplicity = 1

 SCF Done:  E(RB3LYP) =  -782.486426448     A.U. after   16 cycles
 Normal termination of Gaussian 16 at Fri Dec 11 13:40:35 2020.

 ----------------------------------------------------------------------
 # B3LYP/6-311++G(d,p) empiricaldispersion=gd3bj scf=xqc pop=npa geom=c
 heck
 ----------------------------------------------------------------------

 ------------------------------------
 CID_76208153_JID_7659_Energie_kation
 ------------------------------------
 Structure from the checkpoint file:  "JID_7659.chk"
 Charge =  1 Multiplicity = 2

 SCF Done:  E(UB3LYP) =  -782.192604837     A.U. after   29 cycles
 Normal termination of Gaussian 16 at Fri Dec 11 13:55:15 2020.
 Gaussian 16:  ES64L-G16RevA.03 25-Dec-2016

 ----------------------------------------------------------------------
 # B3LYP/6-311++G(d,p) empiricaldispersion=gd3bj scf=xqc pop=npa geom=c
 heck
 ----------------------------------------------------------------------

 -----------------------------------
 CID_76208153_JID_7659_Energie_anion
 -----------------------------------
 Structure from the checkpoint file:  "JID_7659.chk"
 Charge = -1 Multiplicity = 2

                         Standard orientation:
 ---------------------------------------------------------------------
 Center     Atomic      Atomic             Coordinates (Angstroms)
 Number     Number       Type             X           Y           Z
 ---------------------------------------------------------------------
      1          6           0       -3.874229   -0.095120   -1.232239
      2          6           0       -2.674273   -0.447220   -0.387602
      3          6           0       -1.896113    0.545928    0.209818
      4          6           0       -0.787770    0.243691    1.015247
      5          6           0       -0.453698   -1.098224    1.267267
      6          6           0       -1.233735   -2.091622    0.659128
      7          6           0       -2.312817   -1.781267   -0.161442
      8          6           0        0.707937   -1.502242    2.144724
      9          6           0        0.038476    1.406641    1.546277
     10          6           0        0.363529    2.375527    0.410307
     11          8           0       -0.258013    3.418875    0.252962
     12          7           0        1.330123    1.991301   -0.486250
     13          6           0        2.192988    0.828069   -0.440312
     14          6           0        1.667395   -0.401858   -1.164112
     15          7           0        2.214810   -1.561823   -1.064705
     16          8           0        3.371076   -1.477770   -0.218702
     17          7           0        0.605035   -0.229814   -2.033669
     18          1           0       -4.805657   -0.203627   -0.661503
     19          1           0       -3.825243    0.940012   -1.584230
     20          1           0       -3.954690   -0.749811   -2.107206
     21          1           0       -2.141901    1.591700    0.039775
     22          1           0       -0.976546   -3.133853    0.830018
     23          1           0       -2.889348   -2.581487   -0.619704
     24          1           0        1.672727   -1.367568    1.641340
     25          1           0        0.732778   -0.935714    3.081962
     26          1           0        0.631765   -2.562235    2.405457
     27          1           0       -0.530141    1.988073    2.277456
     28          1           0        0.946067    1.051023    2.038200
     29          1           0        1.442693    2.638862   -1.256084
     30          1           0        3.162339    1.091440   -0.876946
     31          1           0        2.407651    0.555138    0.593684
     32          1           0        3.650684   -2.404404   -0.190562
     33          1           0       -0.117084    0.379211   -1.662552
     34          1           0        0.213490   -1.117066   -2.333177
 ---------------------------------------------------------------------

 SCF Done:  E(UB3LYP) =  -782.474119217     A.U. after   33 cycles
 SCF Done:  E(UB3LYP) =  -782.474119217     a.u. after    1 cycles

 The electronic state is 2-A.
 Alpha  occ. eigenvalues --  -19.05793 -19.00185 -14.25384 -14.24261 -14.22736
 Alpha  occ. eigenvalues --  -10.18857 -10.14553 -10.13136 -10.09304 -10.09101
 Alpha  occ. eigenvalues --  -10.08893 -10.08741 -10.07847 -10.07480 -10.07422
 Alpha  occ. eigenvalues --  -10.07396 -10.06714  -0.97109  -0.95365  -0.85645
 Alpha  occ. eigenvalues --   -0.82667  -0.77224  -0.72862  -0.70415  -0.68197
 Alpha  occ. eigenvalues --   -0.63903  -0.62782  -0.61650  -0.56254  -0.51718
 Alpha  occ. eigenvalues --   -0.49826  -0.48721  -0.47355  -0.44908  -0.42785
 Alpha  occ. eigenvalues --   -0.40893  -0.39748  -0.37981  -0.37377  -0.36395
 Alpha  occ. eigenvalues --   -0.35640  -0.34463  -0.34226  -0.33854  -0.32976
 Alpha  occ. eigenvalues --   -0.32578  -0.31550  -0.30844  -0.30648  -0.30006
 Alpha  occ. eigenvalues --   -0.29030  -0.28409  -0.28051  -0.25654  -0.24682
 Alpha  occ. eigenvalues --   -0.24221  -0.22983  -0.20245  -0.17464  -0.16656
 Alpha  occ. eigenvalues --   -0.15561  -0.14484  -0.12682   0.04243
 Alpha virt. eigenvalues --    0.06031   0.06550   0.06692   0.07312   0.07855
 Alpha virt. eigenvalues --    0.07950   0.09081   0.09276   0.09677   0.10249
 Alpha virt. eigenvalues --    0.10846   0.10950   0.11285   0.11653   0.11890

  Beta  occ. eigenvalues --  -19.05762 -19.00181 -14.25373 -14.24241 -14.22730
  Beta  occ. eigenvalues --  -10.18848 -10.14549 -10.13100 -10.09295 -10.09060
  Beta  occ. eigenvalues --  -10.08900 -10.08747 -10.07825 -10.07452 -10.07401
  Beta  occ. eigenvalues --  -10.07353 -10.06687  -0.97051  -0.95353  -0.85619
  Beta  occ. eigenvalues --   -0.82644  -0.77173  -0.72809  -0.70369  -0.68150
  Beta  occ. eigenvalues --   -0.63843  -0.62738  -0.61592  -0.56189  -0.51644
  Beta  occ. eigenvalues --   -0.49786  -0.48682  -0.47300  -0.44869  -0.42734
  Beta  occ. eigenvalues --   -0.40859  -0.39699  -0.37941  -0.37339  -0.36356
  Beta  occ. eigenvalues --   -0.35587  -0.34428  -0.34189  -0.33803  -0.32943
  Beta  occ. eigenvalues --   -0.32540  -0.31518  -0.30811  -0.30618  -0.29971
  Beta  occ. eigenvalues --   -0.28994  -0.28371  -0.28012  -0.25572  -0.24642
  Beta  occ. eigenvalues --   -0.24185  -0.22935  -0.20196  -0.17427  -0.16605
  Beta  occ. eigenvalues --   -0.15420  -0.14366  -0.12644
  Beta virt. eigenvalues --    0.06350   0.06834   0.07077   0.07322   0.07628
  Beta virt. eigenvalues --    0.08191   0.08481   0.09445   0.09654   0.09994
  Beta virt. eigenvalues --    0.10443   0.10984   0.11270   0.11519   0.11920

 Mulliken charges and spin densities:
               1          2
     1  C    0.726577  -1.262976
     2  C    0.472768  -0.139269
     3  C   -0.620857  -0.035802
     4  C   -0.670749   1.325188
     5  C   -1.382096   1.968491
     6  C    0.080744  -0.528404
     7  C   -0.025407  -0.344103
     8  C    1.413613  -2.113127
     9  C    0.685988  -1.228749
    10  C   -0.270847   0.145848
    11  O   -0.303722   0.016045
    12  N   -0.333849   0.053617
    13  C    0.769890  -1.202236
    14  C   -0.041044  -0.046874
    15  N   -0.281012   0.097620
    16  O   -0.136579  -0.013599
    17  N   -0.242120   0.006342
    18  H    0.045049   0.115127
    19  H    0.006574   0.135707
    20  H   -0.176161   0.330000
    21  H    0.165870   0.048504
    22  H   -0.252948   0.422493
    23  H   -0.488068   0.658411
    24  H    0.200693  -0.057459
    25  H   -0.162265   0.314042
    26  H   -0.428380   0.582753
    27  H    0.003461   0.230486
    28  H    0.149975  -0.043325
    29  H    0.148284   0.178832
    30  H   -0.442797   0.680607
    31  H    0.022388   0.229531
    32  H   -0.082786   0.355660
    33  H    0.436335  -0.120606
    34  H    0.013478   0.241224
 Sum of Mulliken charges =  -1.00000   1.00000

 Dipole moment (field-independent basis, Debye):
    X=             -1.6049    Y=              2.3900    Z=              0.0391  Tot=              2.8792
 Quadrupole moment (field-independent basis, Debye-Ang):
   XX=           -162.1379   YY=           -160.2579   ZZ=           -140.7411
   XY=              1.6825   XZ=             -1.7799   YZ=             -0.0809

 Summary of Natural Population Analysis:

                                       Natural Population
                Natural  -----------------------------------------------
    Atom  No    Charge         Core      Valence    Rydberg      Total
 -----------------------------------------------------------------------
      C    1   -0.29315      0.99963     2.28765    0.00586     3.29315
      C    2   -0.02029      0.99951     2.01155    0.00923     3.02029
      C    3   -0.10947      0.99947     2.10122    0.00879     3.10947
      C    4   -0.01350      0.99946     2.00295    0.01110     3.01350
      C    5   -0.01741      0.99946     2.00691    0.01104     3.01741
      C    6   -0.08582      0.99951     2.07622    0.01009     3.08582
      C    7   -0.09532      0.99951     2.08574    0.01008     3.09532
      C    8   -0.29949      0.99963     2.29332    0.00655     3.29949
      C    9   -0.24250      0.99955     2.23449    0.00845     3.24250
      C   10    0.35002      0.99966     1.62614    0.02417     2.64998
      O   11   -0.32395      0.99987     3.31858    0.00549     4.32395
      N   12   -0.32079      0.99966     2.81118    0.00995     3.82079
      C   13   -0.12253      0.99956     2.11120    0.01177     3.12253
      C   14    0.19664      0.99963     1.78544    0.01829     2.80336
      N   15   -0.12901      0.99959     2.61578    0.01364     3.62901
      O   16   -0.29820      0.99991     3.29187    0.00642     4.29820
      N   17   -0.39704      0.99970     2.88917    0.00817     3.89704
      H   18    0.10317      0.00000     0.39603    0.00080     0.39683
      H   19    0.10147      0.00000     0.39776    0.00078     0.39853
      H   20    0.10498      0.00000     0.39384    0.00118     0.39502
      H   21    0.10651      0.00000     0.39201    0.00148     0.39349
      H   22    0.10025      0.00000     0.39811    0.00164     0.39975
      H   23    0.10016      0.00000     0.39865    0.00119     0.39984
      H   24    0.11315      0.00000     0.38478    0.00207     0.38685
      H   25    0.10044      0.00000     0.39856    0.00099     0.39956
      H   26    0.10548      0.00000     0.39323    0.00130     0.39452
      H   27    0.11845      0.00000     0.38044    0.00112     0.38155
      H   28    0.11183      0.00000     0.38670    0.00147     0.38817
      H   29    0.19762      0.00000     0.30035    0.00203     0.30238
      H   30    0.11805      0.00000     0.38013    0.00182     0.38195
      H   31    0.11649      0.00000     0.38163    0.00188     0.38351
      H   32    0.23741      0.00000     0.25682    0.00576     0.26259
      H   33    0.19368      0.00000     0.30348    0.00284     0.30632
      H   34    0.19265      0.00000     0.30510    0.00225     0.30735
 =======================================================================
   * Total *   -0.00000     16.99330    45.79701    0.20969    63.00000

 Normal termination of Gaussian 16 at Fri Dec 11 14:12:13 2020.
