 Gaussian 16, Revision A.03,

 -----------------------------------------------------------
 # opt freq B3LYP/6-31G(d) empiricaldispersion=gd3bj scf=xqc
 -----------------------------------------------------------

 -------------------------------
 CID_115634295_JID_1690_neutraal
 -------------------------------
 Symbolic Z-matrix:
 Charge =  0 Multiplicity = 1

 SCF Done:  E(RB3LYP) =  -519.085350960     A.U. after   14 cycles
 SCF Done:  E(RB3LYP) =  -519.087837712     A.U. after   13 cycles
 SCF Done:  E(RB3LYP) =  -519.087149314     A.U. after   12 cycles
 SCF Done:  E(RB3LYP) =  -519.088282323     A.U. after   12 cycles
 SCF Done:  E(RB3LYP) =  -519.089086397     A.U. after   12 cycles
 SCF Done:  E(RB3LYP) =  -519.089323240     A.U. after   11 cycles
 SCF Done:  E(RB3LYP) =  -519.089438585     A.U. after   11 cycles
 SCF Done:  E(RB3LYP) =  -519.089514002     A.U. after   10 cycles
 SCF Done:  E(RB3LYP) =  -519.089611043     A.U. after   12 cycles
 SCF Done:  E(RB3LYP) =  -519.089702332     A.U. after   12 cycles
 SCF Done:  E(RB3LYP) =  -519.089917198     A.U. after    9 cycles
 SCF Done:  E(RB3LYP) =  -519.089921487     A.U. after    9 cycles
 SCF Done:  E(RB3LYP) =  -519.089922410     A.U. after    8 cycles
 SCF Done:  E(RB3LYP) =  -519.089922958     A.U. after    8 cycles
 SCF Done:  E(RB3LYP) =  -519.089923062     A.U. after    7 cycles
 Optimization completed.
    -- Stationary point found.
 Normal termination of Gaussian 16 at Tue Dec  8 20:55:04 2020.

 --------------------------------------------------------------------
 #N Geom=AllCheck Guess=TCheck SCRF=Check GenChk RB3LYP/6-31G(d) Freq
 --------------------------------------------------------------------

 Structure from the checkpoint file:  "JID_1690.chk"
 -------------------------------
 CID_115634295_JID_1690_neutraal
 -------------------------------
 Charge =  0 Multiplicity = 1

 SCF Done:  E(RB3LYP) =  -519.089923062     A.U. after    1 cycles

  Exact polarizability: 115.638  -4.136  85.960   0.262  -0.673  81.721
 Approx polarizability: 143.941 -11.302 128.322   1.770  -6.042 119.877

                      1                      2                      3
                      A                      A                      A
 Frequencies --     34.5921                57.5361                77.9406
 Red. masses --      4.0918                 3.7426                 3.0042
 Frc consts  --      0.0029                 0.0073                 0.0108
 IR Inten    --      1.3216                 0.9987                 1.8470

                      4                      5                      6
                      A                      A                      A
 Frequencies --    102.7242               152.1072               175.5156
 Red. masses --      3.5912                 3.1610                 2.7327
 Frc consts  --      0.0223                 0.0431                 0.0496
 IR Inten    --      0.2200                 2.0558                 3.2839

                      7                      8                      9
                      A                      A                      A
 Frequencies --    222.1907               252.3363               281.0848
 Red. masses --      2.3554                 1.1345                 1.4224
 Frc consts  --      0.0685                 0.0426                 0.0662
 IR Inten    --      3.4766                 0.7698                 0.9290

                     10                     11                     12
                      A                      A                      A
 Frequencies --    322.1564               331.1990               361.3070
 Red. masses --      2.2627                 2.2688                 3.0348
 Frc consts  --      0.1384                 0.1466                 0.2334
 IR Inten    --      0.2030                 3.7725                11.0101

                     13                     14                     15
                      A                      A                      A
 Frequencies --    405.7243               419.3654               479.7433
 Red. masses --      2.3395                 3.6724                 2.6424
 Frc consts  --      0.2269                 0.3805                 0.3583
 IR Inten    --      9.3879                 5.7821                13.0882

                     16                     17                     18
                      A                      A                      A
 Frequencies --    513.7812               547.3126               604.3450
 Red. masses --      3.0801                 2.9383                 1.3941
 Frc consts  --      0.4790                 0.5186                 0.3000
 IR Inten    --     21.8801                 6.4066                55.6003

                     19                     20                     21
                      A                      A                      A
 Frequencies --    713.7379               782.5550               798.9814
 Red. masses --      3.7666                 3.5363                 1.0390
 Frc consts  --      1.1305                 1.2759                 0.3908
 IR Inten    --     33.6655                 5.4575                 0.2122

                     22                     23                     24
                      A                      A                      A
 Frequencies --    817.9441               850.5975               869.6948
 Red. masses --      1.1551                 2.6797                 4.2246
 Frc consts  --      0.4553                 1.1423                 1.8827
 IR Inten    --      4.6725                12.6514                14.3635

                     25                     26                     27
                      A                      A                      A
 Frequencies --    890.4842               950.3836               952.3022
 Red. masses --      2.1575                 1.7364                 1.4862
 Frc consts  --      1.0080                 0.9240                 0.7941
 IR Inten    --      3.1470                 5.2094                 1.0154

                     28                     29                     30
                      A                      A                      A
 Frequencies --    998.1687              1041.4378              1050.0828
 Red. masses --      2.6164                 1.8337                 1.9028
 Frc consts  --      1.5359                 1.1718                 1.2362
 IR Inten    --      8.7218                10.6644                16.3477

                     31                     32                     33
                      A                      A                      A
 Frequencies --   1057.9267              1084.8182              1091.7765
 Red. masses --      1.2887                 1.9349                 1.4051
 Frc consts  --      0.8498                 1.3416                 0.9868
 IR Inten    --      4.7255                14.7596                 0.4256

                     34                     35                     36
                      A                      A                      A
 Frequencies --   1102.5738              1151.6441              1155.5266
 Red. masses --      2.6255                 2.7021                 1.8705
 Frc consts  --      1.8805                 2.1115                 1.4716
 IR Inten    --     34.6103               102.5783                16.5940

                     37                     38                     39
                      A                      A                      A
 Frequencies --   1204.8062              1211.0861              1291.0167
 Red. masses --      1.3060                 1.7177                 1.3091
 Frc consts  --      1.1169                 1.4844                 1.2855
 IR Inten    --      1.5571                20.9074                 9.4512

                     40                     41                     42
                      A                      A                      A
 Frequencies --   1322.6622              1349.7497              1351.7545
 Red. masses --      2.6026                 1.1724                 2.4092
 Frc consts  --      2.6826                 1.2585                 2.5937
 IR Inten    --     23.7033                 5.7022                25.7855

                     43                     44                     45
                      A                      A                      A
 Frequencies --   1377.5584              1414.4462              1430.4222
 Red. masses --      1.5311                 1.3055                 1.6186
 Frc consts  --      1.7119                 1.5389                 1.9512
 IR Inten    --     73.8880                12.2078                38.5878

                     46                     47                     48
                      A                      A                      A
 Frequencies --   1443.7051              1448.3931              1465.5302
 Red. masses --      1.3009                 1.2849                 1.9932
 Frc consts  --      1.5976                 1.5882                 2.5222
 IR Inten    --     56.3238                 4.4643                61.3359

                     49                     50                     51
                      A                      A                      A
 Frequencies --   1487.5172              1514.9852              1519.8322
 Red. masses --      1.1219                 1.0654                 1.0732
 Frc consts  --      1.4626                 1.4407                 1.4605
 IR Inten    --      1.5355                 6.5456                 1.5993

                     52                     53                     54
                      A                      A                      A
 Frequencies --   1520.2390              1528.6946              1534.5621
 Red. masses --      1.0652                 1.2734                 1.0839
 Frc consts  --      1.4505                 1.7533                 1.5039
 IR Inten    --      3.8338                 8.5798                 3.1248

                     55                     56                     57
                      A                      A                      A
 Frequencies --   1545.6634              1550.7271              1775.4170
 Red. masses --      1.0951                 1.0643                 7.9829
 Frc consts  --      1.5415                 1.5079                14.8255
 IR Inten    --      0.5308                 2.8940               347.1072

                     58                     59                     60
                      A                      A                      A
 Frequencies --   3041.6227              3048.7311              3056.2889
 Red. masses --      1.0658                 1.0374                 1.0372
 Frc consts  --      5.8095                 5.6814                 5.7080
 IR Inten    --     33.1522                36.5525                14.7055

                     61                     62                     63
                      A                      A                      A
 Frequencies --   3071.5539              3104.3789              3113.7245
 Red. masses --      1.0646                 1.0988                 1.1011
 Frc consts  --      5.9178                 6.2389                 6.2899
 IR Inten    --     31.0316                24.9257                26.1059

                     64                     65                     66
                      A                      A                      A
 Frequencies --   3122.0670              3144.3032              3147.3539
 Red. masses --      1.1019                 1.1015                 1.0996
 Frc consts  --      6.3281                 6.4163                 6.4179
 IR Inten    --     31.3515                 2.6172                24.9473

                     67                     68                     69
                      A                      A                      A
 Frequencies --   3150.3435              3151.6067              3156.5128
 Red. masses --      1.0898                 1.0631                 1.0583
 Frc consts  --      6.3723                 6.2215                 6.2128
 IR Inten    --     14.5483                16.2854                 6.6437

                     70                     71                     72
                      A                      A                      A
 Frequencies --   3230.4451              3244.0655              3563.0129
 Red. masses --      1.1202                 1.1171                 1.0754
 Frc consts  --      6.8877                 6.9264                 8.0437
 IR Inten    --      0.8346                15.8071                14.9015

 - Thermochemistry -
 -------------------
 Temperature   298.150 Kelvin.  Pressure   1.00000 Atm.
 Atom     1 has atomic number  6 and mass  12.00000

 Molecular mass:   157.11028 amu.
 Principal axes and moments of inertia in atomic units:
                           1         2         3
     Eigenvalues --   853.854972769.238933092.21392
           X            1.00000  -0.00151  -0.00091
           Y            0.00156   0.99857   0.05352
           Z            0.00083  -0.05353   0.99857
 This molecule is an asymmetric top.
 Rotational symmetry number  1.
 Warning -- assumption of classical behavior for rotation
           may cause significant error
 Rotational temperatures (Kelvin)      0.10144     0.03128     0.02801
 Rotational constants (GHZ):           2.11364     0.65171     0.58364
 Zero-point vibrational energy     600144.8 (Joules/Mol)
                                  143.43805 (Kcal/Mol)
 Warning -- explicit consideration of  18 degrees of freedom as
           vibrations may cause significant error
 Vibrational temperatures:     49.77    82.78   112.14   147.80   218.85
          (Kelvin)            252.53   319.68   363.06   404.42   463.51
                              476.52   519.84   583.75   603.37   690.24
                              739.22   787.46   869.52  1026.91  1125.92
                             1149.56  1176.84  1223.82  1251.30  1281.21
                             1367.39  1370.15  1436.14  1498.40  1510.84
                             1522.12  1560.81  1570.82  1586.36  1656.96
                             1662.55  1733.45  1742.48  1857.49  1903.02
                             1941.99  1944.87  1982.00  2035.07  2058.06
                             2077.17  2083.91  2108.57  2140.21  2179.73
                             2186.70  2187.28  2199.45  2207.89  2223.86
                             2231.15  2554.43  4376.22  4386.44  4397.32
                             4419.28  4466.51  4479.96  4491.96  4523.95
                             4528.34  4532.64  4534.46  4541.52  4647.89
                             4667.49  5126.38

 Zero-point correction=                           0.228583 (Hartree/Particle)
 Thermal correction to Energy=                    0.240834
 Thermal correction to Enthalpy=                  0.241778
 Thermal correction to Gibbs Free Energy=         0.189754
 Sum of electronic and zero-point Energies=           -518.861340
 Sum of electronic and thermal Energies=              -518.849089
 Sum of electronic and thermal Enthalpies=            -518.848145
 Sum of electronic and thermal Free Energies=         -518.900169

                     E (Thermal)             CV                S
                      KCal/Mol        Cal/Mol-Kelvin    Cal/Mol-Kelvin
 Total                  151.125             45.276            109.494
 Electronic               0.000              0.000              0.000
 Translational            0.889              2.981             41.065
 Rotational               0.889              2.981             30.370
 Vibrational            149.348             39.315             38.059
 Vibration     1          0.594              1.983              5.547
 Vibration     2          0.596              1.974              4.540
 Vibration     3          0.599              1.964              3.942
 Vibration     4          0.605              1.947              3.402
 Vibration     5          0.619              1.900              2.646
 Vibration     6          0.627              1.873              2.376
 Vibration     7          0.648              1.807              1.941
 Vibration     8          0.664              1.759              1.714
 Vibration     9          0.681              1.709              1.527
 Vibration    10          0.707              1.631              1.299
 Vibration    11          0.714              1.613              1.254
 Vibration    12          0.735              1.552              1.116
 Vibration    13          0.771              1.458              0.942
 Vibration    14          0.782              1.428              0.894
 Vibration    15          0.836              1.295              0.711
 Vibration    16          0.869              1.219              0.625
 Vibration    17          0.903              1.146              0.550
 Vibration    18          0.963              1.023              0.442

                           ! Non-Optimized Parameters !
 Normal termination of Gaussian 16 at Tue Dec  8 21:00:36 2020.

 ----------------------------------------------------------------------
 # B3LYP/6-311++G(d,p) empiricaldispersion=gd3bj scf=xqc pop=npa geom=c
 heck
 ----------------------------------------------------------------------

 ---------------------------------------
 CID_115634295_JID_1690_Energie_neutraal
 ---------------------------------------
 Structure from the checkpoint file:  "JID_1690.chk"
 Charge =  0 Multiplicity = 1

 SCF Done:  E(RB3LYP) =  -519.244700018     A.U. after   14 cycles
 Normal termination of Gaussian 16 at Tue Dec  8 21:03:52 2020.

 ----------------------------------------------------------------------
 # B3LYP/6-311++G(d,p) empiricaldispersion=gd3bj scf=xqc pop=npa geom=c
 heck
 ----------------------------------------------------------------------

 -------------------------------------
 CID_115634295_JID_1690_Energie_kation
 -------------------------------------
 Structure from the checkpoint file:  "JID_1690.chk"
 Charge =  1 Multiplicity = 2

 SCF Done:  E(UB3LYP) =  -518.919363492     A.U. after   26 cycles
 Normal termination of Gaussian 16 at Tue Dec  8 21:10:53 2020.
 Gaussian 16:  ES64L-G16RevA.03 25-Dec-2016

 ----------------------------------------------------------------------
 # B3LYP/6-311++G(d,p) empiricaldispersion=gd3bj scf=xqc pop=npa geom=c
 heck
 ----------------------------------------------------------------------

 ------------------------------------
 CID_115634295_JID_1690_Energie_anion
 ------------------------------------
 Structure from the checkpoint file:  "JID_1690.chk"
 Charge = -1 Multiplicity = 2

                         Standard orientation:
 ---------------------------------------------------------------------
 Center     Atomic      Atomic             Coordinates (Angstroms)
 Number     Number       Type             X           Y           Z
 ---------------------------------------------------------------------
      1          6           0       -3.662269   -0.132245    0.120217
      2          6           0       -2.461530   -0.854463   -0.478703
      3          8           0       -1.383996   -1.062583    0.442720
      4          6           0       -0.826380    0.110171    1.021674
      5          6           0       -0.302253    1.083444   -0.040128
      6          8           0       -1.023444    1.971398   -0.486139
      7          7           0        0.976471    0.910964   -0.497986
      8          6           0        1.889205   -0.172480   -0.216513
      9          6           0        3.330322    0.242685   -0.052829
     10          6           0        2.532785   -0.188572    1.152689
     11          6           0        1.575177   -1.486600   -0.908586
     12          1           0       -3.977942   -0.611120    1.053722
     13          1           0       -4.499722   -0.168304   -0.585739
     14          1           0       -3.433455    0.919621    0.311136
     15          1           0       -2.734829   -1.867141   -0.790142
     16          1           0       -2.103919   -0.311943   -1.364149
     17          1           0       -1.567574    0.660764    1.611667
     18          1           0       -0.034294   -0.245279    1.682368
     19          1           0        1.198323    1.514296   -1.283005
     20          1           0        4.091683   -0.427157   -0.441709
     21          1           0        3.565135    1.299260   -0.144407
     22          1           0        2.238860    0.583479    1.856646
     23          1           0        2.741989   -1.156581    1.598661
     24          1           0        0.590814   -1.850079   -0.600565
     25          1           0        1.572936   -1.354118   -1.997295
     26          1           0        2.325875   -2.244614   -0.660853
 ---------------------------------------------------------------------

 SCF Done:  E(UB3LYP) =  -519.227803931     A.U. after   33 cycles
 SCF Done:  E(UB3LYP) =  -519.227803931     a.u. after    1 cycles

 The electronic state is 2-A.
 Alpha  occ. eigenvalues --  -19.03511 -18.99434 -14.24070 -10.17585 -10.12654
 Alpha  occ. eigenvalues --  -10.12448 -10.11903 -10.07572 -10.07419 -10.06515
 Alpha  occ. eigenvalues --  -10.05637  -0.95277  -0.93241  -0.83968  -0.74642
 Alpha  occ. eigenvalues --   -0.66930  -0.61887  -0.61325  -0.53428  -0.50963
 Alpha  occ. eigenvalues --   -0.50623  -0.45916  -0.41256  -0.41017  -0.40281
 Alpha  occ. eigenvalues --   -0.37764  -0.36401  -0.34354  -0.32317  -0.31430
 Alpha  occ. eigenvalues --   -0.31015  -0.30274  -0.29188  -0.28482  -0.27941
 Alpha  occ. eigenvalues --   -0.27124  -0.26894  -0.22758  -0.21529  -0.19668
 Alpha  occ. eigenvalues --   -0.17944  -0.15834  -0.15208   0.04705
 Alpha virt. eigenvalues --    0.06561   0.07555   0.07933   0.08816   0.09104
 Alpha virt. eigenvalues --    0.09220   0.09953   0.10599   0.11317   0.11584
 Alpha virt. eigenvalues --    0.12382   0.12591   0.13134   0.13932   0.15174

  Beta  occ. eigenvalues --  -19.03508 -18.99429 -14.24051 -10.17584 -10.12641
  Beta  occ. eigenvalues --  -10.12448 -10.11887 -10.07538 -10.07377 -10.06495
  Beta  occ. eigenvalues --  -10.05601  -0.95268  -0.93233  -0.83947  -0.74617
  Beta  occ. eigenvalues --   -0.66903  -0.61854  -0.61277  -0.53385  -0.50874
  Beta  occ. eigenvalues --   -0.50563  -0.45859  -0.41198  -0.40991  -0.40260
  Beta  occ. eigenvalues --   -0.37701  -0.36372  -0.34336  -0.32294  -0.31399
  Beta  occ. eigenvalues --   -0.30980  -0.30246  -0.29154  -0.28443  -0.27914
  Beta  occ. eigenvalues --   -0.27092  -0.26856  -0.22738  -0.21484  -0.19644
  Beta  occ. eigenvalues --   -0.17927  -0.15806  -0.15195
  Beta virt. eigenvalues --    0.06857   0.07660   0.08186   0.08763   0.09191
  Beta virt. eigenvalues --    0.09661   0.09814   0.10310   0.11214   0.11825
  Beta virt. eigenvalues --    0.12092   0.12799   0.12982   0.13465   0.14141

 Mulliken charges and spin densities:
               1          2
     1  C    0.258074  -0.749150
     2  C   -0.194241   0.003492
     3  O   -0.068961   0.018224
     4  C    0.233884  -0.565325
     5  C    0.091825  -0.015965
     6  O   -0.311913   0.003811
     7  N   -0.096863   0.007663
     8  C   -3.482564   3.445922
     9  C    1.249484  -1.466255
    10  C    1.558408  -1.890062
    11  C    1.974163  -2.588732
    12  H    0.028855   0.116403
    13  H   -0.256203   0.387528
    14  H    0.077761   0.091349
    15  H   -0.384094   0.533537
    16  H    0.212821  -0.039576
    17  H   -0.092192   0.291376
    18  H   -0.104481   0.280488
    19  H    0.018484   0.288014
    20  H   -0.535756   0.705742
    21  H   -0.289352   0.438107
    22  H    0.072697   0.074090
    23  H   -0.449029   0.627618
    24  H    0.342379  -0.151232
    25  H   -0.401405   0.559112
    26  H   -0.451783   0.593820
 Sum of Mulliken charges =  -1.00000   1.00000

 Dipole moment (field-independent basis, Debye):
    X=             -3.8205    Y=              1.8754    Z=              1.0376  Tot=              4.3807
 Quadrupole moment (field-independent basis, Debye-Ang):
   XX=           -144.0360   YY=           -110.9923   ZZ=           -100.6343
   XY=              5.6532   XZ=             -2.0555   YZ=             -0.2260

 Summary of Natural Population Analysis:

                                       Natural Population
                Natural  -----------------------------------------------
    Atom  No    Charge         Core      Valence    Rydberg      Total
 -----------------------------------------------------------------------
      C    1   -0.30460      0.99966     2.30095    0.00398     3.30460
      C    2   -0.01263      0.99959     2.00024    0.01280     3.01263
      O    3   -0.29610      0.99989     3.28678    0.00943     4.29610
      C    4   -0.05129      0.99954     2.03956    0.01220     3.05129
      C    5    0.33153      0.99968     1.64753    0.02126     2.66847
      O    6   -0.32555      0.99988     3.31924    0.00642     4.32555
      N    7   -0.31410      0.99964     2.80249    0.01197     3.81410
      C    8    0.04332      0.99955     1.94312    0.01401     2.95668
      C    9   -0.19038      0.99958     2.18084    0.00996     3.19038
      C   10   -0.19526      0.99958     2.18596    0.00971     3.19526
      C   11   -0.28843      0.99961     2.28238    0.00644     3.28843
      H   12    0.09721      0.00000     0.40145    0.00134     0.40279
      H   13    0.10174      0.00000     0.39708    0.00118     0.39826
      H   14    0.10599      0.00000     0.39257    0.00143     0.39401
      H   15    0.08916      0.00000     0.40928    0.00156     0.41084
      H   16    0.08325      0.00000     0.41528    0.00147     0.41675
      H   17    0.08970      0.00000     0.40888    0.00142     0.41030
      H   18    0.10010      0.00000     0.39786    0.00204     0.39990
      H   19    0.19536      0.00000     0.30199    0.00265     0.30464
      H   20    0.10820      0.00000     0.38912    0.00267     0.39180
      H   21    0.10553      0.00000     0.39273    0.00174     0.39447
      H   22    0.10507      0.00000     0.39350    0.00143     0.39493
      H   23    0.10764      0.00000     0.39071    0.00165     0.39236
      H   24    0.11122      0.00000     0.38675    0.00203     0.38878
      H   25    0.10006      0.00000     0.39835    0.00159     0.39994
      H   26    0.10325      0.00000     0.39497    0.00178     0.39675
 =======================================================================
   * Total *   -0.00000     10.99620    31.85963    0.14417    43.00000

 Normal termination of Gaussian 16 at Tue Dec  8 21:19:38 2020.
