 Gaussian 16, Revision A.03,

 -----------------------------------------------------------
 # opt freq B3LYP/6-31G(d) empiricaldispersion=gd3bj scf=xqc
 -----------------------------------------------------------

 -----------------------------
 CID_9296089_JID_8003_neutraal
 -----------------------------
 Symbolic Z-matrix:
 Charge =  0 Multiplicity = 1

 SCF Done:  E(RB3LYP) =  -841.469156252     A.U. after   15 cycles
 SCF Done:  E(RB3LYP) =  -841.447028742     A.U. after   14 cycles
 SCF Done:  E(RB3LYP) =  -841.477527700     A.U. after   13 cycles
 SCF Done:  E(RB3LYP) =  -841.473678500     A.U. after   13 cycles
 SCF Done:  E(RB3LYP) =  -841.478057631     A.U. after   13 cycles
 SCF Done:  E(RB3LYP) =  -841.478909433     A.U. after   14 cycles
 SCF Done:  E(RB3LYP) =  -841.479903388     A.U. after   13 cycles
 SCF Done:  E(RB3LYP) =  -841.480280526     A.U. after   13 cycles
 SCF Done:  E(RB3LYP) =  -841.480624029     A.U. after   13 cycles
 SCF Done:  E(RB3LYP) =  -841.480982630     A.U. after   12 cycles
 SCF Done:  E(RB3LYP) =  -841.481531954     A.U. after    9 cycles
 SCF Done:  E(RB3LYP) =  -841.481533447     A.U. after    8 cycles
 SCF Done:  E(RB3LYP) =  -841.481534438     A.U. after    8 cycles
 SCF Done:  E(RB3LYP) =  -841.481534817     A.U. after    8 cycles
 SCF Done:  E(RB3LYP) =  -841.481535041     A.U. after    7 cycles
 Optimization completed.
    -- Stationary point found.
 Normal termination of Gaussian 16 at Fri Dec 11 18:50:25 2020.

 --------------------------------------------------------------------
 #N Geom=AllCheck Guess=TCheck SCRF=Check GenChk RB3LYP/6-31G(d) Freq
 --------------------------------------------------------------------

 Structure from the checkpoint file:  "JID_8003.chk"
 -----------------------------
 CID_9296089_JID_8003_neutraal
 -----------------------------
 Charge =  0 Multiplicity = 1

 SCF Done:  E(RB3LYP) =  -841.481535041     A.U. after    1 cycles

  Exact polarizability: 166.266 -19.749 155.869 -19.527 -12.240 122.517
 Approx polarizability: 248.724 -42.622 239.254 -47.205 -26.010 207.685

                      1                      2                      3
                      A                      A                      A
 Frequencies --     26.4894                42.5221                68.3756
 Red. masses --      4.8933                 7.9199                 3.4887
 Frc consts  --      0.0020                 0.0084                 0.0096
 IR Inten    --      0.3767                 3.9521                 0.6095

                      4                      5                      6
                      A                      A                      A
 Frequencies --     71.8714                82.4477               110.0076
 Red. masses --      4.5054                 5.0188                 4.3143
 Frc consts  --      0.0137                 0.0201                 0.0308
 IR Inten    --      2.3092                 1.2694                 1.9147

                      7                      8                      9
                      A                      A                      A
 Frequencies --    115.1612               145.8709               184.2201
 Red. masses --      5.3480                 4.0629                 4.0856
 Frc consts  --      0.0418                 0.0509                 0.0817
 IR Inten    --      6.2729                 1.9986                 8.0969

                     10                     11                     12
                      A                      A                      A
 Frequencies --    187.3764               198.5451               231.1935
 Red. masses --      3.3799                 2.4198                 1.3017
 Frc consts  --      0.0699                 0.0562                 0.0410
 IR Inten    --      4.7327                 1.5132                 0.3004

                     13                     14                     15
                      A                      A                      A
 Frequencies --    254.7560               266.9671               277.9690
 Red. masses --      1.2631                 2.3472                 3.2656
 Frc consts  --      0.0483                 0.0986                 0.1487
 IR Inten    --      1.4252                 4.9148                 3.2659

                     16                     17                     18
                      A                      A                      A
 Frequencies --    279.9381               331.0667               355.2864
 Red. masses --      2.7768                 4.0236                 3.5217
 Frc consts  --      0.1282                 0.2598                 0.2619
 IR Inten    --      1.8725                 3.6285                 1.1257

                     19                     20                     21
                      A                      A                      A
 Frequencies --    397.4496               408.4780               465.8795
 Red. masses --      3.0276                 4.5529                 1.5712
 Frc consts  --      0.2818                 0.4476                 0.2009
 IR Inten    --      7.1926                 4.7640                28.9450

                     22                     23                     24
                      A                      A                      A
 Frequencies --    478.4963               497.2761               524.7117
 Red. masses --      3.8704                 2.9572                 3.4027
 Frc consts  --      0.5221                 0.4308                 0.5520
 IR Inten    --      1.9560                 3.0090                 2.4965

                     25                     26                     27
                      A                      A                      A
 Frequencies --    545.0364               557.7654               568.5872
 Red. masses --      1.9501                 3.5558                 3.3557
 Frc consts  --      0.3413                 0.6518                 0.6392
 IR Inten    --     45.3251                12.0888                 7.3629

                     28                     29                     30
                      A                      A                      A
 Frequencies --    588.2723               597.7282               610.3534
 Red. masses --      3.3471                 2.2279                 3.8757
 Frc consts  --      0.6825                 0.4690                 0.8507
 IR Inten    --     19.2156                70.7012                14.2343

                     31                     32                     33
                      A                      A                      A
 Frequencies --    656.0401               687.9259               720.8583
 Red. masses --      1.7554                 1.5980                 3.5184
 Frc consts  --      0.4451                 0.4456                 1.0772
 IR Inten    --     32.2823               173.8799                 6.1291

                     34                     35                     36
                      A                      A                      A
 Frequencies --    729.4640               754.4459               779.9099
 Red. masses --      2.7106                 3.9630                 1.3161
 Frc consts  --      0.8498                 1.3290                 0.4717
 IR Inten    --     58.9753                 2.1671                51.5507

                     37                     38                     39
                      A                      A                      A
 Frequencies --    814.7804               857.6863               869.4249
 Red. masses --      4.9919                 3.7491                 3.2705
 Frc consts  --      1.9525                 1.6249                 1.4565
 IR Inten    --      7.2647                21.6724                 0.6568

                     40                     41                     42
                      A                      A                      A
 Frequencies --    879.7314               909.7836               943.8818
 Red. masses --      1.4998                 2.6124                 1.1577
 Frc consts  --      0.6839                 1.2740                 0.6077
 IR Inten    --      1.2576                 2.4953                 2.5909

                     43                     44                     45
                      A                      A                      A
 Frequencies --    953.9620               974.8029               979.9767
 Red. masses --      1.3661                 1.4285                 1.2951
 Frc consts  --      0.7325                 0.7998                 0.7328
 IR Inten    --      4.8246                 0.6319                 0.5208

                     46                     47                     48
                      A                      A                      A
 Frequencies --    986.6902              1041.3947              1056.8909
 Red. masses --      2.1858                 1.9622                 3.0451
 Frc consts  --      1.2538                 1.2538                 2.0041
 IR Inten    --     16.8441                 3.4538                 8.6642

                     49                     50                     51
                      A                      A                      A
 Frequencies --   1077.6566              1101.6036              1117.1151
 Red. masses --      3.0818                 1.6239                 2.4390
 Frc consts  --      2.1087                 1.1611                 1.7933
 IR Inten    --     40.5616                 0.6280                26.4406

                     52                     53                     54
                      A                      A                      A
 Frequencies --   1131.4230              1140.9213              1148.8786
 Red. masses --      1.7141                 2.2967                 3.0147
 Frc consts  --      1.2928                 1.7615                 2.3444
 IR Inten    --      2.1501                13.0151                 5.0973

                     55                     56                     57
                      A                      A                      A
 Frequencies --   1188.6618              1201.1815              1229.2689
 Red. masses --      1.2354                 1.4025                 1.9472
 Frc consts  --      1.0285                 1.1923                 1.7336
 IR Inten    --      3.1319                 3.0736                31.2367

                     58                     59                     60
                      A                      A                      A
 Frequencies --   1247.4724              1274.9650              1288.0943
 Red. masses --      2.2485                 1.5347                 1.1589
 Frc consts  --      2.0616                 1.4699                 1.1329
 IR Inten    --     55.8883                71.0989                13.7597

                     61                     62                     63
                      A                      A                      A
 Frequencies --   1311.3011              1333.7091              1346.4404
 Red. masses --      1.7028                 3.5387                 1.3777
 Frc consts  --      1.7251                 3.7087                 1.4716
 IR Inten    --     29.0483                24.1496                11.5900

                     64                     65                     66
                      A                      A                      A
 Frequencies --   1362.5642              1377.7022              1403.3223
 Red. masses --      1.4331                 3.2913                 1.6086
 Frc consts  --      1.5676                 3.6806                 1.8665
 IR Inten    --     53.1152                99.5419                10.5006

                     67                     68                     69
                      A                      A                      A
 Frequencies --   1411.2824              1423.0355              1427.8760
 Red. masses --      1.3885                 2.0345                 1.2292
 Frc consts  --      1.6294                 2.4274                 1.4766
 IR Inten    --     11.6940                53.4427                 4.6968

                     70                     71                     72
                      A                      A                      A
 Frequencies --   1450.8974              1492.3633              1498.1642
 Red. masses --      1.2208                 2.0907                 1.2186
 Frc consts  --      1.5141                 2.7435                 1.6115
 IR Inten    --      3.7912                35.7148                11.2445

                     73                     74                     75
                      A                      A                      A
 Frequencies --   1513.3310              1514.1891              1520.8205
 Red. masses --      1.5026                 1.1751                 1.0920
 Frc consts  --      2.0275                 1.5873                 1.4881
 IR Inten    --     34.8175                 7.5110                 7.3521

                     76                     77                     78
                      A                      A                      A
 Frequencies --   1529.1136              1534.7935              1535.4944
 Red. masses --      1.4632                 1.0657                 1.0771
 Frc consts  --      2.0157                 1.4791                 1.4962
 IR Inten    --      8.8445                 2.1966                 2.4421

                     79                     80                     81
                      A                      A                      A
 Frequencies --   1545.5669              1631.3796              1640.1365
 Red. masses --      1.4193                 5.8713                 1.2433
 Frc consts  --      1.9976                 9.2066                 1.9705
 IR Inten    --     58.8945                 7.7731                53.4255

                     82                     83                     84
                      A                      A                      A
 Frequencies --   1662.5449              1782.4350              1821.2038
 Red. masses --      5.6515                 7.5446                 9.0177
 Frc consts  --      9.2036                14.1226                17.6223
 IR Inten    --     12.5342               322.5437               284.7446

                     85                     86                     87
                      A                      A                      A
 Frequencies --   3046.5568              3057.5346              3063.9877
 Red. masses --      1.0345                 1.0367                 1.0655
 Frc consts  --      5.6570                 5.7103                 5.8937
 IR Inten    --     27.9640                23.6376                31.4001

                     88                     89                     90
                      A                      A                      A
 Frequencies --   3072.6251              3113.2739              3116.8536
 Red. masses --      1.0704                 1.1022                 1.1002
 Frc consts  --      5.9540                 6.2943                 6.2971
 IR Inten    --     26.6187                15.0879                27.7408

                     91                     92                     93
                      A                      A                      A
 Frequencies --   3122.0999              3125.5352              3142.2490
 Red. masses --      1.1027                 1.0996                 1.1014
 Frc consts  --      6.3331                 6.3290                 6.4072
 IR Inten    --     28.0409                15.9314                24.8198

                     94                     95                     96
                      A                      A                      A
 Frequencies --   3162.3189              3178.3669              3189.8721
 Red. masses --      1.0935                 1.0830                 1.0853
 Frc consts  --      6.4427                 6.4462                 6.5062
 IR Inten    --      0.8784                23.8503                 1.3427

                     97                     98                     99
                      A                      A                      A
 Frequencies --   3202.6140              3210.6176              3221.5274
 Red. masses --      1.0890                 1.0931                 1.0967
 Frc consts  --      6.5808                 6.6388                 6.7057
 IR Inten    --      9.3876                22.1285                 6.7937

                    100                    101                    102
                      A                      A                      A
 Frequencies --   3561.2435              3578.4151              3673.8294
 Red. masses --      1.0471                 1.0755                 1.1007
 Frc consts  --      7.8240                 8.1139                 8.7526
 IR Inten    --     34.0903                27.9047                39.5229

 - Thermochemistry -
 -------------------
 Temperature   298.150 Kelvin.  Pressure   1.00000 Atm.
 Atom     1 has atomic number  6 and mass  12.00000

 Molecular mass:   250.13174 amu.
 Principal axes and moments of inertia in atomic units:
                           1         2         3
     Eigenvalues --  3276.060254413.493835900.57673
           X            0.99981   0.01389  -0.01356
           Y           -0.01415   0.99972  -0.01911
           Z            0.01329   0.01930   0.99973
 This molecule is an asymmetric top.
 Rotational symmetry number  1.
 Warning -- assumption of classical behavior for rotation
           may cause significant error
 Rotational temperatures (Kelvin)      0.02644     0.01962     0.01468
 Rotational constants (GHZ):           0.55089     0.40891     0.30586
 Zero-point vibrational energy     796259.4 (Joules/Mol)
                                  190.31057 (Kcal/Mol)
 Warning -- explicit consideration of  30 degrees of freedom as
           vibrations may cause significant error
 Vibrational temperatures:     38.11    61.18    98.38   103.41   118.62
          (Kelvin)            158.28   165.69   209.88   265.05   269.59
                              285.66   332.64   366.54   384.11   399.94
                              402.77   476.33   511.18   571.84   587.71
                              670.30   688.45   715.47   754.94   784.19
                              802.50   818.07   846.39   860.00   878.16
                              943.90   989.77  1037.15  1049.54  1085.48
                             1122.12  1172.29  1234.02  1250.91  1265.74
                             1308.98  1358.04  1372.54  1402.52  1409.97
                             1419.63  1498.33  1520.63  1550.51  1584.96
                             1607.28  1627.87  1641.53  1652.98  1710.22
                             1728.23  1768.64  1794.83  1834.39  1853.28
                             1886.67  1918.91  1937.23  1960.43  1982.21
                             2019.07  2030.52  2047.43  2054.40  2087.52
                             2147.18  2155.52  2177.35  2178.58  2188.12
                             2200.05  2208.23  2209.23  2223.73  2347.19
                             2359.79  2392.03  2564.53  2620.31  4383.32
                             4399.11  4408.39  4420.82  4479.31  4484.46
                             4492.01  4496.95  4521.00  4549.87  4572.96
                             4589.51  4607.85  4619.36  4635.06  5123.84
                             5148.54  5285.82

 Zero-point correction=                           0.303279 (Hartree/Particle)
 Thermal correction to Energy=                    0.321237
 Thermal correction to Enthalpy=                  0.322181
 Thermal correction to Gibbs Free Energy=         0.257189
 Sum of electronic and zero-point Energies=           -841.178256
 Sum of electronic and thermal Energies=              -841.160298
 Sum of electronic and thermal Enthalpies=            -841.159354
 Sum of electronic and thermal Free Energies=         -841.224346

                     E (Thermal)             CV                S
                      KCal/Mol        Cal/Mol-Kelvin    Cal/Mol-Kelvin
 Total                  201.579             68.366            136.787
 Electronic               0.000              0.000              0.000
 Translational            0.889              2.981             42.451
 Rotational               0.889              2.981             32.811
 Vibrational            199.802             62.405             61.525
 Vibration     1          0.593              1.985              6.076
 Vibration     2          0.595              1.980              5.138
 Vibration     3          0.598              1.969              4.200
 Vibration     4          0.598              1.967              4.101
 Vibration     5          0.600              1.961              3.832
 Vibration     6          0.606              1.941              3.269
 Vibration     7          0.608              1.937              3.180
 Vibration     8          0.617              1.907              2.725
 Vibration     9          0.631              1.861              2.285
 Vibration    10          0.632              1.857              2.254
 Vibration    11          0.637              1.842              2.147
 Vibration    12          0.653              1.793              1.870
 Vibration    13          0.665              1.755              1.697
 Vibration    14          0.672              1.734              1.616
 Vibration    15          0.679              1.714              1.546
 Vibration    16          0.680              1.711              1.534
 Vibration    17          0.713              1.613              1.255
 Vibration    18          0.731              1.564              1.143
 Vibration    19          0.764              1.476              0.972
 Vibration    20          0.773              1.452              0.932
 Vibration    21          0.823              1.326              0.749
 Vibration    22          0.835              1.298              0.714
 Vibration    23          0.853              1.256              0.665
 Vibration    24          0.880              1.195              0.599
 Vibration    25          0.900              1.151              0.555
 Vibration    26          0.913              1.123              0.528
 Vibration    27          0.925              1.099              0.507
 Vibration    28          0.945              1.057              0.470
 Vibration    29          0.956              1.037              0.454
 Vibration    30          0.969              1.010              0.432

                           ! Non-Optimized Parameters !
 Normal termination of Gaussian 16 at Fri Dec 11 19:09:35 2020.

 ----------------------------------------------------------------------
 # B3LYP/6-311++G(d,p) empiricaldispersion=gd3bj scf=xqc pop=npa geom=c
 heck
 ----------------------------------------------------------------------

 -------------------------------------
 CID_9296089_JID_8003_Energie_neutraal
 -------------------------------------
 Structure from the checkpoint file:  "JID_8003.chk"
 Charge =  0 Multiplicity = 1

 SCF Done:  E(RB3LYP) =  -841.729609565     A.U. after   16 cycles
 Normal termination of Gaussian 16 at Fri Dec 11 19:16:48 2020.

 ----------------------------------------------------------------------
 # B3LYP/6-311++G(d,p) empiricaldispersion=gd3bj scf=xqc pop=npa geom=c
 heck
 ----------------------------------------------------------------------

 -----------------------------------
 CID_9296089_JID_8003_Energie_kation
 -----------------------------------
 Structure from the checkpoint file:  "JID_8003.chk"
 Charge =  1 Multiplicity = 2

 SCF Done:  E(UB3LYP) =  -841.419265563     A.U. after   26 cycles
 Normal termination of Gaussian 16 at Fri Dec 11 19:33:02 2020.
 Gaussian 16:  ES64L-G16RevA.03 25-Dec-2016

 ----------------------------------------------------------------------
 # B3LYP/6-311++G(d,p) empiricaldispersion=gd3bj scf=xqc pop=npa geom=c
 heck
 ----------------------------------------------------------------------

 ----------------------------------
 CID_9296089_JID_8003_Energie_anion
 ----------------------------------
 Structure from the checkpoint file:  "JID_8003.chk"
 Charge = -1 Multiplicity = 2

                         Standard orientation:
 ---------------------------------------------------------------------
 Center     Atomic      Atomic             Coordinates (Angstroms)
 Number     Number       Type             X           Y           Z
 ---------------------------------------------------------------------
      1          6           0        2.703821   -0.419199   -1.656312
      2          6           0        2.476607   -0.084046   -0.174271
      3          6           0        3.713228    0.600797    0.438893
      4          6           0        1.247277    0.787473    0.060811
      5          6           0        1.134518    1.988507   -0.664399
      6          6           0        0.150724    2.938874   -0.408998
      7          6           0       -0.769185    2.710781    0.615299
      8          6           0       -0.709454    1.520880    1.327304
      9          6           0        0.268414    0.555574    1.046961
     10          8           0        0.170203   -0.552619    1.869503
     11          6           0        0.383757   -1.891467    1.431090
     12          6           0        0.035700   -2.252684   -0.019023
     13          8           0        0.833176   -2.899797   -0.687507
     14          7           0       -1.176507   -1.878791   -0.522641
     15          6           0       -2.308485   -1.268670    0.150288
     16          6           0       -2.840585    0.000963   -0.529488
     17          8           0       -3.912614    0.472451   -0.187705
     18          7           0       -2.067587    0.497980   -1.542837
     19          1           0        2.898564    0.477362   -2.255237
     20          1           0        1.841917   -0.943596   -2.077432
     21          1           0        3.572622   -1.077994   -1.757634
     22          1           0        2.354096   -1.035208    0.338617
     23          1           0        3.918779    1.557548   -0.054667
     24          1           0        3.564933    0.800000    1.505501
     25          1           0        4.597959   -0.036268    0.326104
     26          1           0        1.872866    2.193269   -1.433602
     27          1           0        0.117196    3.855808   -0.990023
     28          1           0       -1.541774    3.438414    0.844019
     29          1           0       -1.427651    1.301874    2.110450
     30          1           0        1.422443   -2.196606    1.575059
     31          1           0       -0.236777   -2.501013    2.099163
     32          1           0       -1.329737   -2.221652   -1.464702
     33          1           0       -3.150755   -1.966802    0.217940
     34          1           0       -2.022825   -1.004029    1.168917
     35          1           0       -1.073700    0.303838   -1.518230
     36          1           0       -2.313649    1.433751   -1.839153
 ---------------------------------------------------------------------

 SCF Done:  E(UB3LYP) =  -841.719590754     A.U. after   33 cycles
 SCF Done:  E(UB3LYP) =  -841.719590753     a.u. after    1 cycles

 The electronic state is 2-A.
 Alpha  occ. eigenvalues --  -19.06573 -19.00983 -19.00408 -14.26093 -14.23946
 Alpha  occ. eigenvalues --  -10.19575 -10.18905 -10.15011 -10.14648 -10.13300
 Alpha  occ. eigenvalues --  -10.09528 -10.09171 -10.08417 -10.08208 -10.07968
 Alpha  occ. eigenvalues --  -10.07952 -10.07290 -10.06669  -0.98100  -0.95883
 Alpha  occ. eigenvalues --   -0.95347  -0.85106  -0.81347  -0.77154  -0.71651
 Alpha  occ. eigenvalues --   -0.68169  -0.65063  -0.64595  -0.62316  -0.59617
 Alpha  occ. eigenvalues --   -0.54123  -0.52908  -0.50330  -0.50072  -0.48342
 Alpha  occ. eigenvalues --   -0.45365  -0.44840  -0.43093  -0.41312  -0.39936
 Alpha  occ. eigenvalues --   -0.37980  -0.37320  -0.36695  -0.35573  -0.35294
 Alpha  occ. eigenvalues --   -0.35037  -0.34656  -0.33664  -0.32993  -0.32382
 Alpha  occ. eigenvalues --   -0.30806  -0.30227  -0.29575  -0.28909  -0.28560
 Alpha  occ. eigenvalues --   -0.27769  -0.26723  -0.25440  -0.24565  -0.23988
 Alpha  occ. eigenvalues --   -0.21688  -0.19955  -0.19021  -0.18182  -0.16303
 Alpha  occ. eigenvalues --   -0.16042  -0.14370   0.04050
 Alpha virt. eigenvalues --    0.05874   0.06454   0.06717   0.07329   0.07775
 Alpha virt. eigenvalues --    0.08370   0.08567   0.08777   0.09193   0.09517
 Alpha virt. eigenvalues --    0.09900   0.10051   0.10830   0.11367   0.11780

  Beta  occ. eigenvalues --  -19.06572 -19.00972 -19.00402 -14.26065 -14.23913
  Beta  occ. eigenvalues --  -10.19558 -10.18899 -10.14978 -10.14634 -10.13279
  Beta  occ. eigenvalues --  -10.09533 -10.09166 -10.08413 -10.08154 -10.07933
  Beta  occ. eigenvalues --  -10.07927 -10.07272 -10.06657  -0.98084  -0.95860
  Beta  occ. eigenvalues --   -0.95334  -0.85067  -0.81303  -0.77106  -0.71627
  Beta  occ. eigenvalues --   -0.68106  -0.65011  -0.64535  -0.62248  -0.59587
  Beta  occ. eigenvalues --   -0.54079  -0.52829  -0.50278  -0.50014  -0.48298
  Beta  occ. eigenvalues --   -0.45335  -0.44802  -0.43033  -0.41252  -0.39881
  Beta  occ. eigenvalues --   -0.37929  -0.37278  -0.36655  -0.35548  -0.35264
  Beta  occ. eigenvalues --   -0.35004  -0.34616  -0.33627  -0.32962  -0.32352
  Beta  occ. eigenvalues --   -0.30761  -0.30190  -0.29535  -0.28878  -0.28515
  Beta  occ. eigenvalues --   -0.27728  -0.26680  -0.25418  -0.24522  -0.23948
  Beta  occ. eigenvalues --   -0.21649  -0.19911  -0.18981  -0.18147  -0.16226
  Beta  occ. eigenvalues --   -0.15934  -0.14273
  Beta virt. eigenvalues --    0.06202   0.06630   0.07080   0.07244   0.07717
  Beta virt. eigenvalues --    0.08019   0.08723   0.08977   0.09062   0.09425
  Beta virt. eigenvalues --    0.09760   0.10147   0.10321   0.11224   0.11636

 Mulliken charges and spin densities:
               1          2
     1  C   -0.437582  -0.285983
     2  C    1.402598  -0.777974
     3  C    0.021416  -0.783114
     4  C   -0.805355   1.292036
     5  C   -0.648045   0.366865
     6  C    0.540838  -1.025862
     7  C    0.635320  -0.984321
     8  C    0.451571  -0.419836
     9  C   -0.784243   0.487385
    10  O   -0.089480   0.026086
    11  C    0.458138  -0.937518
    12  C    0.051208   0.011510
    13  O   -0.283645   0.025024
    14  N   -0.182852  -0.010431
    15  C    0.150957  -0.311696
    16  C   -0.022008  -0.154319
    17  O   -0.318794   0.022703
    18  N   -0.238918  -0.037129
    19  H   -0.236621   0.372747
    20  H    0.124324   0.040081
    21  H    0.106361   0.043018
    22  H    0.359932  -0.194838
    23  H   -0.058300   0.211850
    24  H    0.070099   0.096561
    25  H   -0.004645   0.146545
    26  H    0.010490   0.146381
    27  H   -0.903783   1.092548
    28  H    0.076470   0.094670
    29  H   -0.018784   0.219380
    30  H    0.060453   0.149742
    31  H   -0.854138   1.079935
    32  H   -0.037250   0.354322
    33  H   -0.322068   0.556205
    34  H    0.334684  -0.104363
    35  H    0.403525  -0.120376
    36  H   -0.011873   0.312167
 Sum of Mulliken charges =  -1.00000   1.00000

 Dipole moment (field-independent basis, Debye):
    X=              2.2112    Y=             -0.4921    Z=              0.6947  Tot=              2.3694
 Quadrupole moment (field-independent basis, Debye-Ang):
   XX=           -167.6972   YY=           -171.6463   ZZ=           -147.7368
   XY=             -1.1332   XZ=              2.0904   YZ=              9.8187

 Summary of Natural Population Analysis:

                                       Natural Population
                Natural  -----------------------------------------------
    Atom  No    Charge         Core      Valence    Rydberg      Total
 -----------------------------------------------------------------------
      C    1   -0.27885      0.99965     2.27422    0.00498     3.27885
      C    2   -0.12738      0.99957     2.11716    0.01065     3.12738
      C    3   -0.27611      0.99965     2.27196    0.00450     3.27611
      C    4   -0.04559      0.99944     2.03322    0.01293     3.04559
      C    5   -0.09056      0.99952     2.08078    0.01026     3.09056
      C    6   -0.10920      0.99955     2.09840    0.01125     3.10920
      C    7   -0.09774      0.99955     2.08758    0.01060     3.09774
      C    8   -0.11397      0.99951     2.10433    0.01014     3.11397
      C    9    0.15126      0.99930     1.83454    0.01489     2.84874
      O   10   -0.28694      0.99986     3.27674    0.01034     4.28694
      C   11   -0.04931      0.99950     2.03734    0.01247     3.04931
      C   12    0.32855      0.99966     1.64817    0.02362     2.67145
      O   13   -0.31544      0.99988     3.30976    0.00580     4.31544
      N   14   -0.31900      0.99967     2.80829    0.01104     3.81900
      C   15   -0.13557      0.99956     2.12428    0.01173     3.13557
      C   16    0.33764      0.99971     1.64033    0.02232     2.66236
      O   17   -0.31831      0.99987     3.31248    0.00595     4.31831
      N   18   -0.40167      0.99970     2.89420    0.00778     3.90167
      H   19    0.09409      0.00000     0.40488    0.00102     0.40591
      H   20    0.10706      0.00000     0.39180    0.00114     0.39294
      H   21    0.09892      0.00000     0.40031    0.00077     0.40108
      H   22    0.10384      0.00000     0.39322    0.00294     0.39616
      H   23    0.09840      0.00000     0.40064    0.00096     0.40160
      H   24    0.10083      0.00000     0.39830    0.00087     0.39917
      H   25    0.09670      0.00000     0.40251    0.00079     0.40330
      H   26    0.10266      0.00000     0.39588    0.00146     0.39734
      H   27    0.10455      0.00000     0.39358    0.00187     0.39545
      H   28    0.10358      0.00000     0.39554    0.00088     0.39642
      H   29    0.10812      0.00000     0.39045    0.00143     0.39188
      H   30    0.09644      0.00000     0.40213    0.00143     0.40356
      H   31    0.10660      0.00000     0.39036    0.00304     0.39340
      H   32    0.19921      0.00000     0.29804    0.00276     0.30079
      H   33    0.10928      0.00000     0.38961    0.00112     0.39072
      H   34    0.11964      0.00000     0.37814    0.00222     0.38036
      H   35    0.20005      0.00000     0.29663    0.00332     0.29995
      H   36    0.19821      0.00000     0.29946    0.00233     0.30179
 =======================================================================
   * Total *   -0.00000     17.99315    48.77527    0.23157    67.00000

 Normal termination of Gaussian 16 at Fri Dec 11 19:53:52 2020.
