 Gaussian 16, Revision A.03,

 -----------------------------------------------------------
 # opt freq B3LYP/6-31G(d) empiricaldispersion=gd3bj scf=xqc
 -----------------------------------------------------------

 -------------------------------
 CID_150332180_JID_1695_neutraal
 -------------------------------
 Symbolic Z-matrix:
 Charge =  0 Multiplicity = 1

 SCF Done:  E(RB3LYP) =  -528.866602765     A.U. after   16 cycles
 SCF Done:  E(RB3LYP) =  -528.870092793     A.U. after   15 cycles
 SCF Done:  E(RB3LYP) =  -528.871713246     A.U. after   14 cycles
 SCF Done:  E(RB3LYP) =  -528.872091619     A.U. after   13 cycles
 SCF Done:  E(RB3LYP) =  -528.872181267     A.U. after   12 cycles
 SCF Done:  E(RB3LYP) =  -528.872263967     A.U. after   12 cycles
 SCF Done:  E(RB3LYP) =  -528.872303577     A.U. after   12 cycles
 SCF Done:  E(RB3LYP) =  -528.872346353     A.U. after   10 cycles
 SCF Done:  E(RB3LYP) =  -528.872415413     A.U. after   11 cycles
 SCF Done:  E(RB3LYP) =  -528.872422024     A.U. after   11 cycles
 SCF Done:  E(RB3LYP) =  -528.872456370     A.U. after    9 cycles
 SCF Done:  E(RB3LYP) =  -528.872458753     A.U. after    9 cycles
 SCF Done:  E(RB3LYP) =  -528.872459347     A.U. after    8 cycles
 SCF Done:  E(RB3LYP) =  -528.872459392     A.U. after    8 cycles
 SCF Done:  E(RB3LYP) =  -528.872459488     A.U. after    9 cycles
 Optimization completed.
    -- Stationary point found.
 Normal termination of Gaussian 16 at Tue Dec  8 20:52:27 2020.

 --------------------------------------------------------------------
 #N Geom=AllCheck Guess=TCheck SCRF=Check GenChk RB3LYP/6-31G(d) Freq
 --------------------------------------------------------------------

 Structure from the checkpoint file:  "JID_1695.chk"
 -------------------------------
 CID_150332180_JID_1695_neutraal
 -------------------------------
 Charge =  0 Multiplicity = 1

 SCF Done:  E(RB3LYP) =  -528.872459488     A.U. after    1 cycles

  Exact polarizability:  83.209  -1.968  87.176   2.727  15.393  81.712
 Approx polarizability: 109.848   6.367 143.282  14.558  53.899 160.752

                      1                      2                      3
                      A                      A                      A
 Frequencies --     50.0288                59.6720                75.3291
 Red. masses --      4.8970                 3.6587                 5.4820
 Frc consts  --      0.0072                 0.0077                 0.0183
 IR Inten    --      2.9568                 7.9713                 2.3612

                      4                      5                      6
                      A                      A                      A
 Frequencies --    139.4563               170.5871               181.7054
 Red. masses --      5.5990                 5.5840                 2.7340
 Frc consts  --      0.0642                 0.0957                 0.0532
 IR Inten    --      1.2874                 0.9940                 5.1723

                      7                      8                      9
                      A                      A                      A
 Frequencies --    276.2080               334.1745               353.4214
 Red. masses --      2.6836                 1.5314                 3.3603
 Frc consts  --      0.1206                 0.1008                 0.2473
 IR Inten    --      4.8053               183.9038                37.6266

                     10                     11                     12
                      A                      A                      A
 Frequencies --    405.5217               447.2056               527.9658
 Red. masses --      3.0541                 5.0328                 2.1291
 Frc consts  --      0.2959                 0.5930                 0.3497
 IR Inten    --     13.2194                14.2163                 3.5229

                     13                     14                     15
                      A                      A                      A
 Frequencies --    573.4732               581.1280               598.2132
 Red. masses --      6.8538                 1.5782                 2.4633
 Frc consts  --      1.3280                 0.3140                 0.5194
 IR Inten    --      3.7742                31.0652                 8.6124

                     16                     17                     18
                      A                      A                      A
 Frequencies --    644.6205               704.8462               752.3623
 Red. masses --      3.8729                 2.8153                 3.2833
 Frc consts  --      0.9482                 0.8241                 1.0950
 IR Inten    --      7.1737                13.6389                15.7656

                     19                     20                     21
                      A                      A                      A
 Frequencies --    797.4891               832.6396               885.7678
 Red. masses --      3.8856                 2.2774                 2.9137
 Frc consts  --      1.4560                 0.9303                 1.3469
 IR Inten    --      0.9825                 6.3099                 7.8172

                     22                     23                     24
                      A                      A                      A
 Frequencies --    912.3060               938.9454               977.9650
 Red. masses --      2.4928                 1.8594                 2.6018
 Frc consts  --      1.2224                 0.9658                 1.4662
 IR Inten    --      4.5082                 5.2921                11.7320

                     25                     26                     27
                      A                      A                      A
 Frequencies --    992.1630              1032.9103              1060.0214
 Red. masses --      2.6373                 1.6467                 2.2173
 Frc consts  --      1.5296                 1.0351                 1.4679
 IR Inten    --      2.7852                 0.1546                 1.4820

                     28                     29                     30
                      A                      A                      A
 Frequencies --   1100.1897              1129.6434              1189.1825
 Red. masses --      1.9809                 2.6571                 1.3627
 Frc consts  --      1.4127                 1.9978                 1.1354
 IR Inten    --      3.0056                 5.2821                 2.5742

                     31                     32                     33
                      A                      A                      A
 Frequencies --   1215.8472              1249.4046              1293.7118
 Red. masses --      1.3356                 1.4160                 1.2307
 Frc consts  --      1.1633                 1.3023                 1.2136
 IR Inten    --      3.9271                 3.1090                 1.2459

                     34                     35                     36
                      A                      A                      A
 Frequencies --   1298.5129              1324.3036              1334.3498
 Red. masses --      1.9071                 1.2809                 1.8702
 Frc consts  --      1.8946                 1.3236                 1.9619
 IR Inten    --     22.9052                 0.9226                55.9228

                     37                     38                     39
                      A                      A                      A
 Frequencies --   1343.3242              1364.1706              1382.8602
 Red. masses --      1.4299                 1.3213                 2.8961
 Frc consts  --      1.5203                 1.4488                 3.2630
 IR Inten    --      2.4598                 1.2633               113.8626

                     40                     41                     42
                      A                      A                      A
 Frequencies --   1390.4616              1422.5143              1517.6325
 Red. masses --      1.6874                 1.4809                 1.0777
 Frc consts  --      1.9221                 1.7656                 1.4624
 IR Inten    --     20.4401                12.8620                 3.0186

                     43                     44                     45
                      A                      A                      A
 Frequencies --   1524.8142              1540.2449              1652.4722
 Red. masses --      1.0879                 1.1028                 1.2472
 Frc consts  --      1.4903                 1.5415                 2.0066
 IR Inten    --      4.3904                 3.5768               103.2902

                     46                     47                     48
                      A                      A                      A
 Frequencies --   1805.6032              2242.0356              3057.4604
 Red. masses --      8.7109                13.7935                 1.0710
 Frc consts  --     16.7323                40.8518                 5.8989
 IR Inten    --    281.8055               386.2500                10.0130

                     49                     50                     51
                      A                      A                      A
 Frequencies --   3063.4023              3073.3995              3079.9590
 Red. masses --      1.0656                 1.0784                 1.0636
 Frc consts  --      5.8916                 6.0014                 5.9448
 IR Inten    --     24.6230                18.0293                19.9872

                     52                     53                     54
                      A                      A                      A
 Frequencies --   3110.4091              3119.5436              3127.2145
 Red. masses --      1.0976                 1.1009                 1.1053
 Frc consts  --      6.2562                 6.3124                 6.3687
 IR Inten    --     19.1931                17.1833                31.7228

                     55                     56                     57
                      A                      A                      A
 Frequencies --   3159.7725              3588.9101              3710.8665
 Red. masses --      1.0888                 1.0458                 1.1036
 Frc consts  --      6.4050                 7.9366                 8.9538
 IR Inten    --     16.8000                22.4509                34.9812

 - Thermochemistry -
 -------------------
 Temperature   298.150 Kelvin.  Pressure   1.00000 Atm.
 Atom     1 has atomic number  6 and mass  12.00000

 Molecular mass:   154.08546 amu.
 Principal axes and moments of inertia in atomic units:
                           1         2         3
     Eigenvalues --  1287.829181667.738532138.12047
           X            0.99211  -0.12423  -0.01670
           Y            0.12417   0.99225  -0.00489
           Z            0.01718   0.00278   0.99985
 This molecule is an asymmetric top.
 Rotational symmetry number  1.
 Warning -- assumption of classical behavior for rotation
           may cause significant error
 Rotational temperatures (Kelvin)      0.06726     0.05193     0.04051
 Rotational constants (GHZ):           1.40138     1.08215     0.84408
 Zero-point vibrational energy     452896.3 (Joules/Mol)
                                  108.24481 (Kcal/Mol)
 Warning -- explicit consideration of  15 degrees of freedom as
           vibrations may cause significant error
 Vibrational temperatures:     71.98    85.85   108.38   200.65   245.44
          (Kelvin)            261.43   397.40   480.80   508.49   583.46
                              643.43   759.62   825.10   836.11   860.70
                              927.47  1014.12  1082.48  1147.41  1197.98
                             1274.42  1312.60  1350.93  1407.07  1427.50
                             1486.13  1525.13  1582.93  1625.30  1710.97
                             1749.33  1797.61  1861.36  1868.27  1905.38
                             1919.83  1932.74  1962.74  1989.63  2000.56
                             2046.68  2183.53  2193.87  2216.07  2377.54
                             2597.86  3225.79  4399.00  4407.55  4421.94
                             4431.37  4475.19  4488.33  4499.36  4546.21
                             5163.64  5339.11

 Zero-point correction=                           0.172499 (Hartree/Particle)
 Thermal correction to Energy=                    0.183072
 Thermal correction to Enthalpy=                  0.184016
 Thermal correction to Gibbs Free Energy=         0.135538
 Sum of electronic and zero-point Energies=           -528.699960
 Sum of electronic and thermal Energies=              -528.689388
 Sum of electronic and thermal Enthalpies=            -528.688444
 Sum of electronic and thermal Free Energies=         -528.736922

                     E (Thermal)             CV                S
                      KCal/Mol        Cal/Mol-Kelvin    Cal/Mol-Kelvin
 Total                  114.879             38.812            102.031
 Electronic               0.000              0.000              0.000
 Translational            0.889              2.981             41.007
 Rotational               0.889              2.981             29.908
 Vibrational            113.102             32.850             31.116
 Vibration     1          0.595              1.978              4.816
 Vibration     2          0.597              1.974              4.468
 Vibration     3          0.599              1.965              4.009
 Vibration     4          0.615              1.914              2.811
 Vibration     5          0.626              1.879              2.429
 Vibration     6          0.630              1.865              2.311
 Vibration     7          0.678              1.717              1.557
 Vibration     8          0.716              1.607              1.240
 Vibration     9          0.730              1.568              1.151
 Vibration    10          0.770              1.458              0.943
 Vibration    11          0.806              1.367              0.804
 Vibration    12          0.883              1.188              0.592
 Vibration    13          0.930              1.089              0.498
 Vibration    14          0.938              1.072              0.483
 Vibration    15          0.956              1.036              0.453

 Optimization completed.
    -- Stationary point found.
 Normal termination of Gaussian 16 at Tue Dec  8 20:57:12 2020.

 ----------------------------------------------------------------------
 # B3LYP/6-311++G(d,p) empiricaldispersion=gd3bj scf=xqc pop=npa geom=c
 heck
 ----------------------------------------------------------------------

 ---------------------------------------
 CID_150332180_JID_1695_Energie_neutraal
 ---------------------------------------
 Structure from the checkpoint file:  "JID_1695.chk"
 Charge =  0 Multiplicity = 1

 SCF Done:  E(RB3LYP) =  -529.029717534     A.U. after   16 cycles
 Normal termination of Gaussian 16 at Tue Dec  8 20:59:51 2020.

 ----------------------------------------------------------------------
 # B3LYP/6-311++G(d,p) empiricaldispersion=gd3bj scf=xqc pop=npa geom=c
 heck
 ----------------------------------------------------------------------

 -------------------------------------
 CID_150332180_JID_1695_Energie_kation
 -------------------------------------
 Structure from the checkpoint file:  "JID_1695.chk"
 Charge =  1 Multiplicity = 2

 SCF Done:  E(UB3LYP) =  -528.691916478     A.U. after   27 cycles
 Normal termination of Gaussian 16 at Tue Dec  8 21:05:42 2020.
 Gaussian 16:  ES64L-G16RevA.03 25-Dec-2016

 ----------------------------------------------------------------------
 # B3LYP/6-311++G(d,p) empiricaldispersion=gd3bj scf=xqc pop=npa geom=c
 heck
 ----------------------------------------------------------------------

 ------------------------------------
 CID_150332180_JID_1695_Energie_anion
 ------------------------------------
 Structure from the checkpoint file:  "JID_1695.chk"
 Charge = -1 Multiplicity = 2

                         Standard orientation:
 ---------------------------------------------------------------------
 Center     Atomic      Atomic             Coordinates (Angstroms)
 Number     Number       Type             X           Y           Z
 ---------------------------------------------------------------------
      1          6           0        1.972699   -1.309624    0.695569
      2          6           0        0.564012   -1.010101    1.233897
      3          6           0       -0.286074   -1.015373   -0.047472
      4          6           0        0.592736   -0.258733   -1.087750
      5          6           0        2.058538   -0.538512   -0.645175
      6          7           0        0.276699    1.194129   -1.173773
      7          7           0        0.461420    1.869952   -0.163689
      8          7           0        0.585085    2.600786    0.710302
      9          6           0       -1.730209   -0.521259   -0.021835
     10          8           0       -2.535043   -0.899175   -0.859871
     11          7           0       -2.068633    0.344601    0.981511
     12          1           0        2.070020   -2.386600    0.516116
     13          1           0        2.765049   -1.023618    1.393546
     14          1           0        0.216846   -1.741750    1.969226
     15          1           0        0.557951   -0.028154    1.722621
     16          1           0       -0.354360   -2.049694   -0.403605
     17          1           0        0.378682   -0.613300   -2.094532
     18          1           0        2.591680    0.409547   -0.523052
     19          1           0        2.596955   -1.104749   -1.410163
     20          1           0       -1.376848    0.805721    1.552888
     21          1           0       -2.977833    0.781330    0.912058
 ---------------------------------------------------------------------

 SCF Done:  E(UB3LYP) =  -529.021246489     A.U. after   33 cycles
 SCF Done:  E(UB3LYP) =  -529.021246489     a.u. after    1 cycles

 The electronic state is 2-A.
 Alpha  occ. eigenvalues --  -18.98160 -14.33361 -14.23455 -14.22851 -14.22501
 Alpha  occ. eigenvalues --  -10.16867 -10.10526 -10.07512 -10.06601 -10.06059
 Alpha  occ. eigenvalues --  -10.06014  -1.00308  -0.93206  -0.84746  -0.80138
 Alpha  occ. eigenvalues --   -0.73481  -0.62513  -0.62049  -0.52548  -0.48636
 Alpha  occ. eigenvalues --   -0.47411  -0.44478  -0.40627  -0.39593  -0.37797
 Alpha  occ. eigenvalues --   -0.35920  -0.35692  -0.32581  -0.31698  -0.31601
 Alpha  occ. eigenvalues --   -0.29780  -0.28107  -0.26422  -0.24445  -0.23513
 Alpha  occ. eigenvalues --   -0.23424  -0.22503  -0.17229  -0.17029  -0.14995
 Alpha  occ. eigenvalues --   -0.12596   0.04929
 Alpha virt. eigenvalues --    0.07275   0.07612   0.08847   0.09208   0.10571
 Alpha virt. eigenvalues --    0.11510   0.11654   0.12093   0.12260   0.13176
 Alpha virt. eigenvalues --    0.14122   0.15398   0.15920   0.17036   0.17828

  Beta  occ. eigenvalues --  -18.98156 -14.33099 -14.23102 -14.22829 -14.22539
  Beta  occ. eigenvalues --  -10.16863 -10.10446 -10.07500 -10.06586 -10.06027
  Beta  occ. eigenvalues --  -10.05989  -0.99797  -0.93197  -0.84483  -0.80103
  Beta  occ. eigenvalues --   -0.73408  -0.62425  -0.61926  -0.52426  -0.48531
  Beta  occ. eigenvalues --   -0.47331  -0.44426  -0.40324  -0.39293  -0.37585
  Beta  occ. eigenvalues --   -0.35645  -0.35080  -0.32488  -0.31552  -0.31000
  Beta  occ. eigenvalues --   -0.29747  -0.27972  -0.26299  -0.24380  -0.23451
  Beta  occ. eigenvalues --   -0.23324  -0.22449  -0.17165  -0.16363  -0.14981
  Beta  occ. eigenvalues --   -0.12490
  Beta virt. eigenvalues --    0.07585   0.08374   0.09123   0.09768   0.10412
  Beta virt. eigenvalues --    0.11081   0.11640   0.11992   0.12387   0.12672
  Beta virt. eigenvalues --    0.13506   0.14444   0.15517   0.15992   0.17165

 Mulliken charges and spin densities:
               1          2
     1  C    1.296712  -1.692123
     2  C   -0.277604  -0.145100
     3  C    0.582183  -0.451822
     4  C   -0.223896   0.571162
     5  C    0.212408  -0.886257
     6  N   -0.989943   0.470014
     7  N    0.822974  -0.085597
     8  N    0.045562  -0.277899
     9  C   -0.621132   0.407875
    10  O   -0.360248   0.010575
    11  N   -0.303804  -0.037958
    12  H   -0.320570   0.477269
    13  H   -0.187678   0.344383
    14  H   -0.507082   0.697602
    15  H    0.292715  -0.214101
    16  H    0.065472   0.170122
    17  H   -0.306891   0.596701
    18  H    0.033068   0.104674
    19  H   -0.407492   0.572209
    20  H    0.124979   0.102249
    21  H    0.030267   0.266022
 Sum of Mulliken charges =  -1.00000   1.00000

 Dipole moment (field-independent basis, Debye):
    X=             -0.9166    Y=              2.4504    Z=              1.9097  Tot=              3.2390
 Quadrupole moment (field-independent basis, Debye-Ang):
   XX=           -104.1172   YY=           -108.7557   ZZ=            -95.3246
   XY=              3.1829   XZ=             -3.1081   YZ=              0.4907

 Summary of Natural Population Analysis:

                                       Natural Population
                Natural  -----------------------------------------------
    Atom  No    Charge         Core      Valence    Rydberg      Total
 -----------------------------------------------------------------------
      C    1   -0.19062      0.99964     2.18225    0.00872     3.19062
      C    2   -0.19452      0.99962     2.18565    0.00925     3.19452
      C    3   -0.15745      0.99952     2.14583    0.01209     3.15745
      C    4   -0.00058      0.99955     1.98662    0.01441     3.00058
      C    5   -0.19934      0.99962     2.19067    0.00905     3.19934
      N    6   -0.19538      0.99969     2.68058    0.01511     3.69538
      N    7    0.13112      0.99969     2.35259    0.01659     3.36888
      N    8   -0.03467      0.99982     2.52164    0.01322     3.53467
      C    9    0.34788      0.99966     1.62814    0.02432     2.65212
      O   10   -0.32203      0.99988     3.31632    0.00583     4.32203
      N   11   -0.40335      0.99970     2.89670    0.00695     3.90335
      H   12    0.09970      0.00000     0.39722    0.00308     0.40030
      H   13    0.09948      0.00000     0.39950    0.00101     0.40052
      H   14    0.10569      0.00000     0.39284    0.00148     0.39431
      H   15    0.09330      0.00000     0.40483    0.00187     0.40670
      H   16    0.11577      0.00000     0.38250    0.00173     0.38423
      H   17    0.10666      0.00000     0.39165    0.00169     0.39334
      H   18    0.10179      0.00000     0.39710    0.00111     0.39821
      H   19    0.10653      0.00000     0.39171    0.00176     0.39347
      H   20    0.19652      0.00000     0.30142    0.00206     0.30348
      H   21    0.19347      0.00000     0.30423    0.00230     0.30653
 =======================================================================
   * Total *   -0.00000     10.99639    29.84998    0.15362    41.00000

 Normal termination of Gaussian 16 at Tue Dec  8 21:12:42 2020.
