 Gaussian 16, Revision A.03,

 -----------------------------------------------------------
 # opt freq B3LYP/6-31G(d) empiricaldispersion=gd3bj scf=xqc
 -----------------------------------------------------------

 -------------------------------
 CID_104058264_JID_1485_neutraal
 -------------------------------
 Symbolic Z-matrix:
 Charge =  0 Multiplicity = 1

 SCF Done:  E(RB3LYP) =  -537.741931628     A.U. after   15 cycles
 SCF Done:  E(RB3LYP) =  -537.745575162     A.U. after   13 cycles
 SCF Done:  E(RB3LYP) =  -537.745786881     A.U. after   13 cycles
 SCF Done:  E(RB3LYP) =  -537.745860247     A.U. after   13 cycles
 SCF Done:  E(RB3LYP) =  -537.746890350     A.U. after   12 cycles
 SCF Done:  E(RB3LYP) =  -537.746997187     A.U. after   12 cycles
 SCF Done:  E(RB3LYP) =  -537.747007911     A.U. after   12 cycles
 SCF Done:  E(RB3LYP) =  -537.747032724     A.U. after   11 cycles
 SCF Done:  E(RB3LYP) =  -537.747034682     A.U. after    9 cycles
 SCF Done:  E(RB3LYP) =  -537.747034900     A.U. after    8 cycles
 Optimization completed.
    -- Stationary point found.

 1\1\GINC-NODE112\FOpt\RB3LYP\6-31G(d)\C8H12O3\VSC10255\08-Dec-2020\0\\
 # opt freq B3LYP/6-31G(d) empiricaldispersion=gd3bj scf=xqc\\CID_10405
 8264_JID_1485_neutraal\\0,1\C,0.548040617,-0.124825941,0.0807413587\O,
 0.1993232455,-0.8024895015,1.2759088234\C,0.7301508271,-2.1141817983,1
 .332671714\C,0.174330418,-3.1259346325,0.3118181348\O,0.9644568634,-3.
 9257345428,-0.1840059658\C,-1.2552745937,-3.1945767945,-0.0070182031\C
 ,-2.1636382486,-2.362699791,0.559233088\O,-3.4943370909,-2.4136240047,
 0.3729790241\C,-3.9988801842,-3.548072986,-0.3628476666\C,-3.091425625

 Normal termination of Gaussian 16 at Tue Dec  8 20:07:06 2020.

 --------------------------------------------------------------------
 #N Geom=AllCheck Guess=TCheck SCRF=Check GenChk RB3LYP/6-31G(d) Freq
 --------------------------------------------------------------------

 Structure from the checkpoint file:  "JID_1485.chk"
 -------------------------------
 CID_104058264_JID_1485_neutraal
 -------------------------------
 Charge =  0 Multiplicity = 1

 SCF Done:  E(RB3LYP) =  -537.747034900     A.U. after    1 cycles

  Exact polarizability: 109.971   9.781  95.737  -0.447   1.746  68.435
 Approx polarizability: 136.960  28.351 175.564   2.145  10.513  99.889

                      1                      2                      3
                      A                      A                      A
 Frequencies --     59.4203                61.2972               101.4362
 Red. masses --      3.1710                 3.4988                 3.5629
 Frc consts  --      0.0066                 0.0077                 0.0216
 IR Inten    --      0.9455                 2.1974                 1.7703

                      4                      5                      6
                      A                      A                      A
 Frequencies --    129.3112               168.5957               197.7299
 Red. masses --      2.5638                 1.6475                 2.4786
 Frc consts  --      0.0253                 0.0276                 0.0571
 IR Inten    --      4.3095                 0.7752                 1.9966

                      7                      8                      9
                      A                      A                      A
 Frequencies --    260.1679               272.9282               291.9853
 Red. masses --      3.5224                 2.7164                 2.3840
 Frc consts  --      0.1405                 0.1192                 0.1198
 IR Inten    --     14.1270                 7.0510                 4.2582

                     10                     11                     12
                      A                      A                      A
 Frequencies --    364.7152               415.4213               458.1413
 Red. masses --      3.5913                 2.7210                 2.2885
 Frc consts  --      0.2815                 0.2767                 0.2830
 IR Inten    --      0.4799                 2.1634                 7.3063

                     13                     14                     15
                      A                      A                      A
 Frequencies --    512.7078               513.4851               556.2528
 Red. masses --      5.0579                 3.4012                 3.7207
 Frc consts  --      0.7834                 0.5284                 0.6783
 IR Inten    --      4.1340                 1.1548                17.5396

                     16                     17                     18
                      A                      A                      A
 Frequencies --    617.6894               689.9218               789.5789
 Red. masses --      4.6741                 4.1233                 2.2669
 Frc consts  --      1.0507                 1.1564                 0.8327
 IR Inten    --     18.9063                33.9561                 0.7538

                     19                     20                     21
                      A                      A                      A
 Frequencies --    870.9132               897.6263               935.2084
 Red. masses --      2.8112                 1.5019                 3.1098
 Frc consts  --      1.2563                 0.7130                 1.6025
 IR Inten    --      5.7925                 0.3039                19.6468

                     22                     23                     24
                      A                      A                      A
 Frequencies --    949.9871               979.6835               999.1250
 Red. masses --      2.8327                 1.7384                 2.8237
 Frc consts  --      1.5062                 0.9830                 1.6608
 IR Inten    --      9.4560                 8.8527                 8.8202

                     25                     26                     27
                      A                      A                      A
 Frequencies --   1029.5201              1052.5679              1077.8721
 Red. masses --      2.3345                 2.3833                 2.0850
 Frc consts  --      1.4578                 1.5557                 1.4272
 IR Inten    --     21.6369                12.9091                14.7280

                     28                     29                     30
                      A                      A                      A
 Frequencies --   1121.3830              1152.7035              1192.1904
 Red. masses --      1.7525                 3.3917                 1.2958
 Frc consts  --      1.2984                 2.6552                 1.0851
 IR Inten    --      4.0565                92.5533                 3.2116

                     31                     32                     33
                      A                      A                      A
 Frequencies --   1216.8309              1225.1127              1229.3377
 Red. masses --      1.6538                 1.4865                 1.6793
 Frc consts  --      1.4428                 1.3145                 1.4953
 IR Inten    --    129.0250                57.5343                71.8270

                     34                     35                     36
                      A                      A                      A
 Frequencies --   1269.9652              1299.3571              1314.3071
 Red. masses --      2.0771                 1.4623                 1.2252
 Frc consts  --      1.9738                 1.4546                 1.2470
 IR Inten    --    110.6244                90.9272                 6.3022

                     37                     38                     39
                      A                      A                      A
 Frequencies --   1347.3001              1367.8983              1387.0538
 Red. masses --      2.0175                 1.3318                 1.2999
 Frc consts  --      2.1577                 1.4682                 1.4735
 IR Inten    --     26.5383                46.0722                14.1099

                     40                     41                     42
                      A                      A                      A
 Frequencies --   1392.9244              1426.6762              1435.5391
 Red. masses --      1.4367                 1.4616                 1.9453
 Frc consts  --      1.6423                 1.7528                 2.3620
 IR Inten    --      1.0552                 5.2879                 6.2939

                     43                     44                     45
                      A                      A                      A
 Frequencies --   1493.1507              1506.8022              1510.4698
 Red. masses --      1.0938                 1.0902                 1.1253
 Frc consts  --      1.4368                 1.4584                 1.5127
 IR Inten    --      0.7743                 2.1576                 3.8531

                     46                     47                     48
                      A                      A                      A
 Frequencies --   1515.5285              1518.0448              1535.3512
 Red. masses --      1.1015                 1.0575                 1.0533
 Frc consts  --      1.4906                 1.4358                 1.4630
 IR Inten    --      2.2069                 3.3892                 3.7716

                     49                     50                     51
                      A                      A                      A
 Frequencies --   1535.6932              1678.3828              1738.5036
 Red. masses --      1.0983                 5.6696                11.1258
 Frc consts  --      1.5261                 9.4098                19.8123
 IR Inten    --      1.1619               315.7127               126.3243

                     52                     53                     54
                      A                      A                      A
 Frequencies --   3010.3682              3034.0546              3042.0337
 Red. masses --      1.0358                 1.0606                 1.0713
 Frc consts  --      5.5306                 5.7526                 5.8411
 IR Inten    --     45.8493                39.3978                15.7752

                     55                     56                     57
                      A                      A                      A
 Frequencies --   3047.5549              3059.1518              3063.6904
 Red. masses --      1.0705                 1.0601                 1.1048
 Frc consts  --      5.8577                 5.8454                 6.1100
 IR Inten    --     37.4340                27.5826                52.8707

                     58                     59                     60
                      A                      A                      A
 Frequencies --   3094.4429              3101.0999              3107.3129
 Red. masses --      1.1033                 1.0947                 1.0996
 Frc consts  --      6.2244                 6.2028                 6.2556
 IR Inten    --     18.7877                20.9592                31.9866

                     61                     62                     63
                      A                      A                      A
 Frequencies --   3136.3540              3145.3270              3251.0271
 Red. masses --      1.0993                 1.0990                 1.0938
 Frc consts  --      6.3713                 6.4056                 6.8110
 IR Inten    --     34.6369                26.3915                 1.8529

 - Thermochemistry -
 -------------------
 Temperature   298.150 Kelvin.  Pressure   1.00000 Atm.
 Atom     1 has atomic number  6 and mass  12.00000

 Molecular mass:   156.07864 amu.
 Principal axes and moments of inertia in atomic units:
                           1         2         3
     Eigenvalues --   994.119482390.029322977.62018
           X            0.99970  -0.02411   0.00402
           Y            0.02416   0.99961  -0.01420
           Z           -0.00367   0.01430   0.99989
 This molecule is an asymmetric top.
 Rotational symmetry number  1.
 Warning -- assumption of classical behavior for rotation
           may cause significant error
 Rotational temperatures (Kelvin)      0.08713     0.03624     0.02909
 Rotational constants (GHZ):           1.81542     0.75511     0.60610
 Zero-point vibrational energy     512936.1 (Joules/Mol)
                                  122.59466 (Kcal/Mol)
 Warning -- explicit consideration of  16 degrees of freedom as
           vibrations may cause significant error
 Vibrational temperatures:     85.49    88.19   145.94   186.05   242.57
          (Kelvin)            284.49   374.32   392.68   420.10   524.74
                              597.70   659.16   737.67   738.79   800.32
                              888.72   992.64  1136.03  1253.05  1291.48
                             1345.56  1366.82  1409.55  1437.52  1481.25
                             1514.41  1550.82  1613.42  1658.48  1715.30
                             1750.75  1762.66  1768.74  1827.20  1869.49
                             1890.99  1938.46  1968.10  1995.66  2004.11
                             2052.67  2065.42  2148.31  2167.95  2173.23
                             2180.51  2184.13  2209.03  2209.52  2414.82
                             2501.32  4331.25  4365.33  4376.81  4384.75
                             4401.44  4407.97  4452.21  4461.79  4470.73
                             4512.51  4525.42  4677.50

 Zero-point correction=                           0.195367 (Hartree/Particle)
 Thermal correction to Energy=                    0.206229
 Thermal correction to Enthalpy=                  0.207173
 Thermal correction to Gibbs Free Energy=         0.158243
 Sum of electronic and zero-point Energies=           -537.551668
 Sum of electronic and thermal Energies=              -537.540806
 Sum of electronic and thermal Enthalpies=            -537.539862
 Sum of electronic and thermal Free Energies=         -537.588792

                     E (Thermal)             CV                S
                      KCal/Mol        Cal/Mol-Kelvin    Cal/Mol-Kelvin
 Total                  129.411             39.700            102.983
 Electronic               0.000              0.000              0.000
 Translational            0.889              2.981             41.045
 Rotational               0.889              2.981             30.338
 Vibrational            127.633             33.739             31.600
 Vibration     1          0.597              1.974              4.476
 Vibration     2          0.597              1.973              4.415
 Vibration     3          0.604              1.948              3.427
 Vibration     4          0.612              1.924              2.956
 Vibration     5          0.625              1.881              2.451
 Vibration     6          0.637              1.843              2.154
 Vibration     7          0.668              1.746              1.661
 Vibration     8          0.676              1.723              1.578
 Vibration     9          0.687              1.689              1.462
 Vibration    10          0.738              1.545              1.102
 Vibration    11          0.779              1.437              0.908
 Vibration    12          0.816              1.343              0.772
 Vibration    13          0.868              1.222              0.627
 Vibration    14          0.869              1.220              0.625
 Vibration    15          0.912              1.126              0.531
 Vibration    16          0.977              0.995              0.420

                           ! Non-Optimized Parameters !

 1\1\GINC-NODE112\Freq\RB3LYP\6-31G(d)\C8H12O3\VSC10255\08-Dec-2020\0\\
 #N Geom=AllCheck Guess=TCheck SCRF=Check GenChk RB3LYP/6-31G(d) Freq\\
 CID_104058264_JID_1485_neutraal\\0,1\C,0.548040617,-0.124825941,0.0807
 413587\O,0.1993232455,-0.8024895015,1.2759088234\C,0.7301508271,-2.114
 1817983,1.332671714\C,0.174330418,-3.1259346325,0.3118181348\O,0.96445
 68634,-3.9257345428,-0.1840059658\C,-1.2552745937,-3.1945767945,-0.007
 0182031\C,-2.1636382486,-2.362699791,0.559233088\O,-3.4943370909,-2.41
 36240047,0.3729790241\C,-3.9988801842,-3.548072986,-0.3628476666\C,-3.

 Normal termination of Gaussian 16 at Tue Dec  8 20:11:47 2020.

 ----------------------------------------------------------------------
 # B3LYP/6-311++G(d,p) empiricaldispersion=gd3bj scf=xqc pop=npa geom=c
 heck
 ----------------------------------------------------------------------

 ---------------------------------------
 CID_104058264_JID_1485_Energie_neutraal
 ---------------------------------------
 Structure from the checkpoint file:  "JID_1485.chk"
 Charge =  0 Multiplicity = 1

 SCF Done:  E(RB3LYP) =  -537.903829140     A.U. after   15 cycles
 Normal termination of Gaussian 16 at Tue Dec  8 20:14:49 2020.

 ----------------------------------------------------------------------
 # B3LYP/6-311++G(d,p) empiricaldispersion=gd3bj scf=xqc pop=npa geom=c
 heck
 ----------------------------------------------------------------------

 -------------------------------------
 CID_104058264_JID_1485_Energie_kation
 -------------------------------------
 Structure from the checkpoint file:  "JID_1485.chk"
 Charge =  1 Multiplicity = 2

 SCF Done:  E(UB3LYP) =  -537.587705634     A.U. after   25 cycles
 Normal termination of Gaussian 16 at Tue Dec  8 20:20:39 2020.
 Gaussian 16:  ES64L-G16RevA.03 25-Dec-2016

 ------------------------------------
 CID_104058264_JID_1485_Energie_anion
 ------------------------------------
 Structure from the checkpoint file:  "JID_1485.chk"
 Charge = -1 Multiplicity = 2

                         Standard orientation:
 ---------------------------------------------------------------------
 Center     Atomic      Atomic             Coordinates (Angstroms)
 Number     Number       Type             X           Y           Z
 ---------------------------------------------------------------------
      1          6           0        2.631351   -1.077572    1.160954
      2          8           0        2.371819   -1.079705   -0.232565
      3          6           0        2.222338    0.225874   -0.760443
      4          6           0        0.990502    1.022058   -0.287797
      5          8           0        1.135364    2.224856   -0.082586
      6          6           0       -0.329624    0.396975   -0.158652
      7          6           0       -0.537993   -0.915562   -0.426260
      8          8           0       -1.728649   -1.539879   -0.401573
      9          6           0       -2.891852   -0.702296   -0.233065
     10          6           0       -2.641767    0.416795    0.768096
     11          6           0       -1.469154    1.280879    0.293588
     12          1           0        2.785027   -2.118064    1.456386
     13          1           0        1.788152   -0.662566    1.731347
     14          1           0        3.535683   -0.496379    1.395089
     15          1           0        3.096049    0.851707   -0.530433
     16          1           0        2.163059    0.104634   -1.848551
     17          1           0        0.264356   -1.600873   -0.671469
     18          1           0       -3.685609   -1.382255    0.083196
     19          1           0       -3.150780   -0.291136   -1.217660
     20          1           0       -3.555395    1.010414    0.883866
     21          1           0       -2.412907   -0.027084    1.744739
     22          1           0       -1.784000    1.945271   -0.522390
     23          1           0       -1.114706    1.941245    1.091146
 ---------------------------------------------------------------------

 SCF Done:  E(UB3LYP) =  -537.897636273     A.U. after   31 cycles

 The electronic state is 2-A.
 Alpha  occ. eigenvalues --  -19.02334 -19.01474 -18.93752 -10.10599 -10.09990
 Alpha  occ. eigenvalues --  -10.09072 -10.08361 -10.07669 -10.05068 -10.04036
 Alpha  occ. eigenvalues --  -10.02392  -0.94034  -0.92650  -0.87446  -0.67905
 Alpha  occ. eigenvalues --   -0.64938  -0.61643  -0.55239  -0.52529  -0.51478
 Alpha  occ. eigenvalues --   -0.43630  -0.40757  -0.38364  -0.37015  -0.36187
 Alpha  occ. eigenvalues --   -0.35941  -0.33773  -0.30708  -0.30447  -0.28546
 Alpha  occ. eigenvalues --   -0.28166  -0.27200  -0.26732  -0.25744  -0.22620
 Alpha  occ. eigenvalues --   -0.21336  -0.21105  -0.20645  -0.19000  -0.15696
 Alpha  occ. eigenvalues --   -0.09707  -0.09541   0.05240
 Alpha virt. eigenvalues --    0.07667   0.08214   0.09855   0.09950   0.10600
 Alpha virt. eigenvalues --    0.10973   0.11364   0.13043   0.13267   0.13458
 Alpha virt. eigenvalues --    0.14308   0.14890   0.16175   0.16882   0.17843

  Beta  occ. eigenvalues --  -19.02254 -19.01459 -18.93393 -10.10591 -10.09956
  Beta  occ. eigenvalues --  -10.09085 -10.08099 -10.07317 -10.05045 -10.04026
  Beta  occ. eigenvalues --  -10.02460  -0.93806  -0.92607  -0.86795  -0.67859
  Beta  occ. eigenvalues --   -0.64624  -0.61563  -0.55017  -0.52457  -0.51182
  Beta  occ. eigenvalues --   -0.43209  -0.40604  -0.38233  -0.36879  -0.35977
  Beta  occ. eigenvalues --   -0.35876  -0.33616  -0.30555  -0.30320  -0.28384
  Beta  occ. eigenvalues --   -0.27909  -0.26929  -0.26525  -0.25411  -0.22299
  Beta  occ. eigenvalues --   -0.21241  -0.20325  -0.19834  -0.18862  -0.15597
  Beta  occ. eigenvalues --   -0.09302  -0.08700
  Beta virt. eigenvalues --    0.07967   0.08560   0.09621   0.10367   0.10816
  Beta virt. eigenvalues --    0.10925   0.11657   0.11777   0.13109   0.13470
  Beta virt. eigenvalues --    0.13591   0.14357   0.14872   0.16132   0.16860

 Mulliken charges and spin densities:
               1          2
     1  C   -0.248057  -0.048828
     2  O   -0.128104   0.015312
     3  C   -0.205631  -0.390153
     4  C    0.208671  -0.189218
     5  O   -0.383488   0.135275
     6  C    0.689463   0.465989
     7  C   -0.241578  -0.529809
     8  O   -0.145457   0.068555
     9  C    0.467451  -0.835952
    10  C   -0.014863  -0.230653
    11  C   -0.613115   0.305322
    12  H    0.087612   0.054134
    13  H    0.123325   0.010635
    14  H    0.104437  -0.000163
    15  H    0.193474  -0.049050
    16  H   -0.125698   0.304787
    17  H    0.137876   0.051791
    18  H   -0.521475   0.699072
    19  H   -0.181775   0.342291
    20  H   -0.532764   0.686137
    21  H    0.133577  -0.004941
    22  H    0.027840   0.143979
    23  H    0.168279  -0.004511
 Sum of Mulliken charges =  -1.00000   1.00000

 Dipole moment (field-independent basis, Debye):
    X=              4.3427    Y=             -2.0266    Z=              2.4786  Tot=              5.3953
 Quadrupole moment (field-independent basis, Debye-Ang):
   XX=           -116.1871   YY=            -98.2554   ZZ=            -81.8806
   XY=             -4.3161   XZ=              2.7818   YZ=             -1.9006

 Summary of Natural Population Analysis:

                                       Natural Population
                Natural  -----------------------------------------------
    Atom  No    Charge         Core      Valence    Rydberg      Total
 -----------------------------------------------------------------------
      C    1   -0.09873      0.99962     2.09084    0.00828     3.09873
      O    2   -0.29999      0.99989     3.28960    0.01051     4.29999
      C    3   -0.04840      0.99956     2.03432    0.01453     3.04840
      C    4    0.27413      0.99960     1.70396    0.02231     2.72587
      O    5   -0.28180      0.99988     3.27594    0.00598     4.28180
      C    6   -0.14096      0.99948     2.13112    0.01036     3.14096
      C    7    0.17370      0.99941     1.81285    0.01404     2.82630
      O    8   -0.26785      0.99987     3.25791    0.01008     4.26785
      C    9   -0.00841      0.99957     1.99658    0.01227     3.00841
      C   10   -0.20503      0.99964     2.19694    0.00846     3.20503
      C   11   -0.19621      0.99960     2.18581    0.01080     3.19621
      H   12    0.08445      0.00000     0.41452    0.00103     0.41555
      H   13    0.08612      0.00000     0.41252    0.00136     0.41388
      H   14    0.07438      0.00000     0.42427    0.00136     0.42562
      H   15    0.08323      0.00000     0.41522    0.00154     0.41677
      H   16    0.09792      0.00000     0.40023    0.00185     0.40208
      H   17    0.09424      0.00000     0.40372    0.00204     0.40576
      H   18    0.08934      0.00000     0.40899    0.00167     0.41066
      H   19    0.08573      0.00000     0.41147    0.00280     0.41427
      H   20    0.10221      0.00000     0.39610    0.00169     0.39779
      H   21    0.09446      0.00000     0.40441    0.00113     0.40554
      H   22    0.10027      0.00000     0.39855    0.00118     0.39973
      H   23    0.10722      0.00000     0.39160    0.00119     0.39278
 =======================================================================
   * Total *   -0.00000     10.99612    30.85745    0.14643    42.00000

 Normal termination of Gaussian 16 at Tue Dec  8 20:29:28 2020.
