 Gaussian 16, Revision A.03,

 -----------------------------------------------------------
 # opt freq B3LYP/6-31G(d) empiricaldispersion=gd3bj scf=xqc
 -----------------------------------------------------------

 ------------------------------
 CID_21048564_JID_7097_neutraal
 ------------------------------
 Symbolic Z-matrix:
 Charge =  0 Multiplicity = 1

 SCF Done:  E(RB3LYP) =  -1107.77581565     A.U. after   15 cycles
 SCF Done:  E(RB3LYP) =  -1107.78929587     A.U. after   12 cycles
 SCF Done:  E(RB3LYP) =  -1107.79224988     A.U. after   14 cycles
 SCF Done:  E(RB3LYP) =  -1107.79413682     A.U. after   14 cycles
 SCF Done:  E(RB3LYP) =  -1107.79478442     A.U. after   13 cycles
 SCF Done:  E(RB3LYP) =  -1107.79500060     A.U. after   12 cycles
 SCF Done:  E(RB3LYP) =  -1107.79512351     A.U. after   11 cycles
 SCF Done:  E(RB3LYP) =  -1107.79514375     A.U. after   11 cycles
 SCF Done:  E(RB3LYP) =  -1107.79515011     A.U. after   10 cycles
 SCF Done:  E(RB3LYP) =  -1107.79515147     A.U. after    8 cycles
 SCF Done:  E(RB3LYP) =  -1107.79515172     A.U. after    8 cycles
 SCF Done:  E(RB3LYP) =  -1107.79515176     A.U. after    7 cycles
 Optimization completed.
    -- Stationary point found.
 Normal termination of Gaussian 16 at Fri Dec 11 11:50:03 2020.

 --------------------------------------------------------------------
 #N Geom=AllCheck Guess=TCheck SCRF=Check GenChk RB3LYP/6-31G(d) Freq
 --------------------------------------------------------------------

 Structure from the checkpoint file:  "JID_7097.chk"
 ------------------------------
 CID_21048564_JID_7097_neutraal
 ------------------------------
 Charge =  0 Multiplicity = 1

 SCF Done:  E(RB3LYP) =  -1107.79515176     A.U. after    1 cycles

  Exact polarizability: 250.528   0.653 162.038   2.076   8.053  96.624
 Approx polarizability: 358.726   8.238 283.138   4.152  17.637 161.127

                      1                      2                      3
                      A                      A                      A
 Frequencies --     33.1137                39.3423                64.2621
 Red. masses --      3.0461                 3.8697                 4.7444
 Frc consts  --      0.0020                 0.0035                 0.0115
 IR Inten    --      0.0473                 0.9354                 0.4423

                      4                      5                      6
                      A                      A                      A
 Frequencies --     82.0250               111.1667               174.2947
 Red. masses --      4.6965                 6.1741                 4.6701
 Frc consts  --      0.0186                 0.0450                 0.0836
 IR Inten    --      0.6370                 0.1112                 0.1615

                      7                      8                      9
                      A                      A                      A
 Frequencies --    184.2817               204.6244               213.3015
 Red. masses --      4.4302                 3.5388                 1.2955
 Frc consts  --      0.0886                 0.0873                 0.0347
 IR Inten    --      3.1557                 0.4795                 0.1838

                     10                     11                     12
                      A                      A                      A
 Frequencies --    246.9006               254.0984               267.4220
 Red. masses --      2.2819                 3.2508                 1.5503
 Frc consts  --      0.0820                 0.1237                 0.0653
 IR Inten    --      0.3781                 0.9935                 0.5299

                     13                     14                     15
                      A                      A                      A
 Frequencies --    272.3346               286.3970               301.5432
 Red. masses --      1.3551                 2.3651                 2.6667
 Frc consts  --      0.0592                 0.1143                 0.1429
 IR Inten    --      0.6016                 0.8814                 0.6552

                     16                     17                     18
                      A                      A                      A
 Frequencies --    360.9086               372.9022               410.9358
 Red. masses --      3.1916                 2.5642                 2.9648
 Frc consts  --      0.2449                 0.2101                 0.2950
 IR Inten    --      1.0959                 0.4932                 0.3510

                     19                     20                     21
                      A                      A                      A
 Frequencies --    440.6107               444.6569               462.7454
 Red. masses --      4.3621                 4.8576                 4.9642
 Frc consts  --      0.4989                 0.5659                 0.6263
 IR Inten    --      4.2197                 8.4849                 8.5983

                     22                     23                     24
                      A                      A                      A
 Frequencies --    483.3985               547.5236               558.3806
 Red. masses --      5.2171                 4.3083                 4.9815
 Frc consts  --      0.7183                 0.7610                 0.9151
 IR Inten    --     12.5930                11.4499                29.1535

                     25                     26                     27
                      A                      A                      A
 Frequencies --    619.3759               631.3519               638.3731
 Red. masses --      4.9444                 7.0382                 7.6962
 Frc consts  --      1.1176                 1.6529                 1.8479
 IR Inten    --      1.2395                 6.1027                 8.7495

                     28                     29                     30
                      A                      A                      A
 Frequencies --    683.3848               700.7034               722.3132
 Red. masses --      6.8443                 1.9715                 3.1635
 Frc consts  --      1.8833                 0.5703                 0.9725
 IR Inten    --      9.3914                14.6627                 7.5817

                     31                     32                     33
                      A                      A                      A
 Frequencies --    728.6106               782.5452               826.3950
 Red. masses --      7.6225                 1.8184                 4.2193
 Frc consts  --      2.3842                 0.6561                 1.6977
 IR Inten    --     36.0480                41.7018                 7.1153

                     34                     35                     36
                      A                      A                      A
 Frequencies --    858.7225               866.5503               891.3755
 Red. masses --      1.3044                 1.5341                 3.7436
 Frc consts  --      0.5667                 0.6787                 1.7525
 IR Inten    --      2.3417                 9.9209                 0.5896

                     37                     38                     39
                      A                      A                      A
 Frequencies --    944.1631               947.9161               958.2054
 Red. masses --      1.4046                 1.7849                 1.6742
 Frc consts  --      0.7377                 0.9449                 0.9057
 IR Inten    --      1.8558                 1.1001                 1.6927

                     40                     41                     42
                      A                      A                      A
 Frequencies --    978.9206               981.3772               990.6582
 Red. masses --      1.3531                 1.2007                 3.8307
 Frc consts  --      0.7640                 0.6813                 2.2150
 IR Inten    --      0.1930                 0.1151                 0.8420

                     43                     44                     45
                      A                      A                      A
 Frequencies --   1008.0819              1020.5804              1051.6208
 Red. masses --      1.2927                 5.9283                 1.6453
 Frc consts  --      0.7740                 3.6381                 1.0721
 IR Inten    --      0.0642                 3.5869                31.6840

                     46                     47                     48
                      A                      A                      A
 Frequencies --   1052.6645              1063.9861              1121.0187
 Red. masses --      1.4141                 1.9934                 1.6834
 Frc consts  --      0.9233                 1.3296                 1.2464
 IR Inten    --      0.1352                 7.4773                52.8805

                     49                     50                     51
                      A                      A                      A
 Frequencies --   1127.8706              1141.4952              1198.4969
 Red. masses --      2.4434                 7.1572                 1.0968
 Frc consts  --      1.8313                 5.4947                 0.9283
 IR Inten    --    115.2518               120.9266                 0.5468

                     52                     53                     54
                      A                      A                      A
 Frequencies --   1227.4208              1238.7739              1254.8000
 Red. masses --      1.1510                 2.6119                 2.6758
 Frc consts  --      1.0216                 2.3615                 2.4822
 IR Inten    --      8.5823                 1.5530                 3.5192

                     55                     56                     57
                      A                      A                      A
 Frequencies --   1271.1884              1287.5684              1327.5295
 Red. masses --      1.8402                 3.5495                17.5042
 Frc consts  --      1.7520                 3.4670                18.1752
 IR Inten    --     49.3976                 2.4423               171.7684

                     58                     59                     60
                      A                      A                      A
 Frequencies --   1345.5004              1362.0199              1381.4651
 Red. masses --      3.9523                 3.2582                 1.6169
 Frc consts  --      4.2157                 3.5612                 1.8181
 IR Inten    --      4.5303                46.0088                 1.5922

                     61                     62                     63
                      A                      A                      A
 Frequencies --   1426.6371              1432.1611              1459.9327
 Red. masses --      1.2024                 1.2326                 1.2246
 Frc consts  --      1.4419                 1.4896                 1.5379
 IR Inten    --      4.3327                 5.1881                 8.5083

                     64                     65                     66
                      A                      A                      A
 Frequencies --   1496.7197              1507.9327              1513.3713
 Red. masses --      2.2946                 1.0470                 1.0448
 Frc consts  --      3.0286                 1.4027                 1.4098
 IR Inten    --     12.6807                 0.0425                 0.0420

                     67                     68                     69
                      A                      A                      A
 Frequencies --   1516.0725              1530.3738              1533.8625
 Red. masses --      1.0465                 1.0496                 1.0516
 Frc consts  --      1.4172                 1.4484                 1.4578
 IR Inten    --      0.0725                 6.0353                 8.6617

                     70                     71                     72
                      A                      A                      A
 Frequencies --   1544.3967              1546.5733              1584.7987
 Red. masses --      1.9411                 1.1928                 7.3182
 Frc consts  --      2.7279                 1.6809                10.8293
 IR Inten    --     49.3767                 9.9386                85.7493

                     73                     74                     75
                      A                      A                      A
 Frequencies --   1633.7596              1662.6338              1694.8072
 Red. masses --      5.0274                 5.3235                 8.7002
 Frc consts  --      7.9063                 8.6705                14.7237
 IR Inten    --      6.7471                 5.3939               110.0431

                     76                     77                     78
                      A                      A                      A
 Frequencies --   3052.1301              3054.7100              3064.5914
 Red. masses --      1.0341                 1.0346                 1.0369
 Frc consts  --      5.6755                 5.6883                 5.7374
 IR Inten    --     18.1971                18.5357                21.4203

                     79                     80                     81
                      A                      A                      A
 Frequencies --   3120.5063              3124.2525              3128.8096
 Red. masses --      1.1026                 1.1018                 1.1034
 Frc consts  --      6.3257                 6.3363                 6.3639
 IR Inten    --      0.0502                60.7549                11.1020

                     82                     83                     84
                      A                      A                      A
 Frequencies --   3129.0776              3135.4315              3147.7002
 Red. masses --      1.1033                 1.1014                 1.1028
 Frc consts  --      6.3646                 6.3796                 6.4376
 IR Inten    --     11.2889                46.2262                17.4574

                     85                     86                     87
                      A                      A                      A
 Frequencies --   3191.3831              3200.2664              3209.2161
 Red. masses --      1.0855                 1.0886                 1.0928
 Frc consts  --      6.5141                 6.5687                 6.6309
 IR Inten    --      0.6438                 3.9165                20.8118

                     88                     89                     90
                      A                      A                      A
 Frequencies --   3217.4211              3230.1649              3239.3381
 Red. masses --      1.0966                 1.0946                 1.0931
 Frc consts  --      6.6880                 6.7288                 6.7578
 IR Inten    --     19.6099                 4.4740                 5.5904

 - Thermochemistry -
 -------------------
 Temperature   298.150 Kelvin.  Pressure   1.00000 Atm.
 Atom     1 has atomic number  6 and mass  12.00000

 Molecular mass:   249.08235 amu.
 Principal axes and moments of inertia in atomic units:
                           1         2         3
     Eigenvalues --  2213.731646761.972898142.47656
           X            0.99990   0.01418  -0.00054
           Y           -0.01417   0.99986   0.00886
           Z            0.00067  -0.00885   0.99996
 This molecule is an asymmetric top.
 Rotational symmetry number  1.
 Warning -- assumption of classical behavior for rotation
           may cause significant error
 Rotational temperatures (Kelvin)      0.03913     0.01281     0.01064
 Rotational constants (GHZ):           0.81525     0.26690     0.22165
 Zero-point vibrational energy     678158.4 (Joules/Mol)
                                  162.08374 (Kcal/Mol)
 Warning -- explicit consideration of  25 degrees of freedom as
           vibrations may cause significant error
 Vibrational temperatures:     47.64    56.60    92.46   118.02   159.94
          (Kelvin)            250.77   265.14   294.41   306.89   355.23
                              365.59   384.76   391.83   412.06   433.85
                              519.27   536.52   591.24   633.94   639.76
                              665.79   695.50   787.76   803.39   891.14
                              908.37   918.48   983.24  1008.16  1039.25
                             1048.31  1125.91  1189.00  1235.51  1246.77
                             1282.49  1358.44  1363.84  1378.64  1408.45
                             1411.98  1425.34  1450.41  1468.39  1513.05
                             1514.55  1530.84  1612.90  1622.75  1642.36
                             1724.37  1765.98  1782.32  1805.38  1828.96
                             1852.52  1910.02  1935.87  1959.64  1987.62
                             2052.61  2060.56  2100.52  2153.45  2169.58
                             2177.40  2181.29  2201.87  2206.89  2222.04
                             2225.17  2280.17  2350.62  2392.16  2438.45
                             4391.33  4395.05  4409.26  4489.71  4495.10
                             4501.66  4502.04  4511.19  4528.84  4591.69
                             4604.47  4617.35  4629.15  4647.49  4660.68

 Zero-point correction=                           0.258297 (Hartree/Particle)
 Thermal correction to Energy=                    0.274432
 Thermal correction to Enthalpy=                  0.275376
 Thermal correction to Gibbs Free Energy=         0.214330
 Sum of electronic and zero-point Energies=          -1107.536855
 Sum of electronic and thermal Energies=             -1107.520720
 Sum of electronic and thermal Enthalpies=           -1107.519776
 Sum of electronic and thermal Free Energies=        -1107.580822

                     E (Thermal)             CV                S
                      KCal/Mol        Cal/Mol-Kelvin    Cal/Mol-Kelvin
 Total                  172.209             62.285            128.483
 Electronic               0.000              0.000              0.000
 Translational            0.889              2.981             42.438
 Rotational               0.889              2.981             33.166
 Vibrational            170.431             56.324             52.878
 Vibration     1          0.594              1.983              5.634
 Vibration     2          0.594              1.981              5.292
 Vibration     3          0.597              1.971              4.322
 Vibration     4          0.600              1.961              3.842
 Vibration     5          0.607              1.940              3.248
 Vibration     6          0.627              1.874              2.389
 Vibration     7          0.631              1.861              2.285
 Vibration     8          0.640              1.833              2.091
 Vibration     9          0.644              1.821              2.015
 Vibration    10          0.661              1.768              1.753
 Vibration    11          0.665              1.756              1.702
 Vibration    12          0.673              1.733              1.613
 Vibration    13          0.675              1.724              1.581
 Vibration    14          0.684              1.699              1.495
 Vibration    15          0.694              1.671              1.408
 Vibration    16          0.735              1.553              1.118
 Vibration    17          0.744              1.528              1.068
 Vibration    18          0.775              1.446              0.923
 Vibration    19          0.801              1.382              0.825
 Vibration    20          0.804              1.373              0.812
 Vibration    21          0.820              1.333              0.758
 Vibration    22          0.840              1.287              0.701
 Vibration    23          0.903              1.145              0.549
 Vibration    24          0.914              1.121              0.527
 Vibration    25          0.979              0.991              0.418

 Optimization completed.
    -- Stationary point found.
 Normal termination of Gaussian 16 at Fri Dec 11 12:01:08 2020.

 ----------------------------------------------------------------------
 # B3LYP/6-311++G(d,p) empiricaldispersion=gd3bj scf=xqc pop=npa geom=c
 heck
 ----------------------------------------------------------------------

 --------------------------------------
 CID_21048564_JID_7097_Energie_neutraal
 --------------------------------------
 Structure from the checkpoint file:  "JID_7097.chk"
 Charge =  0 Multiplicity = 1

 SCF Done:  E(RB3LYP) =  -1108.00952244     A.U. after   17 cycles
 Normal termination of Gaussian 16 at Fri Dec 11 12:07:23 2020.

 ----------------------------------------------------------------------
 # B3LYP/6-311++G(d,p) empiricaldispersion=gd3bj scf=xqc pop=npa geom=c
 heck
 ----------------------------------------------------------------------

 ------------------------------------
 CID_21048564_JID_7097_Energie_kation
 ------------------------------------
 Structure from the checkpoint file:  "JID_7097.chk"
 Charge =  1 Multiplicity = 2

 SCF Done:  E(UB3LYP) =  -1107.68866793     A.U. after   27 cycles
 Normal termination of Gaussian 16 at Fri Dec 11 12:19:50 2020.
 Gaussian 16:  ES64L-G16RevA.03 25-Dec-2016

 ----------------------------------------------------------------------
 # B3LYP/6-311++G(d,p) empiricaldispersion=gd3bj scf=xqc pop=npa geom=c
 heck
 ----------------------------------------------------------------------

 -----------------------------------
 CID_21048564_JID_7097_Energie_anion
 -----------------------------------
 Structure from the checkpoint file:  "JID_7097.chk"
 Charge = -1 Multiplicity = 2

                         Standard orientation:
 ---------------------------------------------------------------------
 Center     Atomic      Atomic             Coordinates (Angstroms)
 Number     Number       Type             X           Y           Z
 ---------------------------------------------------------------------
      1          6           0       -3.274219   -1.765078   -1.100255
      2          6           0       -3.178095   -0.768430    0.076421
      3          6           0       -4.313340    0.259398   -0.020551
      4          6           0       -3.277263   -1.530805    1.416678
      5          6           0       -1.826617   -0.084107    0.013964
      6          7           0       -1.735165    1.200677   -0.098173
      7         16           0       -0.070272    1.624310   -0.138383
      8          8           0        0.269323    2.143056   -1.462984
      9          8           0        0.260198    2.397644    1.061157
     10          6           0        0.533532   -0.091083    0.028255
     11          6           0       -0.563260   -0.864537    0.087472
     12          6           0        1.952251   -0.405334    0.035763
     13          6           0        2.902743    0.574095    0.375423
     14          6           0        4.258256    0.257568    0.388529
     15          6           0        4.684111   -1.030364    0.062278
     16          6           0        3.746400   -2.009252   -0.280149
     17          6           0        2.391788   -1.700867   -0.295165
     18          1           0       -4.243397   -2.274416   -1.068290
     19          1           0       -2.493178   -2.531716   -1.057937
     20          1           0       -3.192226   -1.246035   -2.060842
     21          1           0       -5.279148   -0.255346    0.025873
     22          1           0       -4.261999    0.981934    0.798464
     23          1           0       -4.259629    0.818822   -0.958502
     24          1           0       -2.496422   -2.291903    1.519082
     25          1           0       -3.197535   -0.843098    2.264898
     26          1           0       -4.246601   -2.037342    1.476811
     27          1           0       -0.555918   -1.941442    0.199418
     28          1           0        2.575352    1.570702    0.649926
     29          1           0        4.983068    1.020492    0.655548
     30          1           0        5.742951   -1.271839    0.068861
     31          1           0        4.074531   -3.010217   -0.544099
     32          1           0        1.666765   -2.455123   -0.585245
 ---------------------------------------------------------------------

 SCF Done:  E(UB3LYP) =  -1108.06152137     A.U. after   22 cycles

 The electronic state is 2-A.
 Alpha  occ. eigenvalues --  -88.90241 -18.97039 -18.96991 -14.16377 -10.08451
 Alpha  occ. eigenvalues --  -10.08239 -10.06383 -10.06274 -10.06261 -10.06145
 Alpha  occ. eigenvalues --  -10.05747 -10.05404 -10.05345 -10.05280 -10.04994
 Alpha  occ. eigenvalues --  -10.04811 -10.03541  -7.96530  -5.92768  -5.92753
 Alpha  occ. eigenvalues --   -5.92635  -0.96809  -0.86071  -0.80153  -0.74181
 Alpha  occ. eigenvalues --   -0.71068  -0.67146  -0.63129  -0.61403  -0.58997
 Alpha  occ. eigenvalues --   -0.58303  -0.56184  -0.50178  -0.49348  -0.46713
 Alpha  occ. eigenvalues --   -0.43893  -0.41146  -0.39528  -0.36888  -0.34947
 Alpha  occ. eigenvalues --   -0.34189  -0.34132  -0.33454  -0.33103  -0.31895
 Alpha  occ. eigenvalues --   -0.30818  -0.30447  -0.29875  -0.29764  -0.28094
 Alpha  occ. eigenvalues --   -0.26797  -0.26132  -0.24860  -0.24480  -0.23566
 Alpha  occ. eigenvalues --   -0.23252  -0.22617  -0.22202  -0.20392  -0.19902
 Alpha  occ. eigenvalues --   -0.16812  -0.16143  -0.15666  -0.14227  -0.13552
 Alpha  occ. eigenvalues --   -0.10809   0.00503
 Alpha virt. eigenvalues --    0.07036   0.07802   0.09045   0.09523   0.09801
 Alpha virt. eigenvalues --    0.10026   0.10419   0.10786   0.11302   0.12006
 Alpha virt. eigenvalues --    0.12639   0.13194   0.13453   0.14296   0.14887

  Beta  occ. eigenvalues --  -88.90248 -18.96957 -18.96898 -14.16044 -10.08467
  Beta  occ. eigenvalues --  -10.08018 -10.06412 -10.06249 -10.06236 -10.06213
  Beta  occ. eigenvalues --  -10.05793 -10.05280 -10.05217 -10.05199 -10.04689
  Beta  occ. eigenvalues --  -10.04600 -10.03349  -7.96537  -5.92767  -5.92765
  Beta  occ. eigenvalues --   -5.92647  -0.96633  -0.85865  -0.79577  -0.73970
  Beta  occ. eigenvalues --   -0.70952  -0.66576  -0.62964  -0.61008  -0.58938
  Beta  occ. eigenvalues --   -0.58244  -0.55634  -0.49817  -0.49198  -0.46566
  Beta  occ. eigenvalues --   -0.43589  -0.40931  -0.39340  -0.36701  -0.34809
  Beta  occ. eigenvalues --   -0.34056  -0.33995  -0.33305  -0.33017  -0.31513
  Beta  occ. eigenvalues --   -0.30770  -0.30298  -0.29685  -0.29605  -0.27994
  Beta  occ. eigenvalues --   -0.26764  -0.25513  -0.24701  -0.24032  -0.23507
  Beta  occ. eigenvalues --   -0.23153  -0.22458  -0.21264  -0.19959  -0.19293
  Beta  occ. eigenvalues --   -0.16431  -0.15520  -0.14805  -0.13771  -0.13157
  Beta  occ. eigenvalues --   -0.09172
  Beta virt. eigenvalues --    0.06444   0.07007   0.07782   0.09015   0.09572
  Beta virt. eigenvalues --    0.09776   0.10326   0.10401   0.11275   0.11943
  Beta virt. eigenvalues --    0.12088   0.12630   0.13305   0.13481   0.14293

 Mulliken charges and spin densities:
               1          2
     1  C   -0.635827  -0.003536
     2  C    0.913730  -0.047543
     3  C   -0.661468   0.003608
     4  C   -0.595224  -0.002755
     5  C   -0.812801   0.088982
     6  N   -0.118037   0.169477
     7  S    0.779594   0.058641
     8  O   -0.152316   0.005986
     9  O   -0.185484   0.012943
    10  C   -0.243702   0.235317
    11  C   -0.481961   0.195965
    12  C    1.605707  -0.020908
    13  C   -0.119702   0.104466
    14  C   -0.506665  -0.031846
    15  C   -0.272830   0.147616
    16  C   -0.509689  -0.055484
    17  C   -0.983666   0.120355
    18  H    0.130644   0.013970
    19  H    0.128688   0.009294
    20  H    0.160763   0.001964
    21  H    0.116128  -0.000397
    22  H    0.167935  -0.000534
    23  H    0.165543  -0.000884
    24  H    0.125546   0.008732
    25  H    0.158302   0.002519
    26  H    0.125346   0.014509
    27  H    0.071222  -0.015283
    28  H    0.162966  -0.002700
    29  H    0.139916   0.001883
    30  H    0.105846  -0.010881
    31  H    0.133914   0.003708
    32  H    0.087583  -0.007184
 Sum of Mulliken charges =  -1.00000   1.00000

 Dipole moment (field-independent basis, Debye):
    X=             -1.8176    Y=             -5.7650    Z=              0.5649  Tot=              6.0711
 Quadrupole moment (field-independent basis, Debye-Ang):
   XX=           -137.6503   YY=           -132.3106   ZZ=           -125.5502
   XY=              4.1982   XZ=              0.3835   YZ=              2.4522

 Summary of Natural Population Analysis:

                                       Natural Population
                Natural  -----------------------------------------------
    Atom  No    Charge         Core      Valence    Rydberg      Total
 -----------------------------------------------------------------------
      C    1   -0.27567      0.99964     2.27075    0.00527     3.27567
      C    2   -0.06396      0.99954     2.05521    0.00921     3.06396
      C    3   -0.28270      0.99964     2.27646    0.00659     3.28270
      C    4   -0.27571      0.99964     2.27079    0.00528     3.27571
      C    5    0.18055      0.99956     1.80121    0.01868     2.81945
      N    6   -0.30490      0.99964     2.79211    0.01315     3.80490
      S    7    1.07473      4.99924     1.82476    0.10128     6.92527
      O    8   -0.45575      0.99990     3.45013    0.00573     4.45575
      O    9   -0.45960      0.99990     3.45383    0.00587     4.45960
      C   10   -0.02086      0.99937     2.00611    0.01538     3.02086
      C   11   -0.10149      0.99943     2.09396    0.00811     3.10149
      C   12   -0.04609      0.99938     2.03578    0.01093     3.04609
      C   13   -0.05828      0.99946     2.04995    0.00887     3.05828
      C   14   -0.12176      0.99959     2.11258    0.00959     3.12176
      C   15   -0.07306      0.99958     2.06415    0.00933     3.07306
      C   16   -0.12892      0.99959     2.11968    0.00965     3.12892
      C   17   -0.05378      0.99945     2.04612    0.00822     3.05378
      H   18    0.09222      0.00000     0.40693    0.00084     0.40778
      H   19    0.09967      0.00000     0.39955    0.00078     0.40033
      H   20    0.10247      0.00000     0.39679    0.00073     0.39753
      H   21    0.08837      0.00000     0.41079    0.00083     0.41163
      H   22    0.10651      0.00000     0.39265    0.00084     0.39349
      H   23    0.10636      0.00000     0.39280    0.00085     0.39364
      H   24    0.09987      0.00000     0.39936    0.00078     0.40013
      H   25    0.10248      0.00000     0.39679    0.00073     0.39752
      H   26    0.09224      0.00000     0.40691    0.00085     0.40776
      H   27    0.09640      0.00000     0.40221    0.00139     0.40360
      H   28    0.10892      0.00000     0.38900    0.00208     0.39108
      H   29    0.09440      0.00000     0.40455    0.00105     0.40560
      H   30    0.08983      0.00000     0.40911    0.00106     0.41017
      H   31    0.09304      0.00000     0.40587    0.00109     0.40696
      H   32    0.09452      0.00000     0.40361    0.00187     0.40548
 =======================================================================
   * Total *    0.00002     20.99254    44.74052    0.26692    65.99998

 Normal termination of Gaussian 16 at Fri Dec 11 12:29:23 2020.
