 Gaussian 16, Revision A.03,

 -----------------------------------------------------------
 # opt freq B3LYP/6-31G(d) empiricaldispersion=gd3bj scf=xqc
 -----------------------------------------------------------

 -------------------------------
 CID_105453717_JID_5284_neutraal
 -------------------------------
 Symbolic Z-matrix:
 Charge =  0 Multiplicity = 1

 SCF Done:  E(RB3LYP) =  -630.595816647     A.U. after   15 cycles
 SCF Done:  E(RB3LYP) =  -630.605958920     A.U. after   13 cycles
 SCF Done:  E(RB3LYP) =  -630.607799829     A.U. after   12 cycles
 SCF Done:  E(RB3LYP) =  -630.608681083     A.U. after   12 cycles
 SCF Done:  E(RB3LYP) =  -630.609267363     A.U. after   12 cycles
 SCF Done:  E(RB3LYP) =  -630.609439968     A.U. after   11 cycles
 SCF Done:  E(RB3LYP) =  -630.609478367     A.U. after   10 cycles
 SCF Done:  E(RB3LYP) =  -630.609486286     A.U. after    9 cycles
 SCF Done:  E(RB3LYP) =  -630.609492173     A.U. after   10 cycles
 SCF Done:  E(RB3LYP) =  -630.609494864     A.U. after    9 cycles
 SCF Done:  E(RB3LYP) =  -630.609501078     A.U. after   10 cycles
 SCF Done:  E(RB3LYP) =  -630.609502476     A.U. after   10 cycles
 SCF Done:  E(RB3LYP) =  -630.609502817     A.U. after    8 cycles
 SCF Done:  E(RB3LYP) =  -630.609502837     A.U. after    8 cycles
 SCF Done:  E(RB3LYP) =  -630.609502838     A.U. after    7 cycles
 Optimization completed.
    -- Stationary point found.
 Normal termination of Gaussian 16 at Thu Dec 10 15:22:29 2020.

 --------------------------------------------------------------------
 #N Geom=AllCheck Guess=TCheck SCRF=Check GenChk RB3LYP/6-31G(d) Freq
 --------------------------------------------------------------------

 Structure from the checkpoint file:  "JID_5284.chk"
 -------------------------------
 CID_105453717_JID_5284_neutraal
 -------------------------------
 Charge =  0 Multiplicity = 1

 SCF Done:  E(RB3LYP) =  -630.609502838     A.U. after    1 cycles

  Exact polarizability: 195.752   0.109 149.025  -5.699   4.546  79.078
 Approx polarizability: 280.422  -0.371 272.061 -13.518  16.844 121.611

                      1                      2                      3
                      A                      A                      A
 Frequencies --     17.2017                34.7478                79.0648
 Red. masses --      2.8969                 3.2211                 3.5386
 Frc consts  --      0.0005                 0.0023                 0.0130
 IR Inten    --      0.2588                 0.5552                 0.0353

                      4                      5                      6
                      A                      A                      A
 Frequencies --    139.9732               183.3288               219.2793
 Red. masses --      3.9076                 4.2956                 4.1437
 Frc consts  --      0.0451                 0.0851                 0.1174
 IR Inten    --      0.7575                 0.5186                 3.2507

                      7                      8                      9
                      A                      A                      A
 Frequencies --    245.5713               266.8207               306.7825
 Red. masses --      2.3577                 3.3174                 2.1765
 Frc consts  --      0.0838                 0.1392                 0.1207
 IR Inten    --      0.7876                 8.8731                 0.7918

                     10                     11                     12
                      A                      A                      A
 Frequencies --    327.6767               334.9208               418.9646
 Red. masses --      1.1407                 3.5854                 4.8377
 Frc consts  --      0.0722                 0.2370                 0.5003
 IR Inten    --     49.3130                 4.9401                 1.1015

                     13                     14                     15
                      A                      A                      A
 Frequencies --    496.6300               532.2255               540.9385
 Red. masses --      5.0669                 2.0340                 4.0536
 Frc consts  --      0.7363                 0.3395                 0.6989
 IR Inten    --      9.1694                 2.7756                 7.3456

                     16                     17                     18
                      A                      A                      A
 Frequencies --    544.8893               589.9995               605.5467
 Red. masses --      4.3874                 3.6641                 1.4918
 Frc consts  --      0.7675                 0.7515                 0.3223
 IR Inten    --      3.3698                 2.8766                32.2199

                     19                     20                     21
                      A                      A                      A
 Frequencies --    614.7848               641.0539               684.2640
 Red. masses --      3.1102                 2.6003                 3.0628
 Frc consts  --      0.6926                 0.6296                 0.8449
 IR Inten    --     36.4605                 0.1865                17.6973

                     22                     23                     24
                      A                      A                      A
 Frequencies --    698.5798               719.4258               739.2177
 Red. masses --      3.6647                 3.3750                 1.5124
 Frc consts  --      1.0537                 1.0292                 0.4869
 IR Inten    --      9.4257                38.7723               129.7734

                     25                     26                     27
                      A                      A                      A
 Frequencies --    758.4684               818.6868               842.1114
 Red. masses --      1.5908                 4.2022                 1.7214
 Frc consts  --      0.5392                 1.6594                 0.7192
 IR Inten    --     70.9350                55.9432                 1.7390

                     28                     29                     30
                      A                      A                      A
 Frequencies --    848.9725               872.3133               881.8516
 Red. masses --      1.5038                 2.2396                 4.0005
 Frc consts  --      0.6386                 1.0041                 1.8330
 IR Inten    --      7.2884                 1.8114                 8.2277

                     31                     32                     33
                      A                      A                      A
 Frequencies --    903.1700               918.0975               926.7930
 Red. masses --      3.7090                 2.4619                 1.9916
 Frc consts  --      1.7826                 1.2226                 1.0079
 IR Inten    --      7.0560                 1.0528                 1.2791

                     34                     35                     36
                      A                      A                      A
 Frequencies --    957.3848               958.0106              1037.3186
 Red. masses --      1.4607                 1.2550                 1.7586
 Frc consts  --      0.7888                 0.6786                 1.1149
 IR Inten    --      2.4945                 0.3172                 1.5257

                     37                     38                     39
                      A                      A                      A
 Frequencies --   1042.3229              1047.9340              1087.7388
 Red. masses --      2.1646                 2.0632                 2.9691
 Frc consts  --      1.3856                 1.3350                 2.0698
 IR Inten    --     14.7084                 7.0057                18.8100

                     40                     41                     42
                      A                      A                      A
 Frequencies --   1088.9247              1117.2918              1149.3173
 Red. masses --      2.0584                 2.0463                 1.5974
 Frc consts  --      1.4380                 1.5051                 1.2432
 IR Inten    --      2.4572                 4.2293                 2.5676

                     43                     44                     45
                      A                      A                      A
 Frequencies --   1167.1883              1190.7852              1195.9688
 Red. masses --      1.5679                 1.4357                 1.7014
 Frc consts  --      1.2585                 1.1994                 1.4338
 IR Inten    --     34.3026                 1.5824                 6.4344

                     46                     47                     48
                      A                      A                      A
 Frequencies --   1205.2655              1248.1045              1270.9991
 Red. masses --      2.0515                 1.3306                 1.3640
 Frc consts  --      1.7558                 1.2212                 1.2982
 IR Inten    --     11.7819                 3.1529                 0.4334

                     49                     50                     51
                      A                      A                      A
 Frequencies --   1306.9544              1321.7391              1324.2621
 Red. masses --      2.3058                 1.9221                 1.3090
 Frc consts  --      2.3206                 1.9784                 1.3525
 IR Inten    --     28.2163                 7.3872                 1.6007

                     52                     53                     54
                      A                      A                      A
 Frequencies --   1338.6137              1343.4969              1361.8989
 Red. masses --      1.3129                 1.4306                 1.2686
 Frc consts  --      1.3861                 1.5214                 1.3863
 IR Inten    --      2.4975                 1.8444                 1.8891

                     55                     56                     57
                      A                      A                      A
 Frequencies --   1367.9559              1370.7545              1396.7224
 Red. masses --      1.4432                 1.4967                 2.6281
 Frc consts  --      1.5911                 1.6569                 3.0207
 IR Inten    --      5.1550                 0.1003                19.1957

                     58                     59                     60
                      A                      A                      A
 Frequencies --   1429.9999              1442.9899              1491.5712
 Red. masses --      5.9901                 2.5736                 3.2457
 Frc consts  --      7.2170                 3.1573                 4.2545
 IR Inten    --     22.2182                11.7246                 2.9715

                     61                     62                     63
                      A                      A                      A
 Frequencies --   1517.8704              1520.9758              1528.9621
 Red. masses --      1.0907                 1.0933                 1.0917
 Frc consts  --      1.4806                 1.4902                 1.5037
 IR Inten    --      1.4729                 3.4796                 5.2947

                     64                     65                     66
                      A                      A                      A
 Frequencies --   1545.9222              1551.2384              1580.8680
 Red. masses --      1.1287                 3.1660                 3.9481
 Frc consts  --      1.5893                 4.4887                 5.8134
 IR Inten    --      1.6690                29.9960                 9.8207

                     67                     68                     69
                      A                      A                      A
 Frequencies --   1618.1000              1680.5053              1697.2016
 Red. masses --      5.4394                 2.8322                 1.5211
 Frc consts  --      8.3909                 4.7125                 2.5816
 IR Inten    --     68.2270                47.2347                67.9103

                     70                     71                     72
                      A                      A                      A
 Frequencies --   3029.1307              3048.5025              3060.2605
 Red. masses --      1.0713                 1.0657                 1.0609
 Frc consts  --      5.7915                 5.8352                 5.8540
 IR Inten    --     21.6957                32.0579                33.6526

                     73                     74                     75
                      A                      A                      A
 Frequencies --   3065.9074              3090.0045              3103.2118
 Red. masses --      1.0656                 1.0929                 1.0942
 Frc consts  --      5.9015                 6.1484                 6.2084
 IR Inten    --     18.2047                16.2035                 4.7049

                     76                     77                     78
                      A                      A                      A
 Frequencies --   3104.5762              3109.7170              3116.5548
 Red. masses --      1.0931                 1.1024                 1.1028
 Frc consts  --      6.2072                 6.2812                 6.3110
 IR Inten    --     39.2790                29.8510                65.7005

                     79                     80                     81
                      A                      A                      A
 Frequencies --   3171.2077              3191.7312              3222.3306
 Red. masses --      1.0875                 1.0905                 1.0943
 Frc consts  --      6.4437                 6.5454                 6.6945
 IR Inten    --     19.9038                25.0513                16.6708

                     82                     83                     84
                      A                      A                      A
 Frequencies --   3522.3681              3617.3685              3651.2025
 Red. masses --      1.0481                 1.0963                 1.0803
 Frc consts  --      7.6618                 8.4524                 8.4851
 IR Inten    --      1.8781                 6.5167                67.0328

 - Thermochemistry -
 -------------------
 Temperature   298.150 Kelvin.  Pressure   1.00000 Atm.
 Atom     1 has atomic number  6 and mass  12.00000

 Molecular mass:   201.12660 amu.
 Principal axes and moments of inertia in atomic units:
                           1         2         3
     Eigenvalues --  1412.031964432.085145436.21879
           X            0.99999   0.00482   0.00005
           Y           -0.00482   0.99994  -0.00952
           Z           -0.00010   0.00952   0.99995
 This molecule is an asymmetric top.
 Rotational symmetry number  1.
 Warning -- assumption of classical behavior for rotation
           may cause significant error
 Rotational temperatures (Kelvin)      0.06134     0.01954     0.01593
 Rotational constants (GHZ):           1.27812     0.40720     0.33198
 Zero-point vibrational energy     678040.9 (Joules/Mol)
                                  162.05566 (Kcal/Mol)
 Warning -- explicit consideration of  19 degrees of freedom as
           vibrations may cause significant error
 Vibrational temperatures:     24.75    49.99   113.76   201.39   263.77
          (Kelvin)            315.49   353.32   383.90   441.39   471.45
                              481.88   602.80   714.54   765.75   778.29
                              783.97   848.88   871.25   884.54   922.33
                              984.50  1005.10  1035.09  1063.57  1091.27
                             1177.91  1211.61  1221.48  1255.06  1268.79
                             1299.46  1320.94  1333.45  1377.46  1378.36
                             1492.47  1499.67  1507.74  1565.01  1566.72
                             1607.53  1653.61  1679.32  1713.27  1720.73
                             1734.11  1795.74  1828.68  1880.42  1901.69
                             1905.32  1925.97  1932.99  1959.47  1968.18
                             1972.21  2009.57  2057.45  2076.14  2146.04
                             2183.88  2188.34  2199.84  2224.24  2231.89
                             2274.52  2328.08  2417.87  2441.89  4358.24
                             4386.12  4403.03  4411.16  4445.83  4464.83
                             4466.79  4474.19  4484.03  4562.66  4592.19
                             4636.21  5067.90  5204.59  5253.27

 Zero-point correction=                           0.258252 (Hartree/Particle)
 Thermal correction to Energy=                    0.270775
 Thermal correction to Enthalpy=                  0.271719
 Thermal correction to Gibbs Free Energy=         0.217880
 Sum of electronic and zero-point Energies=           -630.351251
 Sum of electronic and thermal Energies=              -630.338728
 Sum of electronic and thermal Enthalpies=            -630.337784
 Sum of electronic and thermal Free Energies=         -630.391622

                     E (Thermal)             CV                S
                      KCal/Mol        Cal/Mol-Kelvin    Cal/Mol-Kelvin
 Total                  169.914             50.350            113.313
 Electronic               0.000              0.000              0.000
 Translational            0.889              2.981             41.801
 Rotational               0.889              2.981             31.898
 Vibrational            168.136             44.389             39.614
 Vibration     1          0.593              1.986              6.934
 Vibration     2          0.594              1.983              5.538
 Vibration     3          0.600              1.963              3.914
 Vibration     4          0.615              1.913              2.804
 Vibration     5          0.631              1.863              2.294
 Vibration     6          0.647              1.812              1.965
 Vibration     7          0.660              1.770              1.762
 Vibration     8          0.672              1.734              1.617
 Vibration     9          0.697              1.661              1.380
 Vibration    10          0.711              1.620              1.272
 Vibration    11          0.716              1.606              1.236
 Vibration    12          0.782              1.429              0.895
 Vibration    13          0.852              1.257              0.667
 Vibration    14          0.887              1.179              0.582
 Vibration    15          0.896              1.160              0.563
 Vibration    16          0.900              1.151              0.555
 Vibration    17          0.947              1.053              0.467
 Vibration    18          0.964              1.020              0.440
 Vibration    19          0.974              1.001              0.425

 Optimization completed.
    -- Stationary point found.
 Normal termination of Gaussian 16 at Thu Dec 10 15:31:22 2020.

 ----------------------------------------------------------------------
 # B3LYP/6-311++G(d,p) empiricaldispersion=gd3bj scf=xqc pop=npa geom=c
 heck
 ----------------------------------------------------------------------

 ---------------------------------------
 CID_105453717_JID_5284_Energie_neutraal
 ---------------------------------------
 Structure from the checkpoint file:  "JID_5284.chk"
 Charge =  0 Multiplicity = 1

 SCF Done:  E(RB3LYP) =  -630.780524051     A.U. after   14 cycles
 Normal termination of Gaussian 16 at Thu Dec 10 15:34:36 2020.

 ----------------------------------------------------------------------
 # B3LYP/6-311++G(d,p) empiricaldispersion=gd3bj scf=xqc pop=npa geom=c
 heck
 ----------------------------------------------------------------------

 -------------------------------------
 CID_105453717_JID_5284_Energie_kation
 -------------------------------------
 Structure from the checkpoint file:  "JID_5284.chk"
 Charge =  1 Multiplicity = 2

 SCF Done:  E(UB3LYP) =  -630.527043926     A.U. after   20 cycles
 Normal termination of Gaussian 16 at Thu Dec 10 15:41:00 2020.
 Gaussian 16:  ES64L-G16RevA.03 25-Dec-2016

 ----------------------------------------------------------------------
 # B3LYP/6-311++G(d,p) empiricaldispersion=gd3bj scf=xqc pop=npa geom=c
 heck
 ----------------------------------------------------------------------

 ------------------------------------
 CID_105453717_JID_5284_Energie_anion
 ------------------------------------
 Structure from the checkpoint file:  "JID_5284.chk"
 Charge = -1 Multiplicity = 2

                         Standard orientation:
 ---------------------------------------------------------------------
 Center     Atomic      Atomic             Coordinates (Angstroms)
 Number     Number       Type             X           Y           Z
 ---------------------------------------------------------------------
      1          6           0       -3.700499    0.640856   -0.808565
      2          6           0       -3.750230   -0.615046    0.072169
      3          6           0       -2.701544   -0.312322    1.154419
      4          6           0       -1.555382    0.456416    0.424372
      5          6           0       -2.193793    0.929124   -0.931372
      6          6           0       -0.307498   -0.346744    0.211729
      7          6           0        1.040903    0.020252    0.091307
      8          6           0        1.746864   -1.214807   -0.127316
      9          7           0        0.902016   -2.264698   -0.160605
     10          7           0       -0.307894   -1.692832    0.039286
     11          6           0        3.160877   -1.232446   -0.253098
     12          6           0        3.814583   -0.027668   -0.161766
     13          6           0        3.124954    1.204825    0.025160
     14          6           0        1.749467    1.257121    0.147960
     15          7           0        1.054141    2.457092    0.375783
     16          1           0       -4.206777    1.467967   -0.294012
     17          1           0       -4.186286    0.511997   -1.781153
     18          1           0       -4.743031   -0.820012    0.485323
     19          1           0       -3.455272   -1.493077   -0.520204
     20          1           0       -2.344060   -1.198805    1.687228
     21          1           0       -3.144905    0.346040    1.909616
     22          1           0       -1.269442    1.325139    1.022798
     23          1           0       -1.767687    0.344600   -1.753773
     24          1           0       -1.980020    1.982741   -1.143767
     25          1           0       -1.116714   -2.296415    0.070604
     26          1           0        3.686722   -2.168172   -0.407521
     27          1           0        4.897358    0.002754   -0.250058
     28          1           0        3.696383    2.129519    0.061196
     29          1           0        0.194670    2.532943   -0.157621
     30          1           0        1.629009    3.278488    0.220092
 ---------------------------------------------------------------------

 SCF Done:  E(UB3LYP) =  -630.772156341     A.U. after   33 cycles
 SCF Done:  E(UB3LYP) =  -630.772156341     a.u. after    1 cycles

 The electronic state is 2-A.
 Alpha  occ. eigenvalues --  -14.28819 -14.21970 -14.21376 -10.11314 -10.11274
 Alpha  occ. eigenvalues --  -10.09084 -10.08860 -10.07360 -10.07294 -10.07062
 Alpha  occ. eigenvalues --  -10.06880 -10.06815 -10.06646 -10.06115 -10.05892
 Alpha  occ. eigenvalues --   -0.94415  -0.81552  -0.75594  -0.73765  -0.70565
 Alpha  occ. eigenvalues --   -0.67087  -0.62790  -0.61555  -0.60716  -0.55146
 Alpha  occ. eigenvalues --   -0.50883  -0.49318  -0.47856  -0.46080  -0.42756
 Alpha  occ. eigenvalues --   -0.40608  -0.39687  -0.39211  -0.37803  -0.36128
 Alpha  occ. eigenvalues --   -0.35208  -0.34432  -0.32250  -0.31901  -0.31527
 Alpha  occ. eigenvalues --   -0.27580  -0.26974  -0.26504  -0.25429  -0.24943
 Alpha  occ. eigenvalues --   -0.24277  -0.23998  -0.23550  -0.23057  -0.21045
 Alpha  occ. eigenvalues --   -0.18981  -0.15206  -0.14650  -0.09015   0.04166
 Alpha virt. eigenvalues --    0.06098   0.06772   0.07439   0.08040   0.08272
 Alpha virt. eigenvalues --    0.08801   0.10059   0.10686   0.10827   0.11074
 Alpha virt. eigenvalues --    0.11814   0.12117   0.12967   0.13317   0.13637

  Beta  occ. eigenvalues --  -14.28758 -14.21942 -14.21315 -10.11286 -10.11224
  Beta  occ. eigenvalues --  -10.09092 -10.08859 -10.07339 -10.07285 -10.07036
  Beta  occ. eigenvalues --  -10.06889 -10.06768 -10.06619 -10.06090 -10.05888
  Beta  occ. eigenvalues --   -0.94341  -0.81464  -0.75545  -0.73715  -0.70505
  Beta  occ. eigenvalues --   -0.67036  -0.62725  -0.61485  -0.60659  -0.55068
  Beta  occ. eigenvalues --   -0.50859  -0.49253  -0.47752  -0.46000  -0.42710
  Beta  occ. eigenvalues --   -0.40549  -0.39619  -0.39164  -0.37729  -0.36060
  Beta  occ. eigenvalues --   -0.35131  -0.34337  -0.32210  -0.31860  -0.31480
  Beta  occ. eigenvalues --   -0.27519  -0.26928  -0.26400  -0.25367  -0.24888
  Beta  occ. eigenvalues --   -0.24221  -0.23952  -0.23505  -0.23006  -0.20926
  Beta  occ. eigenvalues --   -0.18942  -0.15080  -0.14560  -0.08831
  Beta virt. eigenvalues --    0.06619   0.06813   0.07302   0.07996   0.08626
  Beta virt. eigenvalues --    0.08688   0.09310   0.10408   0.11062   0.11267
  Beta virt. eigenvalues --    0.11482   0.12009   0.12217   0.13160   0.13651

 Mulliken charges and spin densities:
               1          2
     1  C    0.469461  -0.912053
     2  C    0.247950  -0.553807
     3  C   -0.056333  -0.516242
     4  C   -1.067706   1.174249
     5  C    0.106556  -0.580428
     6  C    1.380274  -1.072158
     7  C    1.567892  -0.705267
     8  C   -0.578363   0.111582
     9  N    0.113042  -0.126517
    10  N   -0.402294   0.200027
    11  C   -1.031476   0.469583
    12  C    0.476290  -0.486814
    13  C   -0.153103  -0.532922
    14  C   -0.233716   0.265980
    15  N   -0.295421   0.009119
    16  H   -0.101434   0.257539
    17  H   -0.222169   0.372726
    18  H   -0.389831   0.567975
    19  H   -0.092161   0.194271
    20  H   -0.019681   0.183347
    21  H   -0.366386   0.538185
    22  H    0.048616   0.212486
    23  H    0.099925   0.082301
    24  H   -0.559652   0.694188
    25  H    0.203061   0.102657
    26  H    0.106307   0.025285
    27  H    0.149375  -0.013485
    28  H   -0.172095   0.287172
    29  H   -0.015715   0.283502
    30  H   -0.211215   0.467519
 Sum of Mulliken charges =  -1.00000   1.00000

 Dipole moment (field-independent basis, Debye):
    X=              4.0292    Y=             -3.8217    Z=             -0.0293  Tot=              5.5534
 Quadrupole moment (field-independent basis, Debye-Ang):
   XX=           -156.8180   YY=           -140.8886   ZZ=           -118.6756
   XY=              5.1428   XZ=              2.1735   YZ=              1.9569

 Summary of Natural Population Analysis:

                                       Natural Population
                Natural  -----------------------------------------------
    Atom  No    Charge         Core      Valence    Rydberg      Total
 -----------------------------------------------------------------------
      C    1   -0.19051      0.99963     2.18316    0.00771     3.19051
      C    2   -0.19194      0.99964     2.18383    0.00847     3.19194
      C    3   -0.18971      0.99963     2.18028    0.00980     3.18971
      C    4   -0.14191      0.99959     2.12924    0.01308     3.14191
      C    5   -0.18423      0.99962     2.17529    0.00932     3.18423
      C    6    0.13411      0.99951     1.85639    0.00999     2.86589
      C    7   -0.09506      0.99945     2.08375    0.01186     3.09506
      C    8    0.07601      0.99945     1.91177    0.01277     2.92399
      N    9   -0.17058      0.99972     2.65755    0.01332     3.67058
      N   10   -0.15733      0.99967     2.64392    0.01374     3.65733
      C   11   -0.12639      0.99953     2.11746    0.00939     3.12639
      C   12   -0.09480      0.99959     2.08595    0.00926     3.09480
      C   13   -0.15238      0.99953     2.14272    0.01013     3.15238
      C   14    0.10736      0.99945     1.88147    0.01172     2.89264
      N   15   -0.39406      0.99972     2.88377    0.01057     3.89406
      H   16    0.09745      0.00000     0.40058    0.00197     0.40255
      H   17    0.09981      0.00000     0.39920    0.00099     0.40019
      H   18    0.10330      0.00000     0.39501    0.00168     0.39670
      H   19    0.08812      0.00000     0.41035    0.00154     0.41188
      H   20    0.09873      0.00000     0.39997    0.00130     0.40127
      H   21    0.10308      0.00000     0.39550    0.00142     0.39692
      H   22    0.11572      0.00000     0.38228    0.00199     0.38428
      H   23    0.09670      0.00000     0.40183    0.00147     0.40330
      H   24    0.10545      0.00000     0.39199    0.00257     0.39455
      H   25    0.19727      0.00000     0.29967    0.00306     0.30273
      H   26    0.09984      0.00000     0.39867    0.00148     0.40016
      H   27    0.09484      0.00000     0.40442    0.00073     0.40516
      H   28    0.09707      0.00000     0.40206    0.00087     0.40293
      H   29    0.18954      0.00000     0.30692    0.00354     0.31046
      H   30    0.18453      0.00000     0.31242    0.00305     0.31547
 =======================================================================
   * Total *    0.00004     14.99374    38.81742    0.18880    53.99996

 Normal termination of Gaussian 16 at Thu Dec 10 15:51:18 2020.
