 Gaussian 16, Revision A.03,

 -----------------------------------------------------------
 # opt freq B3LYP/6-31G(d) empiricaldispersion=gd3bj scf=xqc
 -----------------------------------------------------------

 -----------------------------
 CID_147269386_JID_97_neutraal
 -----------------------------
 Symbolic Z-matrix:
 Charge =  0 Multiplicity = 1

 SCF Done:  E(RB3LYP) =  -477.139783448     A.U. after   16 cycles
 SCF Done:  E(RB3LYP) =  -477.166067059     A.U. after   16 cycles
 SCF Done:  E(RB3LYP) =  -477.181202006     A.U. after   15 cycles
 SCF Done:  E(RB3LYP) =  -477.184490495     A.U. after   15 cycles
 SCF Done:  E(RB3LYP) =  -477.186060218     A.U. after   16 cycles
 SCF Done:  E(RB3LYP) =  -477.188432551     A.U. after   17 cycles
 SCF Done:  E(RB3LYP) =  -477.197259435     A.U. after   18 cycles
 SCF Done:  E(RB3LYP) =  -477.167396348     A.U. after   16 cycles
 SCF Done:  E(RB3LYP) =  -477.197038282     A.U. after   15 cycles
 SCF Done:  E(RB3LYP) =  -477.198921290     A.U. after   13 cycles
 SCF Done:  E(RB3LYP) =  -477.253325515     A.U. after   12 cycles
 SCF Done:  E(RB3LYP) =  -477.253357942     A.U. after   13 cycles
 SCF Done:  E(RB3LYP) =  -477.253389170     A.U. after   13 cycles
 SCF Done:  E(RB3LYP) =  -477.253397341     A.U. after   11 cycles
 SCF Done:  E(RB3LYP) =  -477.253399406     A.U. after   10 cycles
 SCF Done:  E(RB3LYP) =  -477.253399643     A.U. after    9 cycles
 Optimization completed.
    -- Stationary point found.
 Normal termination of Gaussian 16 at Tue Dec  8 10:22:57 2020.

 --------------------------------------------------------------------
 #N Geom=AllCheck Guess=TCheck SCRF=Check GenChk RB3LYP/6-31G(d) Freq
 --------------------------------------------------------------------

 Structure from the checkpoint file:  "JID_97.chk"
 -----------------------------
 CID_147269386_JID_97_neutraal
 -----------------------------
 Charge =  0 Multiplicity = 1

 SCF Done:  E(RB3LYP) =  -477.253399643     A.U. after    1 cycles

  Exact polarizability: 117.870 -19.595  88.217  -0.000   0.000  55.436
 Approx polarizability: 171.276 -56.851 171.388  -0.001  -0.004  75.079

                      1                      2                      3
                      A                      A                      A
 Frequencies --     31.8607                61.7436               109.5069
 Red. masses --      5.1513                 4.4671                 7.5507
 Frc consts  --      0.0031                 0.0100                 0.0533
 IR Inten    --      4.6844                 2.0219                 8.1463

                      4                      5                      6
                      A                      A                      A
 Frequencies --    118.4906               197.9913               208.0952
 Red. masses --      3.2298                 5.2029                 7.8547
 Frc consts  --      0.0267                 0.1202                 0.2004
 IR Inten    --      0.1353                 4.8714                 1.8581

                      7                      8                      9
                      A                      A                      A
 Frequencies --    234.9089               250.0791               256.7932
 Red. masses --      1.1246                 1.0536                 3.4819
 Frc consts  --      0.0366                 0.0388                 0.1353
 IR Inten    --      0.1456                 0.0141                 0.7254

                     10                     11                     12
                      A                      A                      A
 Frequencies --    361.3444               397.5774               412.0419
 Red. masses --      3.6892                 2.8657                 3.5881
 Frc consts  --      0.2838                 0.2669                 0.3589
 IR Inten    --      1.8797                34.3479                 0.1698

                     13                     14                     15
                      A                      A                      A
 Frequencies --    418.1000               466.6130               494.6723
 Red. masses --      1.3449                 4.6801                 3.3822
 Frc consts  --      0.1385                 0.6004                 0.4876
 IR Inten    --    160.1376                11.7107                30.7104

                     16                     17                     18
                      A                      A                      A
 Frequencies --    515.8900               660.3185               665.1795
 Red. masses --      2.9077                 4.9389                 1.2943
 Frc consts  --      0.4559                 1.2688                 0.3374
 IR Inten    --      5.9684                19.5593                17.1453

                     19                     20                     21
                      A                      A                      A
 Frequencies --    781.7769               805.2246               860.2866
 Red. masses --     11.0914                 4.2078                 5.8201
 Frc consts  --      3.9940                 1.6074                 2.5378
 IR Inten    --      4.4466                11.7694                 4.6406

                     22                     23                     24
                      A                      A                      A
 Frequencies --    928.7403               951.0873               958.5894
 Red. masses --      2.9545                 1.2244                 1.3698
 Frc consts  --      1.5015                 0.6525                 0.7416
 IR Inten    --     19.9802                 1.6662                 0.2236

                     25                     26                     27
                      A                      A                      A
 Frequencies --   1013.0170              1168.6001              1173.4286
 Red. masses --      1.9983                 1.8113                 2.1424
 Frc consts  --      1.2082                 1.4573                 1.7380
 IR Inten    --      0.4837                58.7965                 9.4673

                     28                     29                     30
                      A                      A                      A
 Frequencies --   1195.7289              1220.8766              1361.5308
 Red. masses --      4.5242                 1.9365                 3.3715
 Frc consts  --      3.8111                 1.7006                 3.6824
 IR Inten    --    577.8696                11.1836                95.1966

                     31                     32                     33
                      A                      A                      A
 Frequencies --   1390.3632              1421.1255              1431.2004
 Red. masses --      1.3281                 1.3034                 1.3284
 Frc consts  --      1.5126                 1.5509                 1.6031
 IR Inten    --      3.3229                19.4113                19.4832

                     34                     35                     36
                      A                      A                      A
 Frequencies --   1445.6920              1487.4391              1510.3992
 Red. masses --      1.2390                 3.0186                 1.0475
 Frc consts  --      1.5257                 3.9349                 1.4079
 IR Inten    --     21.3629                84.4725                 0.0635

                     37                     38                     39
                      A                      A                      A
 Frequencies --   1522.5229              1528.0926              1548.3106
 Red. masses --      1.0467                 1.0486                 1.0551
 Frc consts  --      1.4296                 1.4426                 1.4902
 IR Inten    --     15.0654                 0.0698                 7.6148

                     40                     41                     42
                      A                      A                      A
 Frequencies --   1652.7857              1837.2113              2093.9029
 Red. masses --      1.5008                11.8891                11.9071
 Frc consts  --      2.4155                23.6437                30.7587
 IR Inten    --    226.9685               101.3947               685.9948

                     43                     44                     45
                      A                      A                      A
 Frequencies --   3065.4534              3069.0661              3092.2448
 Red. masses --      1.0376                 1.0393                 1.0857
 Frc consts  --      5.7449                 5.7677                 6.1164
 IR Inten    --     18.1712                 8.1106                27.0229

                     46                     47                     48
                      A                      A                      A
 Frequencies --   3129.5770              3132.2453              3170.0823
 Red. masses --      1.1021                 1.1023                 1.1013
 Frc consts  --      6.3599                 6.3716                 6.5210
 IR Inten    --     12.8654                30.8203                 1.5229

                     49                     50                     51
                      A                      A                      A
 Frequencies --   3174.2890              3581.5503              3709.8937
 Red. masses --      1.1005                 1.0444                 1.1064
 Frc consts  --      6.5333                 7.8935                 8.9717
 IR Inten    --     15.6746               107.2921                75.8497

 - Thermochemistry -
 -------------------
 Temperature   298.150 Kelvin.  Pressure   1.00000 Atm.
 Atom     1 has atomic number  6 and mass  12.00000

 Molecular mass:   139.06333 amu.
 Principal axes and moments of inertia in atomic units:
                           1         2         3
     Eigenvalues --   639.954592349.427442590.74810
           X            0.99976   0.02211   0.00000
           Y           -0.02211   0.99976   0.00003
           Z           -0.00000  -0.00003   1.00000
 This molecule is an asymmetric top.
 Rotational symmetry number  1.
 Warning -- assumption of classical behavior for rotation
           may cause significant error
 Rotational temperatures (Kelvin)      0.13534     0.03687     0.03343
 Rotational constants (GHZ):           2.82011     0.76816     0.69661
 Zero-point vibrational energy     396403.8 (Joules/Mol)
                                   94.74278 (Kcal/Mol)
 Warning -- explicit consideration of  16 degrees of freedom as
           vibrations may cause significant error
 Vibrational temperatures:     45.84    88.84   157.56   170.48   284.87
          (Kelvin)            299.40   337.98   359.81   369.47   519.89
                              572.03   592.84   601.55   671.35   711.72
                              742.25   950.05   957.04  1124.80  1158.54
                             1237.76  1336.25  1368.40  1379.20  1457.51
                             1681.35  1688.30  1720.39  1756.57  1958.94
                             2000.42  2044.68  2059.18  2080.03  2140.09
                             2173.13  2190.57  2198.58  2227.67  2377.99
                             2643.34  3012.66  4410.50  4415.70  4449.05
                             4502.76  4506.60  4561.04  4567.09  5153.05
                             5337.71

 Zero-point correction=                           0.150982 (Hartree/Particle)
 Thermal correction to Energy=                    0.162225
 Thermal correction to Enthalpy=                  0.163169
 Thermal correction to Gibbs Free Energy=         0.113552
 Sum of electronic and zero-point Energies=           -477.102417
 Sum of electronic and thermal Energies=              -477.091175
 Sum of electronic and thermal Enthalpies=            -477.090231
 Sum of electronic and thermal Free Energies=         -477.139848

                     E (Thermal)             CV                S
                      KCal/Mol        Cal/Mol-Kelvin    Cal/Mol-Kelvin
 Total                  101.797             39.624            104.427
 Electronic               0.000              0.000              0.000
 Translational            0.889              2.981             40.701
 Rotational               0.889              2.981             29.745
 Vibrational            100.020             33.663             33.982
 Vibration     1          0.594              1.983              5.710
 Vibration     2          0.597              1.973              4.401
 Vibration     3          0.606              1.942              3.278
 Vibration     4          0.609              1.934              3.125
 Vibration     5          0.637              1.843              2.152
 Vibration     6          0.641              1.828              2.060
 Vibration     7          0.655              1.787              1.841
 Vibration     8          0.663              1.763              1.730
 Vibration     9          0.666              1.751              1.683
 Vibration    10          0.736              1.552              1.116
 Vibration    11          0.764              1.475              0.972
 Vibration    12          0.776              1.444              0.919
 Vibration    13          0.781              1.431              0.898
 Vibration    14          0.824              1.324              0.747
 Vibration    15          0.850              1.262              0.672
 Vibration    16          0.871              1.215              0.620

 Optimization completed.
    -- Stationary point found.
 Normal termination of Gaussian 16 at Tue Dec  8 10:25:37 2020.

 ----------------------------------------------------------------------
 # B3LYP/6-311++G(d,p) empiricaldispersion=gd3bj scf=xqc pop=npa geom=c
 heck
 ----------------------------------------------------------------------

 -------------------------------------
 CID_147269386_JID_97_Energie_neutraal
 -------------------------------------
 Structure from the checkpoint file:  "JID_97.chk"
 Charge =  0 Multiplicity = 1

 SCF Done:  E(RB3LYP) =  -477.400959256     A.U. after   16 cycles
 Normal termination of Gaussian 16 at Tue Dec  8 10:26:25 2020.

 ----------------------------------------------------------------------
 # B3LYP/6-311++G(d,p) empiricaldispersion=gd3bj scf=xqc pop=npa geom=c
 heck
 ----------------------------------------------------------------------

 -----------------------------------
 CID_147269386_JID_97_Energie_kation
 -----------------------------------
 Structure from the checkpoint file:  "JID_97.chk"
 Charge =  1 Multiplicity = 2

 SCF Done:  E(UB3LYP) =  -477.067348978     A.U. after   28 cycles
 Normal termination of Gaussian 16 at Tue Dec  8 10:28:39 2020.
 Gaussian 16:  ES64L-G16RevA.03 25-Dec-2016

 ----------------------------------------------------------------------
 # B3LYP/6-311++G(d,p) empiricaldispersion=gd3bj scf=xqc pop=npa geom=c
 heck
 ----------------------------------------------------------------------

 ----------------------------------
 CID_147269386_JID_97_Energie_anion
 ----------------------------------
 Structure from the checkpoint file:  "JID_97.chk"
 Charge = -1 Multiplicity = 2

                         Standard orientation:
 ---------------------------------------------------------------------
 Center     Atomic      Atomic             Coordinates (Angstroms)
 Number     Number       Type             X           Y           Z
 ---------------------------------------------------------------------
      1          6           0       -2.497585   -0.298330   -1.281095
      2          6           0       -2.106438    0.427777   -0.000070
      3          6           0       -2.497486   -0.298022    1.281169
      4          8           0       -0.673139    0.763363   -0.000270
      5          6           0        0.246570   -0.220098   -0.000063
      6          8           0        0.029556   -1.405823    0.000343
      7          6           0        1.653663    0.372748   -0.000131
      8          6           0        2.739347   -0.436494   -0.000081
      9          6           0        3.762078   -1.191890   -0.000043
     10          7           0        1.720659    1.712476    0.000111
     11          1           0       -2.080682   -1.306464   -1.308085
     12          1           0       -2.150311    0.255551   -2.159060
     13          1           0       -3.589557   -0.367879   -1.332191
     14          1           0       -2.552631    1.426261   -0.000172
     15          1           0       -2.081198   -1.306408    1.308100
     16          1           0       -2.149487    0.255711    2.158946
     17          1           0       -3.589476   -0.366844    1.332744
     18          1           0        0.872872    2.262055    0.000124
     19          1           0        2.623630    2.166228    0.000112
 ---------------------------------------------------------------------

 SCF Done:  E(UB3LYP) =  -477.451817117     A.U. after   21 cycles

 The electronic state is 2-A.
 Alpha  occ. eigenvalues --  -19.03114 -18.94656 -14.18306 -10.13692 -10.13549
 Alpha  occ. eigenvalues --  -10.06623 -10.06623 -10.05820  -9.95065  -9.94154
 Alpha  occ. eigenvalues --   -0.96505  -0.87338  -0.78620  -0.69186  -0.59992
 Alpha  occ. eigenvalues --   -0.58188  -0.54139  -0.48381  -0.43238  -0.40188
 Alpha  occ. eigenvalues --   -0.37949  -0.36611  -0.34898  -0.33767  -0.30702
 Alpha  occ. eigenvalues --   -0.30439  -0.29932  -0.28526  -0.26022  -0.25627
 Alpha  occ. eigenvalues --   -0.22691  -0.21151  -0.17882  -0.12725  -0.08527
 Alpha  occ. eigenvalues --   -0.06388  -0.05667   0.01908
 Alpha virt. eigenvalues --    0.06671   0.09018   0.09172   0.10427   0.11171
 Alpha virt. eigenvalues --    0.12689   0.13335   0.14289   0.14778   0.15626
 Alpha virt. eigenvalues --    0.17211   0.17704   0.18149   0.18843   0.19078

  Beta  occ. eigenvalues --  -19.03054 -18.94287 -14.18049 -10.13554 -10.13547
  Beta  occ. eigenvalues --  -10.06618 -10.06618 -10.05246  -9.94591  -9.94295
  Beta  occ. eigenvalues --   -0.96252  -0.86788  -0.77922  -0.69138  -0.59982
  Beta  occ. eigenvalues --   -0.57310  -0.53936  -0.47421  -0.42817  -0.40055
  Beta  occ. eigenvalues --   -0.37753  -0.36264  -0.34576  -0.33564  -0.30418
  Beta  occ. eigenvalues --   -0.30188  -0.29691  -0.28002  -0.25525  -0.25441
  Beta  occ. eigenvalues --   -0.22505  -0.19216  -0.16586  -0.12292  -0.06461
  Beta  occ. eigenvalues --   -0.05573  -0.05378
  Beta virt. eigenvalues --    0.06642   0.08954   0.08998   0.09912   0.10413
  Beta virt. eigenvalues --    0.11151   0.12672   0.13293   0.14263   0.14807
  Beta virt. eigenvalues --    0.15610   0.17698   0.18182   0.18439   0.18852

 Mulliken charges and spin densities:
               1          2
     1  C   -0.376636  -0.006879
     2  C   -0.082068   0.001744
     3  C   -0.376726  -0.006878
     4  O   -0.002106   0.010721
     5  C   -0.860936   0.075145
     6  O   -0.286183   0.130325
     7  C    0.058541   0.396722
     8  C    0.664349  -0.189280
     9  C   -0.791056   0.443517
    10  N   -0.446656   0.139112
    11  H    0.183658   0.002496
    12  H    0.127793   0.002755
    13  H    0.117486   0.003486
    14  H    0.127136  -0.000658
    15  H    0.183634   0.002484
    16  H    0.127829   0.002759
    17  H    0.117465   0.003493
    18  H    0.263689  -0.006863
    19  H    0.250788  -0.004201
 Sum of Mulliken charges =  -1.00000   1.00000

 Dipole moment (field-independent basis, Debye):
    X=            -14.1544    Y=              7.1081    Z=             -0.0001  Tot=             15.8390
 Quadrupole moment (field-independent basis, Debye-Ang):
   XX=           -118.1435   YY=            -73.5604   ZZ=            -66.5391
   XY=             20.0195   XZ=              0.0004   YZ=              0.0016

 Summary of Natural Population Analysis:

                                       Natural Population
                Natural  -----------------------------------------------
    Atom  No    Charge         Core      Valence    Rydberg      Total
 -----------------------------------------------------------------------
      C    1   -0.30071      0.99964     2.29651    0.00456     3.30071
      C    2    0.06743      0.99957     1.92205    0.01095     2.93257
      C    3   -0.30071      0.99964     2.29651    0.00456     3.30071
      O    4   -0.29991      0.99986     3.29025    0.00980     4.29991
      C    5    0.40495      0.99968     1.56727    0.02810     2.59505
      O    6   -0.26317      0.99987     3.25802    0.00528     4.26317
      C    7    0.18239      0.99941     1.80177    0.01643     2.81761
      C    8   -0.25095      0.99956     2.23874    0.01266     3.25095
      C    9    0.01801      0.99974     1.97022    0.01203     2.98199
      N   10   -0.33958      0.99970     2.83170    0.00818     3.83958
      H   11    0.11624      0.00000     0.38279    0.00097     0.38376
      H   12    0.10134      0.00000     0.39776    0.00091     0.39866
      H   13    0.09213      0.00000     0.40703    0.00084     0.40787
      H   14    0.08257      0.00000     0.41618    0.00125     0.41743
      H   15    0.11624      0.00000     0.38279    0.00097     0.38376
      H   16    0.10135      0.00000     0.39775    0.00091     0.39865
      H   17    0.09213      0.00000     0.40703    0.00084     0.40787
      H   18    0.19126      0.00000     0.30756    0.00118     0.30874
      H   19    0.18899      0.00000     0.30989    0.00113     0.31101
 =======================================================================
   * Total *    0.00000      9.99667    26.88181    0.12152    37.00000

 Normal termination of Gaussian 16 at Tue Dec  8 10:30:21 2020.
