 Gaussian 16, Revision A.03,

 -----------------------------------------------------------
 # opt freq B3LYP/6-31G(d) empiricaldispersion=gd3bj scf=xqc
 -----------------------------------------------------------

 --------------------------------
 CID_135592799_JID_10526_neutraal
 --------------------------------
 Symbolic Z-matrix:
 Charge =  0 Multiplicity = 1

 SCF Done:  E(RB3LYP) =  -858.044774729     A.U. after   16 cycles
 SCF Done:  E(RB3LYP) =  -858.055623793     A.U. after   13 cycles
 SCF Done:  E(RB3LYP) =  -858.056421067     A.U. after   11 cycles
 SCF Done:  E(RB3LYP) =  -858.056798777     A.U. after   12 cycles
 SCF Done:  E(RB3LYP) =  -858.056958548     A.U. after   11 cycles
 SCF Done:  E(RB3LYP) =  -858.057050670     A.U. after   11 cycles
 SCF Done:  E(RB3LYP) =  -858.057129078     A.U. after   10 cycles
 SCF Done:  E(RB3LYP) =  -858.057623817     A.U. after   11 cycles
 SCF Done:  E(RB3LYP) =  -858.057729710     A.U. after   11 cycles
 SCF Done:  E(RB3LYP) =  -858.057766096     A.U. after   10 cycles
 SCF Done:  E(RB3LYP) =  -858.057755040     A.U. after   10 cycles
 SCF Done:  E(RB3LYP) =  -858.057787824     A.U. after   10 cycles
 SCF Done:  E(RB3LYP) =  -858.057793412     A.U. after   10 cycles
 SCF Done:  E(RB3LYP) =  -858.057794538     A.U. after    8 cycles
 SCF Done:  E(RB3LYP) =  -858.057794677     A.U. after    7 cycles
 Optimization completed.
    -- Stationary point found.
 Normal termination of Gaussian 16 at Mon Dec 14 13:54:27 2020.

 --------------------------------------------------------------------
 #N Geom=AllCheck Guess=TCheck SCRF=Check GenChk RB3LYP/6-31G(d) Freq
 --------------------------------------------------------------------

 Structure from the checkpoint file:  "JID_10526.chk"
 --------------------------------
 CID_135592799_JID_10526_neutraal
 --------------------------------
 Charge =  0 Multiplicity = 1

 SCF Done:  E(RB3LYP) =  -858.057794677     A.U. after    1 cycles

  Exact polarizability: 282.850  10.141 191.312  -0.672  -4.814 122.503
 Approx polarizability: 369.585  40.443 310.749  -5.239 -14.179 182.202

                      1                      2                      3
                      A                      A                      A
 Frequencies --     27.8472                42.2932                47.5474
 Red. masses --      3.6730                 3.2019                 3.1163
 Frc consts  --      0.0017                 0.0034                 0.0042
 IR Inten    --      0.1538                 0.4885                 0.0279

                      4                      5                      6
                      A                      A                      A
 Frequencies --     58.9651                69.2499                94.8556
 Red. masses --      3.1205                 2.6897                 3.7560
 Frc consts  --      0.0064                 0.0076                 0.0199
 IR Inten    --      0.2590                 0.1644                 0.7268

                      7                      8                      9
                      A                      A                      A
 Frequencies --    103.0690               114.6641               145.8748
 Red. masses --      3.8359                 3.6675                 2.7259
 Frc consts  --      0.0240                 0.0284                 0.0342
 IR Inten    --      1.4324                 0.2119                 0.2764

                     10                     11                     12
                      A                      A                      A
 Frequencies --    163.0403               196.8757               212.6245
 Red. masses --      4.3867                 3.5908                 4.7712
 Frc consts  --      0.0687                 0.0820                 0.1271
 IR Inten    --      1.6586                 0.8434                 1.7412

                     13                     14                     15
                      A                      A                      A
 Frequencies --    220.2328               269.8526               279.7002
 Red. masses --      1.3929                 1.8179                 2.7020
 Frc consts  --      0.0398                 0.0780                 0.1245
 IR Inten    --      0.8853                 2.0572                 3.3212

                     16                     17                     18
                      A                      A                      A
 Frequencies --    308.8382               368.7606               393.2778
 Red. masses --      2.2254                 5.9587                 4.0653
 Frc consts  --      0.1251                 0.4774                 0.3705
 IR Inten    --      2.6882                 0.9482                 0.1429

                     19                     20                     21
                      A                      A                      A
 Frequencies --    398.3292               445.9365               476.7580
 Red. masses --      4.3239                 4.9189                 3.1056
 Frc consts  --      0.4042                 0.5763                 0.4159
 IR Inten    --      0.9244                 4.4964                 0.8665

                     22                     23                     24
                      A                      A                      A
 Frequencies --    517.6529               528.2369               536.6432
 Red. masses --      3.2305                 3.1368                 3.6274
 Frc consts  --      0.5100                 0.5157                 0.6155
 IR Inten    --      8.2607                 3.8258                 5.1692

                     25                     26                     27
                      A                      A                      A
 Frequencies --    568.9022               576.6733               590.5017
 Red. masses --      2.9451                 1.1785                 2.8481
 Frc consts  --      0.5616                 0.2309                 0.5851
 IR Inten    --     10.0497                87.1241                 0.6980

                     28                     29                     30
                      A                      A                      A
 Frequencies --    611.8591               677.9235               718.9837
 Red. masses --      4.6402                 9.8463                 3.8201
 Frc consts  --      1.0235                 2.6662                 1.1635
 IR Inten    --      0.7491                 1.3357                 0.4857

                     31                     32                     33
                      A                      A                      A
 Frequencies --    733.6429               742.2340               751.5602
 Red. masses --      3.3413                 4.4114                10.9624
 Frc consts  --      1.0596                 1.4319                 3.6482
 IR Inten    --     14.8358                 1.1531                 8.0274

                     34                     35                     36
                      A                      A                      A
 Frequencies --    760.9415               802.9822               807.1174
 Red. masses --      2.5354                 1.2434                 1.2029
 Frc consts  --      0.8650                 0.4724                 0.4617
 IR Inten    --      0.2440                 2.5047                 6.6491

                     37                     38                     39
                      A                      A                      A
 Frequencies --    824.9707               826.3778               856.1962
 Red. masses --      1.9963                 1.5976                 2.3161
 Frc consts  --      0.8005                 0.6428                 1.0003
 IR Inten    --     15.0219                 7.7182                 0.5595

                     40                     41                     42
                      A                      A                      A
 Frequencies --    870.4697               913.3639               915.0260
 Red. masses --      2.0658                 2.4279                 2.8097
 Frc consts  --      0.9222                 1.1934                 1.3860
 IR Inten    --      1.5994                 0.8524                 0.0343

                     43                     44                     45
                      A                      A                      A
 Frequencies --    920.9847               936.4736               939.8624
 Red. masses --      3.8255                 1.7897                 1.5086
 Frc consts  --      1.9118                 0.9247                 0.7851
 IR Inten    --     31.3768                 0.2513                 5.4743

                     46                     47                     48
                      A                      A                      A
 Frequencies --    967.7097               969.5154              1016.8125
 Red. masses --      2.1335                 1.7950                 3.4129
 Frc consts  --      1.1772                 0.9941                 2.0790
 IR Inten    --     13.0451                 2.4476                 4.5451

                     49                     50                     51
                      A                      A                      A
 Frequencies --   1022.1796              1037.9197              1050.9898
 Red. masses --      3.4156                 1.5239                 2.0758
 Frc consts  --      2.1026                 0.9672                 1.3509
 IR Inten    --     20.9462                 4.3189                 7.4111

                     52                     53                     54
                      A                      A                      A
 Frequencies --   1075.1765              1086.5692              1089.3595
 Red. masses --      1.2858                 3.1071                 2.7761
 Frc consts  --      0.8758                 2.1614                 1.9410
 IR Inten    --     15.4373                 4.8983                11.6197

                     55                     56                     57
                      A                      A                      A
 Frequencies --   1095.3345              1106.2302              1119.9459
 Red. masses --      1.3365                 3.0155                 1.6883
 Frc consts  --      0.9447                 2.1742                 1.2477
 IR Inten    --      3.2963                21.4307                21.9220

                     58                     59                     60
                      A                      A                      A
 Frequencies --   1125.9407              1128.0549              1165.3173
 Red. masses --      1.1070                 1.8731                 1.8911
 Frc consts  --      0.8269                 1.4043                 1.5131
 IR Inten    --      1.8597                12.7382                15.0733

                     61                     62                     63
                      A                      A                      A
 Frequencies --   1193.0684              1196.5707              1216.2263
 Red. masses --      1.7246                 1.6669                 1.9482
 Frc consts  --      1.4464                 1.4062                 1.6979
 IR Inten    --     25.9967                 3.6120                 0.8427

                     64                     65                     66
                      A                      A                      A
 Frequencies --   1219.5124              1237.9084              1260.4722
 Red. masses --      1.3604                 1.9521                 1.3749
 Frc consts  --      1.1921                 1.7625                 1.2870
 IR Inten    --      0.5167                 3.5522                 0.7989

                     67                     68                     69
                      A                      A                      A
 Frequencies --   1267.0730              1285.9316              1300.0845
 Red. masses --      1.3428                 1.8669                 5.5229
 Frc consts  --      1.2702                 1.8188                 5.5000
 IR Inten    --      2.2083                53.6844                67.3372

                     70                     71                     72
                      A                      A                      A
 Frequencies --   1324.9628              1346.9358              1354.0444
 Red. masses --      1.3307                 1.2521                 1.4502
 Frc consts  --      1.3764                 1.3384                 1.5666
 IR Inten    --      2.6089                 7.1009                10.0459

                     73                     74                     75
                      A                      A                      A
 Frequencies --   1361.3544              1365.4717              1371.4993
 Red. masses --      2.0360                 1.2828                 1.4341
 Frc consts  --      2.2231                 1.4092                 1.5894
 IR Inten    --     28.1270                 3.9719                 3.8783

                     76                     77                     78
                      A                      A                      A
 Frequencies --   1373.1887              1404.8572              1409.2994
 Red. masses --      1.8099                 1.3208                 1.2985
 Frc consts  --      2.0108                 1.5358                 1.5195
 IR Inten    --     16.4688                89.7539                 7.6298

                     79                     80                     81
                      A                      A                      A
 Frequencies --   1432.9547              1439.0717              1445.3601
 Red. masses --      1.5433                 1.3764                 2.9042
 Frc consts  --      1.8671                 1.6794                 3.5746
 IR Inten    --     17.8921                30.0324                54.5888

                     82                     83                     84
                      A                      A                      A
 Frequencies --   1460.1600              1483.8124              1509.1762
 Red. masses --      2.6093                 1.0885                 1.0893
 Frc consts  --      3.2777                 1.4120                 1.4618
 IR Inten    --     23.7271                 2.3076                 2.1727

                     85                     86                     87
                      A                      A                      A
 Frequencies --   1510.8814              1515.9121              1518.6333
 Red. masses --      1.1140                 1.0891                 1.1228
 Frc consts  --      1.4983                 1.4746                 1.5256
 IR Inten    --      3.8906                 4.0537                10.3854

                     88                     89                     90
                      A                      A                      A
 Frequencies --   1520.8842              1521.6454              1538.0563
 Red. masses --      1.0757                 1.4456                 1.1026
 Frc consts  --      1.4660                 1.9720                 1.5368
 IR Inten    --      2.1252                42.7366                 8.9406

                     91                     92                     93
                      A                      A                      A
 Frequencies --   1538.8332              1545.8072              1574.0471
 Red. masses --      1.1614                 3.1894                 9.3351
 Frc consts  --      1.6203                 4.4903                13.6271
 IR Inten    --     25.2958               125.2306                75.3897

                     94                     95                     96
                      A                      A                      A
 Frequencies --   1603.2773              1673.1871              1715.9446
 Red. masses --      5.1972                 7.8129                10.1916
 Frc consts  --      7.8711                12.8870                17.6806
 IR Inten    --     96.9458                72.4859               755.8690

                     97                     98                     99
                      A                      A                      A
 Frequencies --   3030.6314              3034.1056              3056.7951
 Red. masses --      1.0676                 1.0831                 1.0672
 Frc consts  --      5.7774                 5.8745                 5.8755
 IR Inten    --     32.4004                46.1665                50.3216

                    100                    101                    102
                      A                      A                      A
 Frequencies --   3060.7245              3061.8969              3070.6136
 Red. masses --      1.0361                 1.0668                 1.0646
 Frc consts  --      5.7187                 5.8926                 5.9144
 IR Inten    --     27.2395                69.2897                30.8647

                    103                    104                    105
                      A                      A                      A
 Frequencies --   3077.6673              3086.2154              3105.0036
 Red. masses --      1.0595                 1.0920                 1.1038
 Frc consts  --      5.9130                 6.1284                 6.2698
 IR Inten    --     27.5478                53.4645                43.6855

                    106                    107                    108
                      A                      A                      A
 Frequencies --   3118.8288              3121.6023              3131.9350
 Red. masses --      1.1055                 1.1042                 1.1031
 Frc consts  --      6.3357                 6.3392                 6.3752
 IR Inten    --      4.5176                47.1983                41.6739

                    109                    110                    111
                      A                      A                      A
 Frequencies --   3132.6602              3153.3660              3156.2057
 Red. masses --      1.0971                 1.1033                 1.0505
 Frc consts  --      6.3436                 6.4636                 6.1659
 IR Inten    --     45.8570                12.7756                15.9868

                    112                    113                    114
                      A                      A                      A
 Frequencies --   3158.2325              3162.1745              3176.7461
 Red. masses --      1.0583                 1.0906                 1.0898
 Frc consts  --      6.2191                 6.4250                 6.4796
 IR Inten    --     15.0794                28.1943                10.2519

                    115                    116                    117
                      A                      A                      A
 Frequencies --   3239.9715              3253.1637              3648.4712
 Red. masses --      1.1202                 1.1168                 1.0806
 Frc consts  --      6.9284                 6.9639                 8.4751
 IR Inten    --      0.3593                12.3424                68.8342

 - Thermochemistry -
 -------------------
 Temperature   298.150 Kelvin.  Pressure   1.00000 Atm.
 Atom     1 has atomic number  6 and mass  12.00000

 Molecular mass:   271.17970 amu.
 Principal axes and moments of inertia in atomic units:
                           1         2         3
     Eigenvalues --  2845.259579565.10862**********
           X            1.00000   0.00291   0.00113
           Y           -0.00292   0.99998   0.00637
           Z           -0.00112  -0.00637   0.99998
 This molecule is an asymmetric top.
 Rotational symmetry number  1.
 Warning -- assumption of classical behavior for rotation
           may cause significant error
 Rotational temperatures (Kelvin)      0.03044     0.00906     0.00746
 Rotational constants (GHZ):           0.63430     0.18868     0.15548
 Zero-point vibrational energy     930086.6 (Joules/Mol)
                                  222.29604 (Kcal/Mol)
 Warning -- explicit consideration of  28 degrees of freedom as
           vibrations may cause significant error
 Vibrational temperatures:     40.07    60.85    68.41    84.84    99.64
          (Kelvin)            136.48   148.29   164.98   209.88   234.58
                              283.26   305.92   316.87   388.26   402.43
                              444.35   530.56   565.84   573.11   641.60
                              685.95   744.79   760.02   772.11   818.52
                              829.70   849.60   880.33   975.38  1034.46
                             1055.55  1067.91  1081.33  1094.83  1155.31
                             1161.26  1186.95  1188.97  1231.88  1252.41
                             1314.13  1316.52  1325.09  1347.38  1352.25
                             1392.32  1394.92  1462.97  1470.69  1493.33
                             1512.14  1546.94  1563.33  1567.35  1575.94
                             1591.62  1611.35  1619.98  1623.02  1676.63
                             1716.56  1721.60  1749.88  1754.61  1781.07
                             1813.54  1823.04  1850.17  1870.53  1906.33
                             1937.94  1948.17  1958.69  1964.61  1973.28
                             1975.71  2021.28  2027.67  2061.70  2070.50
                             2079.55  2100.84  2134.88  2171.37  2173.82
                             2181.06  2184.97  2188.21  2189.31  2212.92
                             2214.04  2224.07  2264.70  2306.76  2407.34
                             2468.86  4360.40  4365.40  4398.05  4403.70
                             4405.39  4417.93  4428.08  4440.38  4467.41
                             4487.30  4491.29  4506.16  4507.20  4536.99
                             4541.08  4543.99  4549.66  4570.63  4661.60
                             4680.58  5249.34

 Zero-point correction=                           0.354251 (Hartree/Particle)
 Thermal correction to Energy=                    0.372423
 Thermal correction to Enthalpy=                  0.373367
 Thermal correction to Gibbs Free Energy=         0.306407
 Sum of electronic and zero-point Energies=           -857.703543
 Sum of electronic and thermal Energies=              -857.685372
 Sum of electronic and thermal Enthalpies=            -857.684427
 Sum of electronic and thermal Free Energies=         -857.751388

                     E (Thermal)             CV                S
                      KCal/Mol        Cal/Mol-Kelvin    Cal/Mol-Kelvin
 Total                  233.699             70.185            140.931
 Electronic               0.000              0.000              0.000
 Translational            0.889              2.981             42.692
 Rotational               0.889              2.981             34.112
 Vibrational            231.922             64.223             64.127
 Vibration     1          0.593              1.984              5.977
 Vibration     2          0.595              1.980              5.149
 Vibration     3          0.595              1.979              4.917
 Vibration     4          0.596              1.974              4.492
 Vibration     5          0.598              1.969              4.175
 Vibration     6          0.603              1.953              3.557
 Vibration     7          0.605              1.947              3.395
 Vibration     8          0.608              1.937              3.188
 Vibration     9          0.617              1.907              2.725
 Vibration    10          0.623              1.888              2.514
 Vibration    11          0.636              1.844              2.162
 Vibration    12          0.644              1.822              2.021
 Vibration    13          0.647              1.810              1.957
 Vibration    14          0.674              1.729              1.597
 Vibration    15          0.680              1.711              1.536
 Vibration    16          0.698              1.657              1.369
 Vibration    17          0.741              1.536              1.085
 Vibration    18          0.760              1.485              0.988
 Vibration    19          0.765              1.474              0.969
 Vibration    20          0.805              1.370              0.808
 Vibration    21          0.833              1.302              0.719
 Vibration    22          0.873              1.211              0.615
 Vibration    23          0.883              1.188              0.591
 Vibration    24          0.892              1.169              0.573
 Vibration    25          0.925              1.099              0.506
 Vibration    26          0.933              1.082              0.492
 Vibration    27          0.948              1.052              0.466
 Vibration    28          0.971              1.007              0.430

                           ! Non-Optimized Parameters !
 Normal termination of Gaussian 16 at Mon Dec 14 14:13:47 2020.

 ----------------------------------------------------------------------
 # B3LYP/6-311++G(d,p) empiricaldispersion=gd3bj scf=xqc pop=npa geom=c
 heck
 ----------------------------------------------------------------------

 ----------------------------------------
 CID_135592799_JID_10526_Energie_neutraal
 ----------------------------------------
 Structure from the checkpoint file:  "JID_10526.chk"
 Charge =  0 Multiplicity = 1

 SCF Done:  E(RB3LYP) =  -858.280760006     A.U. after   17 cycles
 Normal termination of Gaussian 16 at Mon Dec 14 14:22:52 2020.

 ----------------------------------------------------------------------
 # B3LYP/6-311++G(d,p) empiricaldispersion=gd3bj scf=xqc pop=npa geom=c
 heck
 ----------------------------------------------------------------------

 --------------------------------------
 CID_135592799_JID_10526_Energie_kation
 --------------------------------------
 Structure from the checkpoint file:  "JID_10526.chk"
 Charge =  1 Multiplicity = 2

 SCF Done:  E(UB3LYP) =  -858.031406433     A.U. after   20 cycles
 Normal termination of Gaussian 16 at Mon Dec 14 14:37:06 2020.
 Gaussian 16:  ES64L-G16RevA.03 25-Dec-2016

 ----------------------------------------------------------------------
 # B3LYP/6-311++G(d,p) empiricaldispersion=gd3bj scf=xqc pop=npa geom=c
 heck
 ----------------------------------------------------------------------

 -------------------------------------
 CID_135592799_JID_10526_Energie_anion
 -------------------------------------
 Structure from the checkpoint file:  "JID_10526.chk"
 Charge = -1 Multiplicity = 2

                         Standard orientation:
 ---------------------------------------------------------------------
 Center     Atomic      Atomic             Coordinates (Angstroms)
 Number     Number       Type             X           Y           Z
 ---------------------------------------------------------------------
      1          6           0        2.109185    3.423419    0.926475
      2          6           0        1.505682    3.048338   -0.426470
      3          7           0        0.676729    1.845446   -0.354758
      4          6           0       -0.695836    1.872589   -0.345747
      5          7           0       -1.504391    0.868188   -0.226870
      6          6           0       -1.011978   -0.453696   -0.073120
      7          7           0       -1.712053   -1.524707    0.055387
      8          6           0       -3.167965   -1.461070    0.070762
      9          6           0       -3.768140   -0.732256    1.306678
     10          6           0       -5.124137   -0.208239    0.816179
     11          6           0       -4.807142    0.281344   -0.606406
     12          6           0       -3.857665   -0.793952   -1.171205
     13          6           0        0.428302   -0.511581   -0.072761
     14          6           0        1.241650    0.590081   -0.203543
     15          7           0        2.567853    0.268691   -0.167820
     16          6           0        2.579107   -1.057455   -0.013494
     17          7           0        1.309912   -1.565866    0.047683
     18          6           0        3.787426   -1.888389    0.082508
     19          6           0        5.014510   -1.493036   -0.720797
     20          6           0        5.017512   -1.316994    0.766256
     21          1           0        1.322804    3.612919    1.664625
     22          1           0        2.718800    4.328248    0.828207
     23          1           0        2.746797    2.613910    1.291541
     24          1           0        0.872114    3.852397   -0.813066
     25          1           0        2.297342    2.862420   -1.158497
     26          1           0       -1.117273    2.871060   -0.460204
     27          1           0       -3.500190   -2.504922    0.111637
     28          1           0       -3.839693   -1.392997    2.177218
     29          1           0       -3.125062    0.111534    1.573700
     30          1           0       -5.540995    0.574013    1.461095
     31          1           0       -5.857020   -1.026659    0.778889
     32          1           0       -4.274672    1.236626   -0.547184
     33          1           0       -5.701954    0.429128   -1.221756
     34          1           0       -3.121200   -0.372189   -1.858128
     35          1           0       -4.422568   -1.554978   -1.722613
     36          1           0        1.023741   -2.528490    0.159452
     37          1           0        3.598408   -2.950904    0.208850
     38          1           0        5.606708   -2.293039   -1.155314
     39          1           0        4.913702   -0.602950   -1.333425
     40          1           0        4.919056   -0.308331    1.154426
     41          1           0        5.611734   -1.993675    1.373310
 ---------------------------------------------------------------------

 SCF Done:  E(UB3LYP) =  -858.271529579     A.U. after   33 cycles
 SCF Done:  E(UB3LYP) =  -858.271529580     a.u. after    1 cycles

 The electronic state is 2-A.
 Alpha  occ. eigenvalues --  -14.27914 -14.27908 -14.21155 -14.20502 -14.17052
 Alpha  occ. eigenvalues --  -10.15537 -10.15535 -10.14051 -10.13601 -10.12608
 Alpha  occ. eigenvalues --  -10.10745 -10.10513 -10.09331 -10.08960 -10.08875
 Alpha  occ. eigenvalues --  -10.07639 -10.07573 -10.06903 -10.06421 -10.06355
 Alpha  occ. eigenvalues --   -0.94473  -0.90229  -0.83897  -0.79081  -0.78085
 Alpha  occ. eigenvalues --   -0.77412  -0.72734  -0.69005  -0.66493  -0.61298
 Alpha  occ. eigenvalues --   -0.60897  -0.58320  -0.56937  -0.55603  -0.52040
 Alpha  occ. eigenvalues --   -0.51705  -0.50208  -0.48016  -0.47092  -0.45333
 Alpha  occ. eigenvalues --   -0.44190  -0.42140  -0.40522  -0.39340  -0.38794
 Alpha  occ. eigenvalues --   -0.38300  -0.37378  -0.36464  -0.35690  -0.34526
 Alpha  occ. eigenvalues --   -0.33550  -0.32415  -0.31600  -0.30141  -0.29687
 Alpha  occ. eigenvalues --   -0.29329  -0.28712  -0.28216  -0.27395  -0.26700
 Alpha  occ. eigenvalues --   -0.24728  -0.24466  -0.23912  -0.23493  -0.23066
 Alpha  occ. eigenvalues --   -0.22555  -0.22438  -0.20258  -0.18722  -0.17424
 Alpha  occ. eigenvalues --   -0.16503  -0.14071  -0.10060   0.03841
 Alpha virt. eigenvalues --    0.05173   0.06231   0.06403   0.07345   0.07607
 Alpha virt. eigenvalues --    0.07806   0.08432   0.08538   0.08883   0.08981
 Alpha virt. eigenvalues --    0.09106   0.10547   0.10746   0.11086   0.11488

  Beta  occ. eigenvalues --  -14.27897 -14.27890 -14.21148 -14.20511 -14.16992
  Beta  occ. eigenvalues --  -10.15501 -10.15431 -10.14044 -10.13566 -10.12579
  Beta  occ. eigenvalues --  -10.10757 -10.10497 -10.09333 -10.08941 -10.08851
  Beta  occ. eigenvalues --  -10.07614 -10.07573 -10.06902 -10.06418 -10.06350
  Beta  occ. eigenvalues --   -0.94440  -0.90157  -0.83829  -0.79046  -0.78025
  Beta  occ. eigenvalues --   -0.77368  -0.72711  -0.68967  -0.66432  -0.61290
  Beta  occ. eigenvalues --   -0.60866  -0.58228  -0.56877  -0.55546  -0.51996
  Beta  occ. eigenvalues --   -0.51641  -0.50144  -0.48005  -0.47064  -0.45282
  Beta  occ. eigenvalues --   -0.44135  -0.42087  -0.40468  -0.39305  -0.38757
  Beta  occ. eigenvalues --   -0.38219  -0.37344  -0.36428  -0.35644  -0.34475
  Beta  occ. eigenvalues --   -0.33441  -0.32391  -0.31576  -0.30037  -0.29637
  Beta  occ. eigenvalues --   -0.29250  -0.28679  -0.28178  -0.27346  -0.26587
  Beta  occ. eigenvalues --   -0.24722  -0.24462  -0.23892  -0.23442  -0.23010
  Beta  occ. eigenvalues --   -0.22518  -0.22406  -0.20240  -0.18574  -0.17414
  Beta  occ. eigenvalues --   -0.16396  -0.14001  -0.09865
  Beta virt. eigenvalues --    0.06127   0.06437   0.06577   0.06869   0.07782
  Beta virt. eigenvalues --    0.07953   0.08033   0.08420   0.08932   0.09133
  Beta virt. eigenvalues --    0.09253   0.09386   0.10604   0.10793   0.10945

 Mulliken charges and spin densities:
               1          2
     1  C    0.389623  -0.820751
     2  C   -0.046070  -0.082112
     3  N    0.036317   0.127524
     4  C    0.257190   0.052242
     5  N   -0.108299   0.013029
     6  C   -0.508091  -0.047216
     7  N   -0.041518   0.017032
     8  C    0.089406  -0.047466
     9  C   -0.259087   0.042050
    10  C   -0.432335  -0.036144
    11  C   -0.274068  -0.021250
    12  C   -0.293511   0.000721
    13  C    1.126297  -1.003539
    14  C    0.211640  -0.732077
    15  N   -0.172987   0.036690
    16  C    1.884102  -1.991442
    17  N   -0.314210   0.066820
    18  C   -2.835307   3.230754
    19  C    0.644624  -1.160061
    20  C    0.839273  -1.370261
    21  H    0.086944   0.045583
    22  H   -0.426496   0.571548
    23  H    0.113603   0.071011
    24  H   -0.636303   0.790382
    25  H    0.023234   0.149991
    26  H   -0.146664   0.366634
    27  H    0.178145   0.027485
    28  H    0.137182   0.003122
    29  H    0.141681   0.014251
    30  H    0.122485   0.011441
    31  H    0.103517  -0.004481
    32  H    0.143308  -0.000269
    33  H    0.122928   0.014699
    34  H    0.129387   0.038430
    35  H    0.107298   0.014206
    36  H    0.319438   0.010127
    37  H   -1.257850   1.536952
    38  H   -0.116228   0.265705
    39  H    0.011063   0.148583
    40  H    0.024403   0.117727
    41  H   -0.374065   0.532328
 Sum of Mulliken charges =  -1.00000   1.00000

 Dipole moment (field-independent basis, Debye):
    X=             -6.9933    Y=             -0.2253    Z=              0.2729  Tot=              7.0022
 Quadrupole moment (field-independent basis, Debye-Ang):
   XX=           -208.9036   YY=           -198.4851   ZZ=           -145.5776
   XY=             12.3162   XZ=             -5.8657   YZ=              7.7212

 Summary of Natural Population Analysis:

                                       Natural Population
                Natural  -----------------------------------------------
    Atom  No    Charge         Core      Valence    Rydberg      Total
 -----------------------------------------------------------------------
      C    1   -0.29192      0.99966     2.28696    0.00531     3.29192
      C    2   -0.08301      0.99963     2.07203    0.01135     3.08301
      N    3   -0.21834      0.99961     2.70875    0.00998     3.71834
      C    4    0.18340      0.99962     1.80119    0.01579     2.81660
      N    5   -0.29291      0.99968     2.78210    0.01114     3.79291
      C    6    0.19646      0.99951     1.78813    0.01590     2.80354
      N    7   -0.27403      0.99966     2.76339    0.01097     3.77403
      C    8   -0.01794      0.99959     2.00318    0.01517     3.01794
      C    9   -0.19360      0.99962     2.18702    0.00696     3.19360
      C   10   -0.19066      0.99965     2.18504    0.00597     3.19066
      C   11   -0.19468      0.99964     2.18734    0.00770     3.19468
      C   12   -0.19444      0.99963     2.18674    0.00807     3.19444
      C   13    0.01978      0.99941     1.96896    0.01186     2.98022
      C   14    0.17015      0.99943     1.81706    0.01336     2.82985
      N   15   -0.27676      0.99967     2.76960    0.00749     3.77676
      C   16    0.21511      0.99962     1.76789    0.01738     2.78489
      N   17   -0.25715      0.99962     2.74940    0.00812     3.75715
      C   18   -0.14141      0.99956     2.12959    0.01226     3.14141
      C   19   -0.18604      0.99963     2.17853    0.00789     3.18604
      C   20   -0.18644      0.99962     2.17723    0.00958     3.18644
      H   21    0.09676      0.00000     0.40234    0.00090     0.40324
      H   22    0.10360      0.00000     0.39483    0.00157     0.39640
      H   23    0.10725      0.00000     0.39156    0.00119     0.39275
      H   24    0.10124      0.00000     0.39557    0.00319     0.39876
      H   25    0.10433      0.00000     0.39418    0.00149     0.39567
      H   26    0.08648      0.00000     0.41206    0.00146     0.41352
      H   27    0.08761      0.00000     0.41117    0.00121     0.41239
      H   28    0.09475      0.00000     0.40429    0.00096     0.40525
      H   29    0.10398      0.00000     0.39446    0.00156     0.39602
      H   30    0.09499      0.00000     0.40399    0.00101     0.40501
      H   31    0.08735      0.00000     0.41141    0.00123     0.41265
      H   32    0.10271      0.00000     0.39567    0.00162     0.39729
      H   33    0.09167      0.00000     0.40715    0.00118     0.40833
      H   34    0.10706      0.00000     0.39187    0.00107     0.39294
      H   35    0.09031      0.00000     0.40848    0.00121     0.40969
      H   36    0.21267      0.00000     0.28477    0.00256     0.28733
      H   37    0.11396      0.00000     0.38301    0.00303     0.38604
      H   38    0.10377      0.00000     0.39514    0.00108     0.39623
      H   39    0.10908      0.00000     0.38974    0.00118     0.39092
      H   40    0.10908      0.00000     0.38977    0.00115     0.39092
      H   41    0.10577      0.00000     0.39247    0.00176     0.39423
 =======================================================================
   * Total *    0.00000     19.99206    52.76407    0.24387    73.00000

 Normal termination of Gaussian 16 at Mon Dec 14 15:01:05 2020.
