 Gaussian 16, Revision A.03,

 -----------------------------------------------------------
 # opt freq B3LYP/6-31G(d) empiricaldispersion=gd3bj scf=xqc
 -----------------------------------------------------------

 -------------------------------
 CID_113444424_JID_7058_neutraal
 -------------------------------
 Symbolic Z-matrix:
 Charge =  0 Multiplicity = 1

 SCF Done:  E(RB3LYP) =  -779.704142700     A.U. after   16 cycles
 SCF Done:  E(RB3LYP) =  -779.711717942     A.U. after   14 cycles
 SCF Done:  E(RB3LYP) =  -779.705496954     A.U. after   16 cycles
 SCF Done:  E(RB3LYP) =  -779.715577299     A.U. after   15 cycles
 SCF Done:  E(RB3LYP) =  -779.715438920     A.U. after   16 cycles
 SCF Done:  E(RB3LYP) =  -779.718035266     A.U. after   15 cycles
 SCF Done:  E(RB3LYP) =  -779.718839667     A.U. after   14 cycles
 SCF Done:  E(RB3LYP) =  -779.718982809     A.U. after   12 cycles
 SCF Done:  E(RB3LYP) =  -779.719030321     A.U. after   11 cycles
 SCF Done:  E(RB3LYP) =  -779.719051874     A.U. after   12 cycles
 SCF Done:  E(RB3LYP) =  -779.719071440     A.U. after   12 cycles
 SCF Done:  E(RB3LYP) =  -779.719074293     A.U. after   11 cycles
 SCF Done:  E(RB3LYP) =  -779.719074678     A.U. after    9 cycles
 Optimization completed.
    -- Stationary point found.
 Normal termination of Gaussian 16 at Fri Dec 11 11:47:50 2020.

 --------------------------------------------------------------------
 #N Geom=AllCheck Guess=TCheck SCRF=Check GenChk RB3LYP/6-31G(d) Freq
 --------------------------------------------------------------------

 Structure from the checkpoint file:  "JID_7058.chk"
 -------------------------------
 CID_113444424_JID_7058_neutraal
 -------------------------------
 Charge =  0 Multiplicity = 1

 SCF Done:  E(RB3LYP) =  -779.719074678     A.U. after    1 cycles

  Exact polarizability: 209.332 -17.950 172.208 -14.524  -9.197  87.787
 Approx polarizability: 297.127 -28.946 292.830 -42.284 -25.552 152.057

                      1                      2                      3
                      A                      A                      A
 Frequencies --     34.6403                44.2428                49.7796
 Red. masses --      4.7576                 3.1576                 4.3436
 Frc consts  --      0.0034                 0.0036                 0.0063
 IR Inten    --      0.1638                 0.2165                 0.4169

                      4                      5                      6
                      A                      A                      A
 Frequencies --     74.6810               102.2310               112.7195
 Red. masses --      8.7743                 5.5490                 3.0715
 Frc consts  --      0.0288                 0.0342                 0.0230
 IR Inten    --      5.6184                 3.4778                 0.8177

                      7                      8                      9
                      A                      A                      A
 Frequencies --    132.2018               159.3976               184.7623
 Red. masses --      5.9443                 3.1585                 5.7737
 Frc consts  --      0.0612                 0.0473                 0.1161
 IR Inten    --      5.2420                 0.7442                 3.9943

                     10                     11                     12
                      A                      A                      A
 Frequencies --    220.8119               253.6675               270.7836
 Red. masses --      4.6565                 3.2346                 6.3549
 Frc consts  --      0.1338                 0.1226                 0.2745
 IR Inten    --      3.5500                 2.6112                 1.5670

                     13                     14                     15
                      A                      A                      A
 Frequencies --    302.7128               345.3676               391.1836
 Red. masses --      5.7416                 7.3140                 4.9388
 Frc consts  --      0.3100                 0.5140                 0.4453
 IR Inten    --      1.9611                 0.8056                 3.2004

                     16                     17                     18
                      A                      A                      A
 Frequencies --    418.2266               430.9676               479.6598
 Red. masses --      3.0152                 1.5396                 2.9332
 Frc consts  --      0.3107                 0.1685                 0.3976
 IR Inten    --     10.5946                25.2867                 8.5063

                     19                     20                     21
                      A                      A                      A
 Frequencies --    499.3062               526.7669               568.9089
 Red. masses --      2.7144                 7.0005                 4.7937
 Frc consts  --      0.3987                 1.1445                 0.9141
 IR Inten    --     27.9319                 2.8814                 6.2526

                     22                     23                     24
                      A                      A                      A
 Frequencies --    588.5578               628.8817               650.7947
 Red. masses --      6.8124                 2.9473                 4.9749
 Frc consts  --      1.3904                 0.6868                 1.2414
 IR Inten    --      2.6761                 2.8901                 6.1609

                     25                     26                     27
                      A                      A                      A
 Frequencies --    680.9414               704.6683               747.5890
 Red. masses --      3.3290                 4.1502                 4.7048
 Frc consts  --      0.9095                 1.2142                 1.5492
 IR Inten    --      9.9216                 6.7898                 4.7263

                     28                     29                     30
                      A                      A                      A
 Frequencies --    767.1938               788.9917               803.6087
 Red. masses --      3.4306                 1.4897                 1.5186
 Frc consts  --      1.1897                 0.5464                 0.5778
 IR Inten    --     15.1371                 0.6226                 0.8945

                     31                     32                     33
                      A                      A                      A
 Frequencies --    830.0546               843.6943               868.0783
 Red. masses --      1.6868                 8.6533                 1.5256
 Frc consts  --      0.6847                 3.6291                 0.6773
 IR Inten    --      8.5984                29.7623                25.1252

                     34                     35                     36
                      A                      A                      A
 Frequencies --    897.5220               930.9675               946.0889
 Red. masses --      2.0767                 1.6307                 2.3097
 Frc consts  --      0.9856                 0.8327                 1.2181
 IR Inten    --      2.6049                 0.5004                 1.6974

                     37                     38                     39
                      A                      A                      A
 Frequencies --    959.5918               968.1572               986.0614
 Red. masses --      2.5680                 1.5130                 2.5546
 Frc consts  --      1.3932                 0.8355                 1.4635
 IR Inten    --      8.5512                 0.7722                 0.0579

                     40                     41                     42
                      A                      A                      A
 Frequencies --    990.9635              1070.3584              1115.0767
 Red. masses --      1.2705                 2.3848                 3.8667
 Frc consts  --      0.7351                 1.6098                 2.8327
 IR Inten    --      0.4289                 1.4739                11.3110

                     43                     44                     45
                      A                      A                      A
 Frequencies --   1128.8975              1137.0315              1177.2097
 Red. masses --      2.4924                 3.3125                 1.9618
 Frc consts  --      1.8715                 2.5232                 1.6018
 IR Inten    --     12.8447                21.0352                 3.4182

                     46                     47                     48
                      A                      A                      A
 Frequencies --   1191.1757              1207.2593              1218.5956
 Red. masses --      1.4924                 2.3631                 1.3306
 Frc consts  --      1.2476                 2.0292                 1.1642
 IR Inten    --      8.3822                 8.1521                 1.3139

                     49                     50                     51
                      A                      A                      A
 Frequencies --   1244.2167              1273.5287              1278.3715
 Red. masses --      1.2807                 1.3250                 1.2406
 Frc consts  --      1.1681                 1.2662                 1.1945
 IR Inten    --      1.4210                 0.3003                 2.0381

                     52                     53                     54
                      A                      A                      A
 Frequencies --   1285.5471              1289.6880              1303.2295
 Red. masses --      1.3895                 1.4987                 1.4912
 Frc consts  --      1.3529                 1.4687                 1.4922
 IR Inten    --     13.3199                17.9717                26.5712

                     55                     56                     57
                      A                      A                      A
 Frequencies --   1319.1865              1326.6601              1372.1277
 Red. masses --      1.6714                 1.9313                 1.4281
 Frc consts  --      1.7138                 2.0027                 1.5841
 IR Inten    --     36.1727                63.9246                 5.5022

                     58                     59                     60
                      A                      A                      A
 Frequencies --   1387.1101              1399.7655              1411.6900
 Red. masses --      4.3861                 3.1585                 1.8531
 Frc consts  --      4.9723                 3.6462                 2.1758
 IR Inten    --    223.6132                62.8157                26.3682

                     61                     62                     63
                      A                      A                      A
 Frequencies --   1448.3908              1508.6385              1515.3726
 Red. masses --      2.6212                 1.0900                 1.0857
 Frc consts  --      3.2399                 1.4616                 1.4689
 IR Inten    --      1.9435                 0.8118                 5.0238

                     64                     65                     66
                      A                      A                      A
 Frequencies --   1528.8093              1537.2991              1544.4033
 Red. masses --      1.4614                 1.6352                 1.2136
 Frc consts  --      2.0124                 2.2769                 1.7055
 IR Inten    --    115.7998                40.9751                 2.0554

                     67                     68                     69
                      A                      A                      A
 Frequencies --   1569.7352              1605.3053              1638.0947
 Red. masses --      2.2799                 4.2453                 6.3742
 Frc consts  --      3.3099                 6.4458                10.0775
 IR Inten    --    154.0510                64.6387               145.2916

                     70                     71                     72
                      A                      A                      A
 Frequencies --   1669.2318              2355.9474              3043.7887
 Red. masses --      6.7265                12.6808                 1.0641
 Frc consts  --     11.0426                41.4693                 5.8085
 IR Inten    --    278.6871                17.7050                18.1619

                     73                     74                     75
                      A                      A                      A
 Frequencies --   3049.2180              3060.5680              3070.1491
 Red. masses --      1.0836                 1.0575                 1.0610
 Frc consts  --      5.9361                 5.8362                 5.8926
 IR Inten    --      9.9489                41.7956                18.8698

                     76                     77                     78
                      A                      A                      A
 Frequencies --   3078.3620              3092.3121              3109.8387
 Red. masses --      1.0623                 1.1010                 1.1069
 Frc consts  --      5.9312                 6.2031                 6.3073
 IR Inten    --     39.9699                20.9762                23.1443

                     79                     80                     81
                      A                      A                      A
 Frequencies --   3121.6620              3136.5373              3202.8700
 Red. masses --      1.1065                 1.1081                 1.0911
 Frc consts  --      6.3527                 6.4227                 6.5946
 IR Inten    --     20.7847                59.0833                 3.2712

                     82                     83                     84
                      A                      A                      A
 Frequencies --   3236.6352              3251.3233              3597.2445
 Red. masses --      1.0894                 1.0949                 1.0757
 Frc consts  --      6.7237                 6.8191                 8.2016
 IR Inten    --      0.7220                 0.7992                39.3836

 - Thermochemistry -
 -------------------
 Temperature   298.150 Kelvin.  Pressure   1.00000 Atm.
 Atom     1 has atomic number  6 and mass  12.00000

 Molecular mass:   231.10078 amu.
 Principal axes and moments of inertia in atomic units:
                           1         2         3
     Eigenvalues --  2669.748196759.045248996.43752
           X            0.99955   0.03007   0.00096
           Y           -0.03006   0.99952  -0.00727
           Z           -0.00118   0.00724   0.99997
 This molecule is an asymmetric top.
 Rotational symmetry number  1.
 Warning -- assumption of classical behavior for rotation
           may cause significant error
 Rotational temperatures (Kelvin)      0.03244     0.01281     0.00963
 Rotational constants (GHZ):           0.67600     0.26701     0.20061
 Zero-point vibrational energy     629797.3 (Joules/Mol)
                                  150.52517 (Kcal/Mol)
 Warning -- explicit consideration of  22 degrees of freedom as
           vibrations may cause significant error
 Vibrational temperatures:     49.84    63.66    71.62   107.45   147.09
          (Kelvin)            162.18   190.21   229.34   265.83   317.70
                              364.97   389.60   435.54   496.91   562.83
                              601.73   620.07   690.12   718.39   757.90
                              818.53   846.80   904.82   936.35   979.72
                             1013.86  1075.61  1103.82  1135.18  1156.21
                             1194.26  1213.89  1248.97  1291.33  1339.45
                             1361.21  1380.64  1392.96  1418.72  1425.78
                             1540.01  1604.35  1624.23  1635.93  1693.74
                             1713.84  1736.98  1753.29  1790.15  1832.32
                             1839.29  1849.62  1855.57  1875.06  1898.02
                             1908.77  1974.19  1995.74  2013.95  2031.11
                             2083.91  2170.59  2180.28  2199.62  2211.83
                             2222.05  2258.50  2309.68  2356.85  2401.65
                             3389.68  4379.33  4387.14  4403.47  4417.26
                             4429.08  4449.15  4474.36  4491.38  4512.78
                             4608.22  4656.80  4677.93  5175.63

 Zero-point correction=                           0.239877 (Hartree/Particle)
 Thermal correction to Energy=                    0.255214
 Thermal correction to Enthalpy=                  0.256158
 Thermal correction to Gibbs Free Energy=         0.195598
 Sum of electronic and zero-point Energies=           -779.479198
 Sum of electronic and thermal Energies=              -779.463860
 Sum of electronic and thermal Enthalpies=            -779.462916
 Sum of electronic and thermal Free Energies=         -779.523477

                     E (Thermal)             CV                S
                      KCal/Mol        Cal/Mol-Kelvin    Cal/Mol-Kelvin
 Total                  160.149             57.480            127.461
 Electronic               0.000              0.000              0.000
 Translational            0.889              2.981             42.215
 Rotational               0.889              2.981             33.451
 Vibrational            158.372             51.518             51.795
 Vibration     1          0.594              1.983              5.544
 Vibration     2          0.595              1.980              5.059
 Vibration     3          0.595              1.978              4.826
 Vibration     4          0.599              1.966              4.026
 Vibration     5          0.604              1.947              3.411
 Vibration     6          0.607              1.939              3.222
 Vibration     7          0.612              1.921              2.914
 Vibration     8          0.621              1.892              2.557
 Vibration     9          0.631              1.861              2.280
 Vibration    10          0.648              1.809              1.952
 Vibration    11          0.665              1.757              1.705
 Vibration    12          0.674              1.727              1.591
 Vibration    13          0.694              1.669              1.402
 Vibration    14          0.724              1.585              1.187
 Vibration    15          0.759              1.489              0.996
 Vibration    16          0.781              1.431              0.898
 Vibration    17          0.792              1.403              0.855
 Vibration    18          0.836              1.295              0.711
 Vibration    19          0.855              1.252              0.660
 Vibration    20          0.882              1.191              0.594
 Vibration    21          0.925              1.099              0.506
 Vibration    22          0.946              1.056              0.470

                           ! Non-Optimized Parameters !
 Normal termination of Gaussian 16 at Fri Dec 11 11:57:14 2020.

 ----------------------------------------------------------------------
 # B3LYP/6-311++G(d,p) empiricaldispersion=gd3bj scf=xqc pop=npa geom=c
 heck
 ----------------------------------------------------------------------

 ---------------------------------------
 CID_113444424_JID_7058_Energie_neutraal
 ---------------------------------------
 Structure from the checkpoint file:  "JID_7058.chk"
 Charge =  0 Multiplicity = 1

 SCF Done:  E(RB3LYP) =  -779.935130895     A.U. after   17 cycles
 Normal termination of Gaussian 16 at Fri Dec 11 12:02:51 2020.

 ----------------------------------------------------------------------
 # B3LYP/6-311++G(d,p) empiricaldispersion=gd3bj scf=xqc pop=npa geom=c
 heck
 ----------------------------------------------------------------------

 -------------------------------------
 CID_113444424_JID_7058_Energie_kation
 -------------------------------------
 Structure from the checkpoint file:  "JID_7058.chk"
 Charge =  1 Multiplicity = 2

 SCF Done:  E(UB3LYP) =  -779.627415046     A.U. after   28 cycles
 Normal termination of Gaussian 16 at Fri Dec 11 12:15:25 2020.
 Gaussian 16:  ES64L-G16RevA.03 25-Dec-2016

 ----------------------------------------------------------------------
 # B3LYP/6-311++G(d,p) empiricaldispersion=gd3bj scf=xqc pop=npa geom=c
 heck
 ----------------------------------------------------------------------

 ------------------------------------
 CID_113444424_JID_7058_Energie_anion
 ------------------------------------
 Structure from the checkpoint file:  "JID_7058.chk"
 Charge = -1 Multiplicity = 2

                         Standard orientation:
 ---------------------------------------------------------------------
 Center     Atomic      Atomic             Coordinates (Angstroms)
 Number     Number       Type             X           Y           Z
 ---------------------------------------------------------------------
      1          6           0       -4.914445   -1.363148   -0.107193
      2          6           0       -4.276214   -0.161183   -0.851722
      3          6           0       -2.877857   -0.722322   -0.480645
      4          6           0       -3.564239   -1.577277    0.626071
      5          6           0       -1.804120    0.269329   -0.065386
      6          7           0       -0.645190   -0.447328    0.462934
      7          6           0        0.669325   -0.144814    0.251791
      8          6           0        1.191773    1.149368   -0.001768
      9          6           0        2.532947    1.347528   -0.353993
     10          6           0        3.424350    0.293579   -0.386222
     11          6           0        2.948737   -0.992836   -0.058702
     12          6           0        1.608057   -1.204024    0.241788
     13          6           0        3.848831   -2.109115   -0.060704
     14          7           0        4.580331   -3.012786   -0.063440
     15          7           0        0.409137    2.362884    0.208511
     16          8           0       -0.431234    2.353320    1.111973
     17          8           0        0.677178    3.347746   -0.483069
     18          1           0       -5.140226   -2.188965   -0.789152
     19          1           0       -5.796536   -1.167493    0.508614
     20          1           0       -4.502937   -0.032888   -1.913905
     21          1           0       -4.471530    0.784914   -0.334647
     22          1           0       -2.499523   -1.368470   -1.283089
     23          1           0       -3.542087   -1.060316    1.592243
     24          1           0       -3.221371   -2.607210    0.771058
     25          1           0       -1.492645    0.870356   -0.929741
     26          1           0       -2.197928    0.965375    0.683018
     27          1           0       -0.816622   -1.427325    0.644410
     28          1           0        2.853333    2.359952   -0.566283
     29          1           0        4.467170    0.445783   -0.635727
     30          1           0        1.260536   -2.212131    0.446044
 ---------------------------------------------------------------------

 SCF Done:  E(UB3LYP) =  -779.984920525     A.U. after   23 cycles

 The electronic state is 2-A.
 Alpha  occ. eigenvalues --  -18.96477 -18.96446 -14.34499 -14.21442 -14.17970
 Alpha  occ. eigenvalues --  -10.10537 -10.09756 -10.09441 -10.09326 -10.09228
 Alpha  occ. eigenvalues --  -10.09147 -10.08154 -10.07828 -10.07354 -10.05566
 Alpha  occ. eigenvalues --  -10.05445 -10.04924  -1.04457  -0.87282  -0.83280
 Alpha  occ. eigenvalues --   -0.78235  -0.77134  -0.73661  -0.66745  -0.64989
 Alpha  occ. eigenvalues --   -0.60465  -0.58559  -0.56862  -0.53409  -0.50530
 Alpha  occ. eigenvalues --   -0.47354  -0.46460  -0.43620  -0.41206  -0.40447
 Alpha  occ. eigenvalues --   -0.38618  -0.37109  -0.36673  -0.36169  -0.34141
 Alpha  occ. eigenvalues --   -0.33383  -0.31662  -0.31448  -0.30889  -0.29673
 Alpha  occ. eigenvalues --   -0.28658  -0.27303  -0.27107  -0.25091  -0.24521
 Alpha  occ. eigenvalues --   -0.24051  -0.23405  -0.23079  -0.22142  -0.20952
 Alpha  occ. eigenvalues --   -0.18645  -0.15182  -0.14558  -0.13951  -0.11736
 Alpha  occ. eigenvalues --   -0.09369   0.01229
 Alpha virt. eigenvalues --    0.05769   0.07387   0.07772   0.08715   0.09352
 Alpha virt. eigenvalues --    0.09935   0.10718   0.10815   0.11228   0.11629
 Alpha virt. eigenvalues --    0.12097   0.12749   0.13044   0.14046   0.14975

  Beta  occ. eigenvalues --  -18.96046 -18.96032 -14.33966 -14.21384 -14.17760
  Beta  occ. eigenvalues --  -10.10480 -10.09756 -10.09434 -10.09325 -10.09227
  Beta  occ. eigenvalues --  -10.09147 -10.08183 -10.07741 -10.07086 -10.05510
  Beta  occ. eigenvalues --  -10.05483 -10.04781  -1.03549  -0.86496  -0.83145
  Beta  occ. eigenvalues --   -0.77926  -0.77109  -0.73371  -0.66173  -0.64825
  Beta  occ. eigenvalues --   -0.60279  -0.58540  -0.56184  -0.53266  -0.50362
  Beta  occ. eigenvalues --   -0.47290  -0.45992  -0.43489  -0.41181  -0.40346
  Beta  occ. eigenvalues --   -0.38075  -0.36745  -0.36425  -0.34261  -0.33902
  Beta  occ. eigenvalues --   -0.33002  -0.31476  -0.31378  -0.30609  -0.29514
  Beta  occ. eigenvalues --   -0.28458  -0.27081  -0.26484  -0.24930  -0.24422
  Beta  occ. eigenvalues --   -0.23800  -0.23352  -0.22592  -0.21932  -0.20832
  Beta  occ. eigenvalues --   -0.18076  -0.13698  -0.13379  -0.12270  -0.11051
  Beta  occ. eigenvalues --   -0.08644
  Beta virt. eigenvalues --    0.05761   0.07183   0.07386   0.07783   0.08715
  Beta virt. eigenvalues --    0.09826   0.10654   0.10841   0.11340   0.11619
  Beta virt. eigenvalues --    0.12105   0.12414   0.12800   0.13229   0.14136

 Mulliken charges and spin densities:
               1          2
     1  C   -0.247799  -0.001158
     2  C   -0.521716  -0.002708
     3  C    0.169566   0.011648
     4  C   -0.453111   0.000298
     5  C   -0.573892  -0.013573
     6  N    0.122715   0.025822
     7  C    0.223817   0.062966
     8  C   -0.256664   0.007059
     9  C    0.064319   0.145793
    10  C   -1.098644  -0.047607
    11  C    1.574928   0.189153
    12  C    0.127139   0.095804
    13  C   -1.438323  -0.083264
    14  N   -0.282744   0.112238
    15  N   -0.264473   0.168699
    16  O   -0.112534   0.166002
    17  O   -0.144169   0.154330
    18  H    0.121810  -0.000097
    19  H    0.134164   0.000380
    20  H    0.119690   0.000032
    21  H    0.138179   0.000325
    22  H    0.195043  -0.001862
    23  H    0.173947   0.000323
    24  H    0.112378   0.000028
    25  H    0.171525   0.013332
    26  H    0.202300  -0.000532
    27  H    0.299270  -0.000863
    28  H    0.213022  -0.002081
    29  H    0.132724   0.003693
    30  H    0.097534  -0.004179
 Sum of Mulliken charges =  -1.00000   1.00000

 Dipole moment (field-independent basis, Debye):
    X=             -9.3437    Y=             -3.6012    Z=             -1.0292  Tot=             10.0664
 Quadrupole moment (field-independent basis, Debye-Ang):
   XX=           -148.2250   YY=           -151.1552   ZZ=           -110.2889
   XY=             26.3890   XZ=              1.8842   YZ=             -2.3994

 Summary of Natural Population Analysis:

                                       Natural Population
                Natural  -----------------------------------------------
    Atom  No    Charge         Core      Valence    Rydberg      Total
 -----------------------------------------------------------------------
      C    1   -0.19053      0.99966     2.18432    0.00654     3.19053
      C    2   -0.18699      0.99964     2.18011    0.00724     3.18699
      C    3   -0.10826      0.99960     2.10046    0.00820     3.10826
      C    4   -0.19296      0.99964     2.18617    0.00715     3.19296
      C    5   -0.08711      0.99958     2.07635    0.01118     3.08711
      N    6   -0.29518      0.99966     2.78402    0.01149     3.79518
      C    7    0.10771      0.99947     1.88235    0.01047     2.89229
      C    8    0.03554      0.99939     1.95167    0.01340     2.96446
      C    9   -0.06250      0.99954     2.05406    0.00890     3.06250
      C   10   -0.12110      0.99954     2.11314    0.00841     3.12110
      C   11   -0.04477      0.99942     2.03452    0.01083     3.04477
      C   12   -0.08805      0.99952     2.08154    0.00699     3.08805
      C   13    0.14886      0.99964     1.83310    0.01839     2.85114
      N   14   -0.17207      0.99979     2.66120    0.01108     3.67207
      N   15    0.29274      0.99971     2.18003    0.02752     3.20726
      O   16   -0.19430      0.99990     3.18548    0.00892     4.19430
      O   17   -0.19802      0.99990     3.19062    0.00750     4.19802
      H   18    0.09228      0.00000     0.40647    0.00125     0.40772
      H   19    0.09265      0.00000     0.40624    0.00111     0.40735
      H   20    0.09513      0.00000     0.40395    0.00092     0.40487
      H   21    0.09812      0.00000     0.40072    0.00116     0.40188
      H   22    0.09513      0.00000     0.40358    0.00130     0.40487
      H   23    0.09919      0.00000     0.39982    0.00099     0.40081
      H   24    0.09416      0.00000     0.40486    0.00098     0.40584
      H   25    0.09909      0.00000     0.39932    0.00159     0.40091
      H   26    0.10531      0.00000     0.39347    0.00122     0.39469
      H   27    0.17887      0.00000     0.31924    0.00189     0.32113
      H   28    0.11237      0.00000     0.38647    0.00116     0.38763
      H   29    0.10019      0.00000     0.39891    0.00090     0.39981
      H   30    0.09447      0.00000     0.40452    0.00100     0.40553
 =======================================================================
   * Total *   -0.00000     16.99360    43.80673    0.19967    61.00000

 Normal termination of Gaussian 16 at Fri Dec 11 12:23:31 2020.
