 Gaussian 16, Revision A.03,

 -----------------------------------------------------------
 # opt freq B3LYP/6-31G(d) empiricaldispersion=gd3bj scf=xqc
 -----------------------------------------------------------

 -------------------------------
 CID_113536360_JID_9721_neutraal
 -------------------------------
 Symbolic Z-matrix:
 Charge =  0 Multiplicity = 1

 SCF Done:  E(RB3LYP) =  -789.303161938     A.U. after   15 cycles
 SCF Done:  E(RB3LYP) =  -789.307523223     A.U. after   13 cycles
 SCF Done:  E(RB3LYP) =  -789.305131341     A.U. after   13 cycles
 SCF Done:  E(RB3LYP) =  -789.306200845     A.U. after   13 cycles
 SCF Done:  E(RB3LYP) =  -789.308521357     A.U. after    9 cycles
 SCF Done:  E(RB3LYP) =  -789.309244760     A.U. after   12 cycles
 SCF Done:  E(RB3LYP) =  -789.310486891     A.U. after   14 cycles
 SCF Done:  E(RB3LYP) =  -789.311295604     A.U. after   13 cycles
 SCF Done:  E(RB3LYP) =  -789.310703299     A.U. after   14 cycles
 SCF Done:  E(RB3LYP) =  -789.312295337     A.U. after   12 cycles
 SCF Done:  E(RB3LYP) =  -789.315484742     A.U. after    9 cycles
 SCF Done:  E(RB3LYP) =  -789.315487968     A.U. after   10 cycles
 SCF Done:  E(RB3LYP) =  -789.315487109     A.U. after    9 cycles
 SCF Done:  E(RB3LYP) =  -789.315487047     A.U. after    9 cycles
 SCF Done:  E(RB3LYP) =  -789.315487107     A.U. after    7 cycles
 SCF Done:  E(RB3LYP) =  -789.315487110     A.U. after    6 cycles
 Optimization completed.
    -- Stationary point found.
 Normal termination of Gaussian 16 at Mon Dec 14 15:12:04 2020.

 --------------------------------------------------------------------
 #N Geom=AllCheck Guess=TCheck SCRF=Check GenChk RB3LYP/6-31G(d) Freq
 --------------------------------------------------------------------

 Structure from the checkpoint file:  "JID_9721.chk"
 -------------------------------
 CID_113536360_JID_9721_neutraal
 -------------------------------
 Charge =  0 Multiplicity = 1

 SCF Done:  E(RB3LYP) =  -789.315487110     A.U. after    1 cycles

  Exact polarizability: 188.102  24.353 171.118  25.961 -30.087 150.332
 Approx polarizability: 307.047  52.518 276.395  57.179 -71.356 255.867

                      1                      2                      3
                      A                      A                      A
 Frequencies --     26.4111                34.1176                49.4753
 Red. masses --      2.4557                 1.2618                 5.1378
 Frc consts  --      0.0010                 0.0009                 0.0074
 IR Inten    --      0.0612                 0.3382                 0.8241

                      4                      5                      6
                      A                      A                      A
 Frequencies --     55.2766                79.1921                92.5421
 Red. masses --      4.9310                 3.6280                 4.3093
 Frc consts  --      0.0089                 0.0134                 0.0217
 IR Inten    --      0.8392                 0.1976                 0.4350

                      7                      8                      9
                      A                      A                      A
 Frequencies --    100.9598               147.8808               176.4423
 Red. masses --      5.9687                 2.2511                 1.2557
 Frc consts  --      0.0358                 0.0290                 0.0230
 IR Inten    --      3.0676                 0.7619                 0.0436

                     10                     11                     12
                      A                      A                      A
 Frequencies --    182.5655               217.4298               242.3682
 Red. masses --      3.8374                 3.3065                 3.8831
 Frc consts  --      0.0754                 0.0921                 0.1344
 IR Inten    --      0.4008                 9.8982                 0.9074

                     13                     14                     15
                      A                      A                      A
 Frequencies --    255.1173               291.7156               315.4032
 Red. masses --      3.8797                 2.6125                 2.9815
 Frc consts  --      0.1488                 0.1310                 0.1748
 IR Inten    --      0.5337                 0.6287                 1.2984

                     16                     17                     18
                      A                      A                      A
 Frequencies --    336.9974               367.7452               415.5655
 Red. masses --      3.0418                 2.7361                 1.9309
 Frc consts  --      0.2035                 0.2180                 0.1965
 IR Inten    --      3.9294                 9.7027                42.0391

                     19                     20                     21
                      A                      A                      A
 Frequencies --    425.8211               442.1090               458.8579
 Red. masses --      2.6728                 2.3365                 2.8586
 Frc consts  --      0.2855                 0.2691                 0.3546
 IR Inten    --      9.9745                30.2545                 3.9964

                     22                     23                     24
                      A                      A                      A
 Frequencies --    467.0363               488.2875               512.0162
 Red. masses --      4.2149                 3.7177                 3.1321
 Frc consts  --      0.5417                 0.5222                 0.4838
 IR Inten    --      0.3812                23.6579                24.6841

                     25                     26                     27
                      A                      A                      A
 Frequencies --    527.7901               557.8279               559.3314
 Red. masses --      3.0385                 3.7118                 4.4386
 Frc consts  --      0.4987                 0.6805                 0.8182
 IR Inten    --      2.4941                 3.9014                 1.8242

                     28                     29                     30
                      A                      A                      A
 Frequencies --    628.5266               635.1468               656.8300
 Red. masses --      4.7016                 4.2589                 3.8524
 Frc consts  --      1.0943                 1.0123                 0.9792
 IR Inten    --      6.2576                 4.6620                 4.2504

                     31                     32                     33
                      A                      A                      A
 Frequencies --    706.5264               725.9269               731.4118
 Red. masses --      2.1061                 3.9219                 3.9295
 Frc consts  --      0.6194                 1.2177                 1.2385
 IR Inten    --     12.7635                 0.6884                 0.5995

                     34                     35                     36
                      A                      A                      A
 Frequencies --    760.7999               775.2215               814.7349
 Red. masses --      1.7424                 4.3932                 2.5781
 Frc consts  --      0.5942                 1.5556                 1.0083
 IR Inten    --     62.9870                 1.2722                 1.9336

                     37                     38                     39
                      A                      A                      A
 Frequencies --    819.5666               828.8607               834.3494
 Red. masses --      1.7053                 1.2913                 2.4525
 Frc consts  --      0.6749                 0.5227                 1.0059
 IR Inten    --     12.5017                 0.5095                 2.6956

                     40                     41                     42
                      A                      A                      A
 Frequencies --    882.2305               921.2526               944.0680
 Red. masses --      1.4511                 1.3471                 1.8106
 Frc consts  --      0.6654                 0.6736                 0.9508
 IR Inten    --     12.2386                 3.7300                 1.0690

                     43                     44                     45
                      A                      A                      A
 Frequencies --    945.1967               948.4081               953.7527
 Red. masses --      2.7803                 1.3263                 1.5768
 Frc consts  --      1.4635                 0.7029                 0.8451
 IR Inten    --      1.5285                 0.1218                 1.0975

                     46                     47                     48
                      A                      A                      A
 Frequencies --    974.5486              1005.5859              1015.2449
 Red. masses --      1.2245                 1.9861                 5.7149
 Frc consts  --      0.6852                 1.1833                 3.4706
 IR Inten    --      0.4870                 1.2415                 0.5004

                     49                     50                     51
                      A                      A                      A
 Frequencies --   1033.7105              1044.6810              1061.9108
 Red. masses --      1.8379                 1.4074                 2.2306
 Frc consts  --      1.1571                 0.9050                 1.4820
 IR Inten    --      6.5395                 0.1710                 1.1277

                     52                     53                     54
                      A                      A                      A
 Frequencies --   1072.8365              1078.9920              1113.1389
 Red. masses --      1.5118                 1.5067                 2.0091
 Frc consts  --      1.0252                 1.0335                 1.4667
 IR Inten    --      1.3936                12.5535                 6.4489

                     55                     56                     57
                      A                      A                      A
 Frequencies --   1122.8213              1143.5372              1163.6541
 Red. masses --      2.1945                 2.0878                 2.0138
 Frc consts  --      1.6301                 1.6086                 1.6066
 IR Inten    --     14.4994                10.4190                19.6447

                     58                     59                     60
                      A                      A                      A
 Frequencies --   1192.6031              1195.7710              1221.8850
 Red. masses --      1.0847                 1.3970                 1.1359
 Frc consts  --      0.9090                 1.1769                 0.9992
 IR Inten    --      1.4241                 0.8265                 5.8890

                     61                     62                     63
                      A                      A                      A
 Frequencies --   1246.6688              1254.9533              1274.4099
 Red. masses --      1.8034                 1.5253                 3.2295
 Frc consts  --      1.6514                 1.4154                 3.0904
 IR Inten    --     15.1755                10.6955                 4.1039

                     64                     65                     66
                      A                      A                      A
 Frequencies --   1282.4165              1304.9851              1311.6919
 Red. masses --      1.6782                 1.6482                 2.2088
 Frc consts  --      1.6261                 1.6538                 2.2391
 IR Inten    --     17.5723                10.0367                37.6961

                     67                     68                     69
                      A                      A                      A
 Frequencies --   1339.3713              1353.5140              1363.2038
 Red. masses --      1.4995                 1.6927                 4.0371
 Frc consts  --      1.5849                 1.8271                 4.4202
 IR Inten    --     10.0256                79.7413                12.2204

                     70                     71                     72
                      A                      A                      A
 Frequencies --   1378.1746              1384.2586              1437.1160
 Red. masses --      3.3089                 1.3643                 1.2710
 Frc consts  --      3.7029                 1.5403                 1.5467
 IR Inten    --      8.9102                 0.6052                 1.7659

                     73                     74                     75
                      A                      A                      A
 Frequencies --   1441.3100              1457.0489              1477.7662
 Red. masses --      1.2494                 2.5871                 1.5143
 Frc consts  --      1.5292                 3.2360                 1.9484
 IR Inten    --      0.0935                 1.8817                 8.5227

                     76                     77                     78
                      A                      A                      A
 Frequencies --   1493.5278              1495.4501              1516.1085
 Red. masses --      1.2088                 1.0900                 1.0542
 Frc consts  --      1.5886                 1.4362                 1.4278
 IR Inten    --      6.5142                10.0877                 1.8330

                     79                     80                     81
                      A                      A                      A
 Frequencies --   1517.0237              1523.1436              1536.8675
 Red. masses --      1.0509                 1.0953                 1.1270
 Frc consts  --      1.4249                 1.4972                 1.5684
 IR Inten    --      4.1419                 5.1729                 8.2760

                     82                     83                     84
                      A                      A                      A
 Frequencies --   1543.5254              1559.2416              1560.6780
 Red. masses --      1.7738                 2.6286                 2.4280
 Frc consts  --      2.4899                 3.7653                 3.4844
 IR Inten    --      1.3601                14.8380                90.6437

                     85                     86                     87
                      A                      A                      A
 Frequencies --   1633.8397              1652.1121              1672.2581
 Red. masses --      5.6456                 5.0327                 5.5790
 Frc consts  --      8.8793                 8.0933                 9.1920
 IR Inten    --      3.4277                 3.4084                67.9256

                     88                     89                     90
                      A                      A                      A
 Frequencies --   1678.0522              1805.7815              3026.2330
 Red. masses --      5.8262                11.2090                 1.0616
 Frc consts  --      9.6660                21.5352                 5.7281
 IR Inten    --     10.5941               133.4564                42.0589

                     91                     92                     93
                      A                      A                      A
 Frequencies --   3038.6119              3044.1236              3076.0854
 Red. masses --      1.0404                 1.0409                 1.0645
 Frc consts  --      5.6598                 5.6832                 5.9348
 IR Inten    --     35.7122                31.2170                13.5244

                     94                     95                     96
                      A                      A                      A
 Frequencies --   3078.9474              3093.0756              3102.7781
 Red. masses --      1.1003                 1.0967                 1.0950
 Frc consts  --      6.1457                 6.1821                 6.2113
 IR Inten    --     13.2804                26.2647                15.3142

                     97                     98                     99
                      A                      A                      A
 Frequencies --   3125.6033              3131.3229              3148.8975
 Red. masses --      1.1015                 1.1017                 1.0986
 Frc consts  --      6.3402                 6.3648                 6.4180
 IR Inten    --     14.9000                13.3776                 7.5249

                    100                    101                    102
                      A                      A                      A
 Frequencies --   3166.9197              3172.9955              3183.6839
 Red. masses --      1.0871                 1.0867                 1.0899
 Frc consts  --      6.4239                 6.4462                 6.5089
 IR Inten    --     12.7112                10.6435                 7.5154

                    103                    104                    105
                      A                      A                      A
 Frequencies --   3185.2558              3191.8766              3192.9195
 Red. masses --      1.0866                 1.0944                 1.0920
 Frc consts  --      6.4952                 6.5693                 6.5589
 IR Inten    --      0.0968                21.4269                30.5401

                    106                    107                    108
                      A                      A                      A
 Frequencies --   3210.5576              3230.0869              3599.4862
 Red. masses --      1.0961                 1.0921                 1.0764
 Frc consts  --      6.6566                 6.7132                 8.2169
 IR Inten    --     26.4832                 4.9906                14.1060

 - Thermochemistry -
 -------------------
 Temperature   298.150 Kelvin.  Pressure   1.00000 Atm.
 Atom     1 has atomic number  6 and mass  12.00000

 Molecular mass:   253.14666 amu.
 Principal axes and moments of inertia in atomic units:
                           1         2         3
     Eigenvalues --  4147.033834242.650095608.98063
           X            0.18000   0.98216   0.05449
           Y            0.98363  -0.17928  -0.01799
           Z            0.00790  -0.05684   0.99835
 This molecule is an asymmetric top.
 Rotational symmetry number  1.
 Warning -- assumption of classical behavior for rotation
           may cause significant error
 Rotational temperatures (Kelvin)      0.02089     0.02042     0.01544
 Rotational constants (GHZ):           0.43519     0.42538     0.32176
 Zero-point vibrational energy     845006.0 (Joules/Mol)
                                  201.96128 (Kcal/Mol)
 Warning -- explicit consideration of  27 degrees of freedom as
           vibrations may cause significant error
 Vibrational temperatures:     38.00    49.09    71.18    79.53   113.94
          (Kelvin)            133.15   145.26   212.77   253.86   262.67
                              312.83   348.71   367.06   419.71   453.79
                              484.86   529.10   597.91   612.66   636.10
                              660.19   671.96   702.54   736.68   759.37
                              802.59   804.75   904.31   913.83   945.03
                             1016.53  1044.45  1052.34  1094.62  1115.37
                             1172.22  1179.17  1192.55  1200.44  1269.33
                             1325.48  1358.30  1359.93  1364.55  1372.24
                             1402.16  1446.81  1460.71  1487.28  1503.06
                             1527.85  1543.57  1552.43  1601.56  1615.49
                             1645.29  1674.24  1715.89  1720.45  1758.02
                             1793.68  1805.60  1833.59  1845.11  1877.58
                             1887.23  1927.06  1947.40  1961.35  1982.89
                             1991.64  2067.69  2073.72  2096.37  2126.18
                             2148.85  2151.62  2181.34  2182.66  2191.46
                             2211.21  2220.79  2243.40  2245.47  2350.73
                             2377.02  2406.01  2414.34  2598.12  4354.07
                             4371.88  4379.81  4425.80  4429.92  4450.25
                             4464.21  4497.05  4505.28  4530.56  4556.49
                             4565.23  4580.61  4582.87  4592.40  4593.90
                             4619.28  4647.37  5178.86

 Zero-point correction=                           0.321846 (Hartree/Particle)
 Thermal correction to Energy=                    0.339690
 Thermal correction to Enthalpy=                  0.340634
 Thermal correction to Gibbs Free Energy=         0.275089
 Sum of electronic and zero-point Energies=           -788.993641
 Sum of electronic and thermal Energies=              -788.975798
 Sum of electronic and thermal Enthalpies=            -788.974853
 Sum of electronic and thermal Free Energies=         -789.040398

                     E (Thermal)             CV                S
                      KCal/Mol        Cal/Mol-Kelvin    Cal/Mol-Kelvin
 Total                  213.158             68.902            137.950
 Electronic               0.000              0.000              0.000
 Translational            0.889              2.981             42.487
 Rotational               0.889              2.981             32.956
 Vibrational            211.381             62.941             62.507
 Vibration     1          0.593              1.985              6.082
 Vibration     2          0.594              1.983              5.574
 Vibration     3          0.595              1.978              4.838
 Vibration     4          0.596              1.975              4.619
 Vibration     5          0.600              1.963              3.911
 Vibration     6          0.602              1.955              3.606
 Vibration     7          0.604              1.948              3.436
 Vibration     8          0.617              1.905              2.699
 Vibration     9          0.628              1.871              2.366
 Vibration    10          0.630              1.864              2.302
 Vibration    11          0.646              1.815              1.980
 Vibration    12          0.659              1.775              1.785
 Vibration    13          0.665              1.754              1.695
 Vibration    14          0.687              1.689              1.464
 Vibration    15          0.703              1.644              1.334
 Vibration    16          0.718              1.602              1.226
 Vibration    17          0.740              1.539              1.089
 Vibration    18          0.779              1.436              0.907
 Vibration    19          0.788              1.414              0.872
 Vibration    20          0.802              1.378              0.820
 Vibration    21          0.817              1.341              0.769
 Vibration    22          0.824              1.323              0.746
 Vibration    23          0.844              1.276              0.688
 Vibration    24          0.867              1.223              0.629
 Vibration    25          0.883              1.188              0.592
 Vibration    26          0.913              1.123              0.528
 Vibration    27          0.915              1.119              0.525

                           ! Non-Optimized Parameters !
 Normal termination of Gaussian 16 at Mon Dec 14 15:37:59 2020.

 ----------------------------------------------------------------------
 # B3LYP/6-311++G(d,p) empiricaldispersion=gd3bj scf=xqc pop=npa geom=c
 heck
 ----------------------------------------------------------------------

 ---------------------------------------
 CID_113536360_JID_9721_Energie_neutraal
 ---------------------------------------
 Structure from the checkpoint file:  "JID_9721.chk"
 Charge =  0 Multiplicity = 1

 SCF Done:  E(RB3LYP) =  -789.527227419     A.U. after   16 cycles
 Normal termination of Gaussian 16 at Mon Dec 14 15:49:16 2020.

 ----------------------------------------------------------------------
 # B3LYP/6-311++G(d,p) empiricaldispersion=gd3bj scf=xqc pop=npa geom=c
 heck
 ----------------------------------------------------------------------

 -------------------------------------
 CID_113536360_JID_9721_Energie_kation
 -------------------------------------
 Structure from the checkpoint file:  "JID_9721.chk"
 Charge =  1 Multiplicity = 2

 SCF Done:  E(UB3LYP) =  -789.254361465     A.U. after   26 cycles
 Normal termination of Gaussian 16 at Mon Dec 14 16:15:37 2020.
 Gaussian 16:  ES64L-G16RevA.03 25-Dec-2016

 ----------------------------------------------------------------------
 # B3LYP/6-311++G(d,p) empiricaldispersion=gd3bj scf=xqc pop=npa geom=c
 heck
 ----------------------------------------------------------------------

 ------------------------------------
 CID_113536360_JID_9721_Energie_anion
 ------------------------------------
 Structure from the checkpoint file:  "JID_9721.chk"
 Charge = -1 Multiplicity = 2

                         Standard orientation:
 ---------------------------------------------------------------------
 Center     Atomic      Atomic             Coordinates (Angstroms)
 Number     Number       Type             X           Y           Z
 ---------------------------------------------------------------------
      1          6           0       -3.324580    1.592898   -1.283615
      2          6           0       -2.346319    1.184167   -0.209955
      3          6           0       -1.089282    1.782152   -0.115463
      4          6           0       -0.146803    1.384842    0.839496
      5          6           0       -0.469616    0.372385    1.759819
      6          6           0       -1.732602   -0.222445    1.663584
      7          6           0       -2.654202    0.165247    0.696848
      8          6           0        0.494434   -0.087265    2.824953
      9          6           0        1.227336    2.041794    0.804960
     10          6           0        1.869265    1.830366   -0.562113
     11          8           0        1.723245    2.623108   -1.472648
     12          6           0        2.737780    0.580898   -0.780412
     13          7           0        2.347118   -0.573526   -0.002951
     14          6           0        1.272699   -1.383791   -0.393449
     15          6           0        1.067373   -2.605233    0.269355
     16          6           0       -0.031587   -3.399577   -0.038220
     17          6           0       -0.950751   -2.994837   -1.008904
     18          6           0       -0.742709   -1.787570   -1.673346
     19          6           0        0.361335   -0.987904   -1.383047
     20          1           0       -4.340552    1.695192   -0.885325
     21          1           0       -3.041807    2.546649   -1.739921
     22          1           0       -3.366713    0.843624   -2.085323
     23          1           0       -0.815535    2.561779   -0.822217
     24          1           0       -1.990916   -1.016832    2.359061
     25          1           0       -3.621377   -0.329264    0.645633
     26          1           0        1.417909   -0.473290    2.380920
     27          1           0        0.772078    0.729150    3.503851
     28          1           0        0.049937   -0.883058    3.429485
     29          1           0        1.135861    3.124084    0.944566
     30          1           0        1.870164    1.635055    1.587214
     31          1           0        2.772742    0.393974   -1.863118
     32          1           0        3.751110    0.864576   -0.468445
     33          1           0        3.117155   -1.089945    0.399022
     34          1           0        1.769295   -2.917950    1.039606
     35          1           0       -0.172496   -4.339325    0.489084
     36          1           0       -1.814437   -3.610489   -1.240426
     37          1           0       -1.447022   -1.453964   -2.430360
     38          1           0        0.488191   -0.046905   -1.904411
 ---------------------------------------------------------------------

 SCF Done:  E(UB3LYP) =  -789.524523979     A.U. after   32 cycles

 The electronic state is 2-A.
 Alpha  occ. eigenvalues --  -18.97440 -14.20927 -10.11484 -10.10358 -10.08626
 Alpha  occ. eigenvalues --  -10.07546 -10.07211 -10.06865 -10.06844 -10.06728
 Alpha  occ. eigenvalues --  -10.06690 -10.06149 -10.06037 -10.06031 -10.05930
 Alpha  occ. eigenvalues --  -10.05740 -10.05713 -10.05530 -10.05491  -0.91195
 Alpha  occ. eigenvalues --   -0.82394  -0.75410  -0.73693  -0.68682  -0.66205
 Alpha  occ. eigenvalues --   -0.64230  -0.63698  -0.61765  -0.59848  -0.57275
 Alpha  occ. eigenvalues --   -0.54916  -0.50510  -0.49326  -0.48653  -0.45953
 Alpha  occ. eigenvalues --   -0.43035  -0.40656  -0.39240  -0.38132  -0.37816
 Alpha  occ. eigenvalues --   -0.36706  -0.34461  -0.34037  -0.33125  -0.32861
 Alpha  occ. eigenvalues --   -0.32288  -0.31502  -0.31300  -0.30824  -0.30176
 Alpha  occ. eigenvalues --   -0.29717  -0.29353  -0.28730  -0.27053  -0.26716
 Alpha  occ. eigenvalues --   -0.26373  -0.25608  -0.23912  -0.23532  -0.23305
 Alpha  occ. eigenvalues --   -0.22851  -0.21868  -0.19348  -0.14943  -0.14374
 Alpha  occ. eigenvalues --   -0.13193  -0.11543  -0.09553   0.04360
 Alpha virt. eigenvalues --    0.06801   0.07443   0.07789   0.08292   0.08971
 Alpha virt. eigenvalues --    0.09227   0.09442   0.09675   0.09868   0.10460
 Alpha virt. eigenvalues --    0.10769   0.10917   0.11224   0.11692   0.12261

  Beta  occ. eigenvalues --  -18.97218 -14.20861 -10.11203 -10.10359 -10.08640
  Beta  occ. eigenvalues --  -10.07547 -10.07211 -10.06850 -10.06799 -10.06692
  Beta  occ. eigenvalues --  -10.06667 -10.06159 -10.06042 -10.06014 -10.05876
  Beta  occ. eigenvalues --  -10.05761 -10.05707 -10.05521 -10.05482  -0.90740
  Beta  occ. eigenvalues --   -0.82309  -0.75350  -0.73650  -0.68615  -0.66084
  Beta  occ. eigenvalues --   -0.64174  -0.63645  -0.61733  -0.59669  -0.57191
  Beta  occ. eigenvalues --   -0.54869  -0.50442  -0.49250  -0.48577  -0.45850
  Beta  occ. eigenvalues --   -0.42875  -0.40342  -0.39136  -0.38073  -0.37768
  Beta  occ. eigenvalues --   -0.36625  -0.34303  -0.33931  -0.33033  -0.32807
  Beta  occ. eigenvalues --   -0.32181  -0.31456  -0.31188  -0.30655  -0.30124
  Beta  occ. eigenvalues --   -0.29608  -0.29228  -0.28647  -0.27011  -0.26607
  Beta  occ. eigenvalues --   -0.26247  -0.25516  -0.23775  -0.23300  -0.23126
  Beta  occ. eigenvalues --   -0.22777  -0.21258  -0.19227  -0.14829  -0.14184
  Beta  occ. eigenvalues --   -0.13068  -0.11329  -0.09462
  Beta virt. eigenvalues --    0.06696   0.07458   0.08015   0.08325   0.08740
  Beta virt. eigenvalues --    0.09121   0.09444   0.09641   0.09912   0.10185
  Beta virt. eigenvalues --    0.10534   0.10863   0.11519   0.11862   0.11981

 Mulliken charges and spin densities:
               1          2
     1  C   -0.574660  -0.007296
     2  C    0.336885  -0.206541
     3  C   -0.700409  -0.001735
     4  C    1.295529  -0.383990
     5  C   -0.182215   0.740487
     6  C   -0.352386  -0.059307
     7  C   -0.339304   0.112788
     8  C    0.422420  -1.156611
     9  C   -1.004230   0.475391
    10  C   -0.344952   0.351589
    11  O   -0.274312   0.084547
    12  C    0.679133  -1.173652
    13  N   -0.343030   0.069438
    14  C    0.511074  -0.299227
    15  C   -0.778098   0.566387
    16  C   -0.327878  -0.183133
    17  C   -0.353380  -0.059274
    18  C   -0.011516   0.020521
    19  C    1.023319  -0.777126
    20  H    0.126503   0.000527
    21  H    0.128603  -0.001551
    22  H    0.159400   0.003699
    23  H    0.219666   0.012142
    24  H    0.082289   0.048223
    25  H    0.134456   0.009979
    26  H    0.141383   0.052321
    27  H    0.026723   0.129390
    28  H    0.093631   0.025858
    29  H   -0.029008   0.226423
    30  H   -0.037471   0.186071
    31  H    0.270669  -0.070170
    32  H   -0.836974   1.041467
    33  H   -0.376460   0.701233
    34  H   -0.334702   0.490383
    35  H    0.078240   0.062389
    36  H    0.111903   0.009539
    37  H    0.149687   0.007529
    38  H    0.209474  -0.048706
 Sum of Mulliken charges =  -1.00000   1.00000

 Dipole moment (field-independent basis, Debye):
    X=             -8.8319    Y=             -1.3399    Z=             -0.4948  Tot=              8.9467
 Quadrupole moment (field-independent basis, Debye-Ang):
   XX=           -170.6763   YY=           -154.1626   ZZ=           -139.7420
   XY=              0.4852   XZ=              0.1030   YZ=              3.8775

 Summary of Natural Population Analysis:

                                       Natural Population
                Natural  -----------------------------------------------
    Atom  No    Charge         Core      Valence    Rydberg      Total
 -----------------------------------------------------------------------
      C    1   -0.28946      0.99964     2.28521    0.00461     3.28946
      C    2   -0.02453      0.99951     2.01685    0.00817     3.02453
      C    3   -0.09768      0.99946     2.08917    0.00905     3.09768
      C    4    0.00050      0.99945     1.99000    0.01005     2.99950
      C    5   -0.00974      0.99945     2.00081    0.00948     3.00974
      C    6   -0.09660      0.99952     2.08767    0.00942     3.09660
      C    7   -0.09358      0.99951     2.08587    0.00820     3.09358
      C    8   -0.29685      0.99963     2.29133    0.00589     3.29685
      C    9   -0.24555      0.99956     2.23680    0.00918     3.24555
      C   10    0.32554      0.99967     1.65309    0.02171     2.67446
      O   11   -0.28248      0.99987     3.27637    0.00625     4.28248
      C   12   -0.13340      0.99957     2.12087    0.01296     3.13340
      N   13   -0.31756      0.99968     2.80278    0.01511     3.81756
      C   14    0.09276      0.99947     1.89447    0.01330     2.90724
      C   15   -0.12159      0.99951     2.11197    0.01010     3.12159
      C   16   -0.09679      0.99957     2.08708    0.01015     3.09679
      C   17   -0.13111      0.99956     2.12202    0.00953     3.13111
      C   18   -0.08592      0.99957     2.07804    0.00831     3.08592
      C   19   -0.12984      0.99951     2.12115    0.00918     3.12984
      H   20    0.09755      0.00000     0.40152    0.00093     0.40245
      H   21    0.10070      0.00000     0.39853    0.00077     0.39930
      H   22    0.10005      0.00000     0.39896    0.00099     0.39995
      H   23    0.10573      0.00000     0.39319    0.00108     0.39427
      H   24    0.09423      0.00000     0.40439    0.00137     0.40577
      H   25    0.09207      0.00000     0.40679    0.00115     0.40793
      H   26    0.11393      0.00000     0.38448    0.00158     0.38607
      H   27    0.10053      0.00000     0.39868    0.00079     0.39947
      H   28    0.09800      0.00000     0.40116    0.00084     0.40200
      H   29    0.11211      0.00000     0.38676    0.00113     0.38789
      H   30    0.11174      0.00000     0.38665    0.00161     0.38826
      H   31    0.09718      0.00000     0.40148    0.00135     0.40282
      H   32    0.11760      0.00000     0.37804    0.00435     0.38240
      H   33    0.19494      0.00000     0.29266    0.01241     0.30506
      H   34    0.10119      0.00000     0.39719    0.00162     0.39881
      H   35    0.09594      0.00000     0.40331    0.00075     0.40406
      H   36    0.09559      0.00000     0.40357    0.00084     0.40441
      H   37    0.09489      0.00000     0.40398    0.00113     0.40511
      H   38    0.10994      0.00000     0.38858    0.00148     0.39006
 =======================================================================
   * Total *   -0.00000     18.99170    48.78147    0.22683    68.00000

 Normal termination of Gaussian 16 at Mon Dec 14 16:48:30 2020.
