 Gaussian 16, Revision A.03,

 -----------------------------------------------------------
 # opt freq B3LYP/6-31G(d) empiricaldispersion=gd3bj scf=xqc
 -----------------------------------------------------------

 ------------------------------
 CID_62125704_JID_7839_neutraal
 ------------------------------
 Symbolic Z-matrix:
 Charge =  0 Multiplicity = 1

 SCF Done:  E(RB3LYP) =  -732.725422995     A.U. after   14 cycles
 SCF Done:  E(RB3LYP) =  -732.730337567     A.U. after   12 cycles
 SCF Done:  E(RB3LYP) =  -732.731950292     A.U. after   12 cycles
 SCF Done:  E(RB3LYP) =  -732.732718269     A.U. after   12 cycles
 SCF Done:  E(RB3LYP) =  -732.733086570     A.U. after   12 cycles
 SCF Done:  E(RB3LYP) =  -732.733326140     A.U. after   11 cycles
 SCF Done:  E(RB3LYP) =  -732.733389603     A.U. after   11 cycles
 SCF Done:  E(RB3LYP) =  -732.733424634     A.U. after   10 cycles
 SCF Done:  E(RB3LYP) =  -732.733431903     A.U. after    9 cycles
 SCF Done:  E(RB3LYP) =  -732.733435375     A.U. after    8 cycles
 SCF Done:  E(RB3LYP) =  -732.733454316     A.U. after   10 cycles
 SCF Done:  E(RB3LYP) =  -732.733457569     A.U. after    9 cycles
 SCF Done:  E(RB3LYP) =  -732.733456628     A.U. after    9 cycles
 SCF Done:  E(RB3LYP) =  -732.733460145     A.U. after    9 cycles
 SCF Done:  E(RB3LYP) =  -732.733460197     A.U. after    7 cycles
 Optimization completed.
    -- Stationary point found.
 Normal termination of Gaussian 16 at Fri Dec 11 13:42:37 2020.

 --------------------------------------------------------------------
 #N Geom=AllCheck Guess=TCheck SCRF=Check GenChk RB3LYP/6-31G(d) Freq
 --------------------------------------------------------------------

 Structure from the checkpoint file:  "JID_7839.chk"
 ------------------------------
 CID_62125704_JID_7839_neutraal
 ------------------------------
 Charge =  0 Multiplicity = 1

 SCF Done:  E(RB3LYP) =  -732.733460197     A.U. after    1 cycles

  Exact polarizability: 200.537  -1.439 150.011   7.428   0.090 121.909
 Approx polarizability: 251.635  -1.997 238.948  11.467  -3.142 188.084

                      1                      2                      3
                      A                      A                      A
 Frequencies --     35.3469                56.6041                58.2161
 Red. masses --      3.8947                 1.2997                 2.8672
 Frc consts  --      0.0029                 0.0025                 0.0057
 IR Inten    --      2.2955                 0.1853                 2.1993

                      4                      5                      6
                      A                      A                      A
 Frequencies --     69.6439               111.3620               122.9098
 Red. masses --      2.7878                 3.0505                 2.5192
 Frc consts  --      0.0080                 0.0223                 0.0224
 IR Inten    --      1.0629                 0.5194                 0.9146

                      7                      8                      9
                      A                      A                      A
 Frequencies --    182.1150               188.9919               191.7436
 Red. masses --      2.2088                 2.3472                 1.9026
 Frc consts  --      0.0432                 0.0494                 0.0412
 IR Inten    --      0.2505                 0.9535                 0.7369

                     10                     11                     12
                      A                      A                      A
 Frequencies --    223.3049               252.1804               259.6254
 Red. masses --      2.1459                 1.1551                 2.9215
 Frc consts  --      0.0630                 0.0433                 0.1160
 IR Inten    --      0.3687                 0.2559                 0.4263

                     13                     14                     15
                      A                      A                      A
 Frequencies --    266.1320               288.2981               307.5265
 Red. masses --      1.8208                 2.3031                 3.0931
 Frc consts  --      0.0760                 0.1128                 0.1723
 IR Inten    --      0.8013                 2.4203                 0.6921

                     16                     17                     18
                      A                      A                      A
 Frequencies --    311.8388               328.6320               345.1919
 Red. masses --      1.5190                 2.5991                 3.2842
 Frc consts  --      0.0870                 0.1654                 0.2306
 IR Inten    --      1.1216                 0.5911                 3.4411

                     19                     20                     21
                      A                      A                      A
 Frequencies --    354.0319               403.7976               415.9719
 Red. masses --      3.0582                 2.2530                 2.0880
 Frc consts  --      0.2258                 0.2164                 0.2129
 IR Inten    --      0.9181                 5.7402                 6.2205

                     22                     23                     24
                      A                      A                      A
 Frequencies --    426.5584               428.8731               460.5174
 Red. masses --      1.5303                 1.4105                 2.0707
 Frc consts  --      0.1641                 0.1529                 0.2587
 IR Inten    --     24.2728                51.6596                71.9233

                     25                     26                     27
                      A                      A                      A
 Frequencies --    497.3400               501.1694               541.9551
 Red. masses --      2.6862                 2.7869                 3.4297
 Frc consts  --      0.3915                 0.4124                 0.5935
 IR Inten    --      5.3491                 0.9099                 1.7740

                     28                     29                     30
                      A                      A                      A
 Frequencies --    627.2036               636.7304               661.0565
 Red. masses --      3.8397                 3.4840                 5.2151
 Frc consts  --      0.8899                 0.8322                 1.3427
 IR Inten    --      0.8302                 2.6937                 6.8213

                     31                     32                     33
                      A                      A                      A
 Frequencies --    710.3655               767.1712               777.6013
 Red. masses --      3.4763                 2.0797                 2.8408
 Frc consts  --      1.0335                 0.7212                 1.0121
 IR Inten    --      8.4919                12.5774                 0.2687

                     34                     35                     36
                      A                      A                      A
 Frequencies --    795.4307               800.6192               819.2014
 Red. masses --      2.6032                 2.2279                 2.5620
 Frc consts  --      0.9704                 0.8414                 1.0130
 IR Inten    --      5.5523                 3.5187                 1.1206

                     37                     38                     39
                      A                      A                      A
 Frequencies --    870.7271               889.8935               897.1410
 Red. masses --      1.3893                 1.7461                 1.7878
 Frc consts  --      0.6206                 0.8147                 0.8478
 IR Inten    --     10.6018                 0.3744                 6.1558

                     40                     41                     42
                      A                      A                      A
 Frequencies --    915.6588               924.7462               942.4414
 Red. masses --      2.1342                 2.3246                 1.8843
 Frc consts  --      1.0543                 1.1712                 0.9861
 IR Inten    --      9.7223                 0.5362                 7.7572

                     43                     44                     45
                      A                      A                      A
 Frequencies --    953.5472               982.6229              1001.5834
 Red. masses --      1.5701                 1.8438                 1.7536
 Frc consts  --      0.8411                 1.0489                 1.0365
 IR Inten    --      1.8671                 0.4421                 3.7256

                     46                     47                     48
                      A                      A                      A
 Frequencies --   1010.5352              1020.4819              1044.9149
 Red. masses --      3.6707                 1.6026                 2.4535
 Frc consts  --      2.2085                 0.9833                 1.5783
 IR Inten    --     37.4228                 0.8844                25.0963

                     49                     50                     51
                      A                      A                      A
 Frequencies --   1059.7601              1067.1252              1079.2750
 Red. masses --      2.5217                 1.8346                 1.6940
 Frc consts  --      1.6686                 1.2309                 1.1626
 IR Inten    --      6.5290                 8.8738                19.2674

                     52                     53                     54
                      A                      A                      A
 Frequencies --   1081.8457              1096.6929              1122.3358
 Red. masses --      1.6261                 1.7661                 1.9146
 Frc consts  --      1.1213                 1.2515                 1.4209
 IR Inten    --      1.5680                 1.4880                15.1559

                     55                     56                     57
                      A                      A                      A
 Frequencies --   1158.2229              1162.8466              1186.9226
 Red. masses --      1.3313                 1.4779                 1.2712
 Frc consts  --      1.0523                 1.1774                 1.0551
 IR Inten    --      7.3719                10.1479                 3.4636

                     58                     59                     60
                      A                      A                      A
 Frequencies --   1192.7027              1200.4366              1227.3996
 Red. masses --      1.8020                 1.8296                 1.8791
 Frc consts  --      1.5103                 1.5534                 1.6679
 IR Inten    --     10.1393                 9.5407                 0.9237

                     61                     62                     63
                      A                      A                      A
 Frequencies --   1243.7725              1278.6601              1292.8702
 Red. masses --      2.0527                 1.4791                 2.2242
 Frc consts  --      1.8709                 1.4248                 2.1904
 IR Inten    --     11.4885                 3.0905                 5.1189

                     64                     65                     66
                      A                      A                      A
 Frequencies --   1314.1825              1330.2186              1339.1312
 Red. masses --      1.6291                 1.4057                 1.4278
 Frc consts  --      1.6577                 1.4655                 1.5086
 IR Inten    --     13.5636                14.4019                12.9671

                     67                     68                     69
                      A                      A                      A
 Frequencies --   1350.6700              1362.3553              1380.9302
 Red. masses --      2.8749                 1.4360                 1.4840
 Frc consts  --      3.0901                 1.5703                 1.6673
 IR Inten    --      4.4919                 2.7637                 8.8688

                     70                     71                     72
                      A                      A                      A
 Frequencies --   1389.2106              1407.1911              1409.8894
 Red. masses --      1.6895                 2.9540                 1.6563
 Frc consts  --      1.9211                 3.4464                 1.9398
 IR Inten    --      5.4383                 7.0691                 6.9011

                     73                     74                     75
                      A                      A                      A
 Frequencies --   1413.2000              1427.8004              1432.2528
 Red. masses --      1.4252                 1.3386                 1.6451
 Frc consts  --      1.6770                 1.6079                 1.9883
 IR Inten    --      1.3659                 2.5870                27.8090

                     76                     77                     78
                      A                      A                      A
 Frequencies --   1438.0431              1444.5982              1455.0049
 Red. masses --      2.6584                 1.3275                 1.2665
 Frc consts  --      3.2390                 1.6323                 1.5797
 IR Inten    --     33.0820                 8.9370                 3.6159

                     79                     80                     81
                      A                      A                      A
 Frequencies --   1467.7736              1490.8083              1501.9487
 Red. masses --      1.7806                 1.7890                 1.1127
 Frc consts  --      2.2601                 2.3427                 1.4789
 IR Inten    --     24.6854                14.5142                 2.6073

                     82                     83                     84
                      A                      A                      A
 Frequencies --   1506.0506              1507.0986              1510.1376
 Red. masses --      1.0742                 1.0879                 1.0626
 Frc consts  --      1.4355                 1.4558                 1.4277
 IR Inten    --      1.4215                 1.7130                 9.9838

                     85                     86                     87
                      A                      A                      A
 Frequencies --   1519.3492              1520.7777              1524.5306
 Red. masses --      1.0598                 1.0658                 1.0672
 Frc consts  --      1.4415                 1.4523                 1.4614
 IR Inten    --      3.2813                 0.4499                 1.9685

                     88                     89                     90
                      A                      A                      A
 Frequencies --   1533.9420              1536.5583              1540.6234
 Red. masses --      1.0690                 1.0577                 1.0623
 Frc consts  --      1.4820                 1.4713                 1.4856
 IR Inten    --      7.5955                 4.4444                 5.8983

                     91                     92                     93
                      A                      A                      A
 Frequencies --   1545.3920              1549.5812              1611.1894
 Red. masses --      1.1743                 1.0545                 5.0078
 Frc consts  --      1.6523                 1.4919                 7.6594
 IR Inten    --      5.7307                14.7938                 9.9110

                     94                     95                     96
                      A                      A                      A
 Frequencies --   3008.1307              3024.6505              3035.9289
 Red. masses --      1.0780                 1.0643                 1.0437
 Frc consts  --      5.7471                 5.7365                 5.6675
 IR Inten    --      9.9813                47.4018                16.9547

                     97                     98                     99
                      A                      A                      A
 Frequencies --   3039.6041              3044.3375              3050.5069
 Red. masses --      1.0513                 1.0582                 1.0426
 Frc consts  --      5.7227                 5.7783                 5.7162
 IR Inten    --     34.6388                42.6476                45.0396

                    100                    101                    102
                      A                      A                      A
 Frequencies --   3053.9295              3059.3137              3065.1889
 Red. masses --      1.0481                 1.1003                 1.0385
 Frc consts  --      5.7593                 6.0676                 5.7486
 IR Inten    --      7.9028                34.9146                61.4707

                    103                    104                    105
                      A                      A                      A
 Frequencies --   3067.6116              3078.0093              3081.4565
 Red. masses --      1.0718                 1.1019                 1.1031
 Frc consts  --      5.9424                 6.1510                 6.1715
 IR Inten    --     13.1426                18.1291                36.7616

                    106                    107                    108
                      A                      A                      A
 Frequencies --   3100.2043              3105.4779              3107.6611
 Red. masses --      1.1024                 1.1020                 1.1014
 Frc consts  --      6.2424                 6.2616                 6.2670
 IR Inten    --      0.2144                25.8149                86.7492

                    109                    110                    111
                      A                      A                      A
 Frequencies --   3110.1023              3138.0241              3146.3961
 Red. masses --      1.1021                 1.0990                 1.0949
 Frc consts  --      6.2811                 6.3759                 6.3862
 IR Inten    --     45.2734                15.6937                41.7520

                    112                    113                    114
                      A                      A                      A
 Frequencies --   3154.8208              3171.8263              3184.5768
 Red. masses --      1.0929                 1.1055                 1.0877
 Frc consts  --      6.4091                 6.5531                 6.4995
 IR Inten    --     30.2530                 7.2035                30.0357

                    115                    116                    117
                      A                      A                      A
 Frequencies --   3255.5374              3269.1125              3699.2384
 Red. masses --      1.0956                 1.0975                 1.0651
 Frc consts  --      6.8413                 6.9104                 8.5876
 IR Inten    --      5.6597                 0.0669                25.4221

 - Thermochemistry -
 -------------------
 Temperature   298.150 Kelvin.  Pressure   1.00000 Atm.
 Atom     1 has atomic number  6 and mass  12.00000

 Molecular mass:   236.18886 amu.
 Principal axes and moments of inertia in atomic units:
                           1         2         3
     Eigenvalues --  1762.871897101.093897711.65742
           X            0.99995  -0.00704   0.00727
           Y            0.00692   0.99984   0.01631
           Z           -0.00738  -0.01626   0.99984
 This molecule is an asymmetric top.
 Rotational symmetry number  1.
 Warning -- assumption of classical behavior for rotation
           may cause significant error
 Rotational temperatures (Kelvin)      0.04913     0.01220     0.01123
 Rotational constants (GHZ):           1.02375     0.25415     0.23403
 Zero-point vibrational energy     968631.3 (Joules/Mol)
                                  231.50843 (Kcal/Mol)
 Warning -- explicit consideration of  27 degrees of freedom as
           vibrations may cause significant error
 Vibrational temperatures:     50.86    81.44    83.76   100.20   160.23
          (Kelvin)            176.84   262.02   271.92   275.88   321.29
                              362.83   373.54   382.90   414.80   442.46
                              448.67   472.83   496.65   509.37   580.97
                              598.49   613.72   617.05   662.58   715.56
                              721.07   779.75   902.41   916.11   951.11
                             1022.06  1103.79  1118.79  1144.45  1151.91
                             1178.65  1252.78  1280.36  1290.79  1317.43
                             1330.50  1355.96  1371.94  1413.78  1441.06
                             1453.93  1468.25  1503.40  1524.76  1535.36
                             1552.84  1556.53  1577.90  1614.79  1666.42
                             1673.08  1707.72  1716.03  1727.16  1765.95
                             1789.51  1839.71  1860.15  1890.82  1913.89
                             1926.71  1943.31  1960.13  1986.85  1998.76
                             2024.63  2028.52  2033.28  2054.29  2060.69
                             2069.02  2078.45  2093.43  2111.80  2144.94
                             2160.97  2166.87  2168.38  2172.75  2186.00
                             2188.06  2193.46  2207.00  2210.76  2216.61
                             2223.47  2229.50  2318.14  4328.03  4351.80
                             4368.02  4373.31  4380.12  4389.00  4393.92
                             4401.67  4410.12  4413.61  4428.57  4433.53
                             4460.50  4468.09  4471.23  4474.74  4514.92
                             4526.96  4539.08  4563.55  4581.90  4683.99
                             4703.52  5322.38

 Zero-point correction=                           0.368932 (Hartree/Particle)
 Thermal correction to Energy=                    0.386535
 Thermal correction to Enthalpy=                  0.387479
 Thermal correction to Gibbs Free Energy=         0.324240
 Sum of electronic and zero-point Energies=           -732.364528
 Sum of electronic and thermal Energies=              -732.346925
 Sum of electronic and thermal Enthalpies=            -732.345981
 Sum of electronic and thermal Free Energies=         -732.409220

                     E (Thermal)             CV                S
                      KCal/Mol        Cal/Mol-Kelvin    Cal/Mol-Kelvin
 Total                  242.555             69.227            133.099
 Electronic               0.000              0.000              0.000
 Translational            0.889              2.981             42.280
 Rotational               0.889              2.981             32.934
 Vibrational            240.777             63.265             57.885
 Vibration     1          0.594              1.982              5.504
 Vibration     2          0.596              1.975              4.572
 Vibration     3          0.596              1.974              4.517
 Vibration     4          0.598              1.969              4.163
 Vibration     5          0.607              1.940              3.245
 Vibration     6          0.610              1.930              3.054
 Vibration     7          0.630              1.864              2.307
 Vibration     8          0.633              1.855              2.238
 Vibration     9          0.634              1.851              2.211
 Vibration    10          0.649              1.806              1.932
 Vibration    11          0.664              1.759              1.715
 Vibration    12          0.668              1.746              1.664
 Vibration    13          0.672              1.735              1.621
 Vibration    14          0.685              1.695              1.484
 Vibration    15          0.697              1.659              1.376
 Vibration    16          0.700              1.651              1.353
 Vibration    17          0.712              1.618              1.267
 Vibration    18          0.724              1.585              1.188
 Vibration    19          0.730              1.567              1.148
 Vibration    20          0.769              1.462              0.949
 Vibration    21          0.779              1.436              0.906
 Vibration    22          0.788              1.412              0.870
 Vibration    23          0.790              1.407              0.862
 Vibration    24          0.818              1.338              0.765
 Vibration    25          0.853              1.256              0.665
 Vibration    26          0.857              1.247              0.655
 Vibration    27          0.897              1.157              0.561

 Optimization completed.
    -- Stationary point found.
 Normal termination of Gaussian 16 at Fri Dec 11 14:04:29 2020.

 ----------------------------------------------------------------------
 # B3LYP/6-311++G(d,p) empiricaldispersion=gd3bj scf=xqc pop=npa geom=c
 heck
 ----------------------------------------------------------------------

 --------------------------------------
 CID_62125704_JID_7839_Energie_neutraal
 --------------------------------------
 Structure from the checkpoint file:  "JID_7839.chk"
 Charge =  0 Multiplicity = 1

 SCF Done:  E(RB3LYP) =  -732.939809600     A.U. after   14 cycles
 Normal termination of Gaussian 16 at Fri Dec 11 14:13:58 2020.

 ----------------------------------------------------------------------
 # B3LYP/6-311++G(d,p) empiricaldispersion=gd3bj scf=xqc pop=npa geom=c
 heck
 ----------------------------------------------------------------------

 ------------------------------------
 CID_62125704_JID_7839_Energie_kation
 ------------------------------------
 Structure from the checkpoint file:  "JID_7839.chk"
 Charge =  1 Multiplicity = 2

 SCF Done:  E(UB3LYP) =  -732.630368795     A.U. after   26 cycles
 Normal termination of Gaussian 16 at Fri Dec 11 14:38:38 2020.
 Gaussian 16:  ES64L-G16RevA.03 25-Dec-2016

 ----------------------------------------------------------------------
 # B3LYP/6-311++G(d,p) empiricaldispersion=gd3bj scf=xqc pop=npa geom=c
 heck
 ----------------------------------------------------------------------

 -----------------------------------
 CID_62125704_JID_7839_Energie_anion
 -----------------------------------
 Structure from the checkpoint file:  "JID_7839.chk"
 Charge = -1 Multiplicity = 2

                         Standard orientation:
 ---------------------------------------------------------------------
 Center     Atomic      Atomic             Coordinates (Angstroms)
 Number     Number       Type             X           Y           Z
 ---------------------------------------------------------------------
      1          6           0       -1.245273    2.536190   -0.008003
      2          6           0       -1.689841    1.482202    1.017951
      3          6           0       -3.027789    0.782816    0.697169
      4          6           0       -2.981677   -0.399122   -0.300545
      5          6           0       -1.839456   -1.364561    0.094321
      6          6           0       -0.462602   -0.755657    0.402890
      7          6           0       -0.614647    0.433903    1.370817
      8          6           0        0.352087   -0.432632   -0.879979
      9          6           0        1.777553   -0.056208   -0.603737
     10          6           0        2.850193   -0.906769   -0.367438
     11          7           0        3.943689   -0.125849   -0.151453
     12          7           0        3.653390    1.191844   -0.215309
     13          6           0        2.348774    1.235592   -0.489785
     14          6           0        5.283430   -0.546611    0.204039
     15          8           0        0.235107   -1.811508    1.090066
     16          6           0       -2.883116    0.075074   -1.763238
     17          6           0       -4.307216   -1.177167   -0.179504
     18          1           0       -0.359356    3.068558    0.358155
     19          1           0       -2.038892    3.276825   -0.161486
     20          1           0       -0.995113    2.124537   -0.987322
     21          1           0       -1.865411    2.049197    1.943143
     22          1           0       -3.416944    0.387335    1.645884
     23          1           0       -3.762346    1.522716    0.351051
     24          1           0       -1.726788   -2.144940   -0.669426
     25          1           0       -2.137006   -1.879953    1.015981
     26          1           0        0.358856    0.921354    1.511057
     27          1           0       -0.882193   -0.014301    2.335597
     28          1           0        0.320730   -1.329116   -1.509457
     29          1           0       -0.122460    0.367166   -1.448146
     30          1           0        2.912827   -1.986069   -0.371582
     31          1           0        1.857606    2.192060   -0.613283
     32          1           0        6.000966    0.099688   -0.304564
     33          1           0        5.443648   -0.476947    1.285519
     34          1           0        5.430296   -1.580215   -0.117125
     35          1           0        1.116338   -1.458950    1.301496
     36          1           0       -2.874256   -0.785349   -2.443148
     37          1           0       -3.752506    0.692734   -2.018649
     38          1           0       -1.993610    0.667699   -1.974182
     39          1           0       -4.454535   -1.554095    0.839081
     40          1           0       -5.161267   -0.536178   -0.429947
     41          1           0       -4.321519   -2.035951   -0.861580
 ---------------------------------------------------------------------

 SCF Done:  E(UB3LYP) =  -732.927673717     A.U. after   33 cycles
 SCF Done:  E(UB3LYP) =  -732.927673717     a.u. after    1 cycles

 The electronic state is 2-A.
 Alpha  occ. eigenvalues --  -19.02475 -14.30128 -14.23877 -10.13749 -10.11728
 Alpha  occ. eigenvalues --  -10.11414 -10.09794 -10.09695 -10.08696 -10.08514
 Alpha  occ. eigenvalues --  -10.08425 -10.07389 -10.07246 -10.07151 -10.07138
 Alpha  occ. eigenvalues --  -10.07131 -10.07024  -0.96117  -0.93054  -0.75712
 Alpha  occ. eigenvalues --   -0.75237  -0.71480  -0.69889  -0.67119  -0.62994
 Alpha  occ. eigenvalues --   -0.60464  -0.59561  -0.59102  -0.58686  -0.50952
 Alpha  occ. eigenvalues --   -0.49478  -0.48727  -0.48155  -0.43407  -0.42137
 Alpha  occ. eigenvalues --   -0.40708  -0.39532  -0.38288  -0.36835  -0.36163
 Alpha  occ. eigenvalues --   -0.35697  -0.35599  -0.34831  -0.33661  -0.33376
 Alpha  occ. eigenvalues --   -0.32289  -0.31332  -0.30864  -0.30106  -0.29833
 Alpha  occ. eigenvalues --   -0.29603  -0.28778  -0.27894  -0.26684  -0.25640
 Alpha  occ. eigenvalues --   -0.25479  -0.24589  -0.23673  -0.23202  -0.21943
 Alpha  occ. eigenvalues --   -0.21006  -0.20239  -0.18349  -0.16668  -0.15165
 Alpha  occ. eigenvalues --    0.03934
 Alpha virt. eigenvalues --    0.05175   0.06622   0.07197   0.07503   0.07721
 Alpha virt. eigenvalues --    0.08383   0.08981   0.09180   0.09631   0.09944
 Alpha virt. eigenvalues --    0.10086   0.10783   0.11486   0.11874   0.12000

  Beta  occ. eigenvalues --  -19.02467 -14.30127 -14.23870 -10.13749 -10.11668
  Beta  occ. eigenvalues --  -10.11395 -10.09790 -10.09695 -10.08688 -10.08508
  Beta  occ. eigenvalues --  -10.08425 -10.07372 -10.07238 -10.07133 -10.07129
  Beta  occ. eigenvalues --  -10.07112 -10.07004  -0.96109  -0.93040  -0.75697
  Beta  occ. eigenvalues --   -0.75218  -0.71468  -0.69870  -0.67099  -0.62957
  Beta  occ. eigenvalues --   -0.60424  -0.59529  -0.59070  -0.58643  -0.50933
  Beta  occ. eigenvalues --   -0.49451  -0.48695  -0.48113  -0.43357  -0.42101
  Beta  occ. eigenvalues --   -0.40681  -0.39506  -0.38259  -0.36815  -0.36145
  Beta  occ. eigenvalues --   -0.35666  -0.35573  -0.34810  -0.33639  -0.33354
  Beta  occ. eigenvalues --   -0.32243  -0.31306  -0.30836  -0.30075  -0.29813
  Beta  occ. eigenvalues --   -0.29577  -0.28761  -0.27877  -0.26665  -0.25625
  Beta  occ. eigenvalues --   -0.25461  -0.24572  -0.23658  -0.23180  -0.21921
  Beta  occ. eigenvalues --   -0.20986  -0.20220  -0.18335  -0.16655  -0.15153
  Beta virt. eigenvalues --    0.05742   0.06659   0.06981   0.07447   0.07816
  Beta virt. eigenvalues --    0.08155   0.08855   0.09230   0.09330   0.09886
  Beta virt. eigenvalues --    0.10185   0.10524   0.11197   0.11549   0.12077

 Mulliken charges and spin densities:
               1          2
     1  C   -0.039171  -0.634964
     2  C    0.034067   0.310868
     3  C    0.007619  -0.786631
     4  C   -0.648878   1.442982
     5  C   -0.038273  -0.432574
     6  C    0.109870  -0.233548
     7  C    0.150908  -0.708126
     8  C   -0.722580   0.272015
     9  C   -0.104271   0.022423
    10  C   -0.539159   0.156950
    11  N    0.194969   0.038775
    12  N   -0.479272   0.299849
    13  C    0.734302  -0.815911
    14  C    1.507978  -1.806869
    15  O   -0.192956   0.033577
    16  C    0.067378  -0.735187
    17  C    0.177786  -0.635449
    18  H    0.023626   0.120895
    19  H   -0.111283   0.266121
    20  H    0.060548   0.052845
    21  H   -0.180163   0.393015
    22  H    0.066781   0.078648
    23  H   -0.146803   0.325038
    24  H    0.146448   0.027220
    25  H    0.186530   0.017587
    26  H    0.106592   0.084718
    27  H    0.069424   0.126675
    28  H    0.176496   0.048097
    29  H   -0.099242   0.144883
    30  H   -0.376249   0.577466
    31  H    0.146227   0.030892
    32  H   -0.244035   0.412451
    33  H   -0.377190   0.562910
    34  H   -0.757646   0.918422
    35  H    0.219583   0.067135
    36  H   -0.039020   0.192526
    37  H   -0.085313   0.246690
    38  H    0.154488  -0.059207
    39  H   -0.011746   0.149027
    40  H   -0.154685   0.300142
    41  H    0.006316   0.127622
 Sum of Mulliken charges =  -1.00000   1.00000

 Dipole moment (field-independent basis, Debye):
    X=             -5.1013    Y=              1.2487    Z=             -1.2130  Tot=              5.3901
 Quadrupole moment (field-independent basis, Debye-Ang):
   XX=           -229.7813   YY=           -154.3518   ZZ=           -140.5736
   XY=             16.5410   XZ=             -3.8155   YZ=              0.7976

 Summary of Natural Population Analysis:

                                       Natural Population
                Natural  -----------------------------------------------
    Atom  No    Charge         Core      Valence    Rydberg      Total
 -----------------------------------------------------------------------
      C    1   -0.28245      0.99964     2.27695    0.00585     3.28245
      C    2   -0.11214      0.99959     2.10142    0.01112     3.11214
      C    3   -0.18570      0.99958     2.17495    0.01117     3.18570
      C    4   -0.04640      0.99957     2.03592    0.01092     3.04640
      C    5   -0.19393      0.99954     2.18332    0.01107     3.19393
      C    6    0.14001      0.99951     1.84609    0.01439     2.85999
      C    7   -0.20444      0.99956     2.19384    0.01104     3.20444
      C    8   -0.20831      0.99954     2.19921    0.00955     3.20831
      C    9   -0.07747      0.99952     2.06678    0.01117     3.07747
      C   10   -0.01327      0.99949     2.00179    0.01199     3.01327
      N   11   -0.10334      0.99967     2.59057    0.01310     3.60334
      N   12   -0.15021      0.99973     2.63886    0.01162     3.65021
      C   13   -0.01248      0.99956     1.99984    0.01308     3.01248
      C   14   -0.17143      0.99963     2.16334    0.00846     3.17143
      O   15   -0.38012      0.99989     3.37363    0.00661     4.38012
      C   16   -0.28287      0.99962     2.27638    0.00688     3.28287
      C   17   -0.27998      0.99963     2.27293    0.00741     3.27998
      H   18    0.09835      0.00000     0.40067    0.00098     0.40165
      H   19    0.10011      0.00000     0.39902    0.00086     0.39989
      H   20    0.09230      0.00000     0.40665    0.00106     0.40770
      H   21    0.09692      0.00000     0.40156    0.00153     0.40308
      H   22    0.09951      0.00000     0.39923    0.00125     0.40049
      H   23    0.10156      0.00000     0.39723    0.00121     0.39844
      H   24    0.10236      0.00000     0.39662    0.00102     0.39764
      H   25    0.10725      0.00000     0.39147    0.00128     0.39275
      H   26    0.10476      0.00000     0.39388    0.00136     0.39524
      H   27    0.10566      0.00000     0.39313    0.00121     0.39434
      H   28    0.10678      0.00000     0.39199    0.00123     0.39322
      H   29    0.10459      0.00000     0.39366    0.00175     0.39541
      H   30    0.11059      0.00000     0.38825    0.00116     0.38941
      H   31    0.09877      0.00000     0.40011    0.00112     0.40123
      H   32    0.10524      0.00000     0.39310    0.00166     0.39476
      H   33    0.10064      0.00000     0.39746    0.00190     0.39936
      H   34    0.10461      0.00000     0.39193    0.00346     0.39539
      H   35    0.23190      0.00000     0.26490    0.00320     0.26810
      H   36    0.09827      0.00000     0.40094    0.00079     0.40173
      H   37    0.10021      0.00000     0.39891    0.00088     0.39979
      H   38    0.09691      0.00000     0.40203    0.00106     0.40309
      H   39    0.09876      0.00000     0.40044    0.00079     0.40124
      H   40    0.10009      0.00000     0.39904    0.00088     0.39991
      H   41    0.09837      0.00000     0.40085    0.00078     0.40163
 =======================================================================
   * Total *    0.00000     16.99328    47.79888    0.20784    65.00000

 Normal termination of Gaussian 16 at Fri Dec 11 15:09:40 2020.
