 Gaussian 16, Revision A.03,

 -----------------------------------------------------------
 # opt freq B3LYP/6-31G(d) empiricaldispersion=gd3bj scf=xqc
 -----------------------------------------------------------

 -------------------------------
 CID_131527746_JID_6513_neutraal
 -------------------------------
 Symbolic Z-matrix:
 Charge =  0 Multiplicity = 1

 SCF Done:  E(RB3LYP) =  -745.557030524     A.U. after   15 cycles
 SCF Done:  E(RB3LYP) =  -745.561957038     A.U. after   12 cycles
 SCF Done:  E(RB3LYP) =  -745.562343472     A.U. after   11 cycles
 SCF Done:  E(RB3LYP) =  -745.562386615     A.U. after   11 cycles
 SCF Done:  E(RB3LYP) =  -745.562404963     A.U. after   10 cycles
 SCF Done:  E(RB3LYP) =  -745.562416276     A.U. after   10 cycles
 SCF Done:  E(RB3LYP) =  -745.562418923     A.U. after    9 cycles
 SCF Done:  E(RB3LYP) =  -745.562421049     A.U. after    8 cycles
 SCF Done:  E(RB3LYP) =  -745.562422073     A.U. after    8 cycles
 SCF Done:  E(RB3LYP) =  -745.562422333     A.U. after    7 cycles
 SCF Done:  E(RB3LYP) =  -745.562422522     A.U. after    8 cycles
 SCF Done:  E(RB3LYP) =  -745.562422648     A.U. after    7 cycles
 SCF Done:  E(RB3LYP) =  -745.562422712     A.U. after    7 cycles
 Optimization completed.
    -- Stationary point found.
 Normal termination of Gaussian 16 at Thu Dec 10 23:21:52 2020.

 --------------------------------------------------------------------
 #N Geom=AllCheck Guess=TCheck SCRF=Check GenChk RB3LYP/6-31G(d) Freq
 --------------------------------------------------------------------

 Structure from the checkpoint file:  "JID_6513.chk"
 -------------------------------
 CID_131527746_JID_6513_neutraal
 -------------------------------
 Charge =  0 Multiplicity = 1

 SCF Done:  E(RB3LYP) =  -745.562422712     A.U. after    1 cycles

  Exact polarizability: 236.950  -2.944 153.662  -0.002  -0.000  67.209
 Approx polarizability: 344.919  -7.675 260.928  -0.007  -0.001 102.294

                      1                      2                      3
                      A                      A                      A
 Frequencies --     47.1692                59.6546                74.6248
 Red. masses --      3.1233                 4.0894                 3.5613
 Frc consts  --      0.0041                 0.0086                 0.0117
 IR Inten    --      3.6609                 0.0039                 0.2041

                      4                      5                      6
                      A                      A                      A
 Frequencies --    102.6148               109.5656               135.6696
 Red. masses --      4.8875                 4.7193                 1.0310
 Frc consts  --      0.0303                 0.0334                 0.0112
 IR Inten    --      5.3373                 1.0609                 1.2767

                      7                      8                      9
                      A                      A                      A
 Frequencies --    171.2594               172.4140               197.5321
 Red. masses --      3.4689                 4.7030                 1.8583
 Frc consts  --      0.0599                 0.0824                 0.0427
 IR Inten    --      0.3327                 0.1230                 0.9026

                     10                     11                     12
                      A                      A                      A
 Frequencies --    244.5166               248.3259               262.8016
 Red. masses --      4.1566                 3.9854                 1.1234
 Frc consts  --      0.1464                 0.1448                 0.0457
 IR Inten    --      7.5566                 2.7412                 0.0119

                     13                     14                     15
                      A                      A                      A
 Frequencies --    294.1484               296.9581               342.2124
 Red. masses --      4.4902                 1.8292                 3.8837
 Frc consts  --      0.2289                 0.0950                 0.2680
 IR Inten    --      0.3287                 7.1830                 1.1959

                     16                     17                     18
                      A                      A                      A
 Frequencies --    354.0199               378.6414               425.6737
 Red. masses --      1.4106                 3.9798                 4.3881
 Frc consts  --      0.1042                 0.3362                 0.4685
 IR Inten    --     55.1935                 9.1223                 1.0343

                     19                     20                     21
                      A                      A                      A
 Frequencies --    468.2597               511.4476               549.0835
 Red. masses --      5.1539                 4.9424                 2.8876
 Frc consts  --      0.6658                 0.7617                 0.5129
 IR Inten    --      1.1187                 2.2838                 0.1786

                     22                     23                     24
                      A                      A                      A
 Frequencies --    554.2722               584.9216               590.2435
 Red. masses --      5.7238                 4.4622                 4.0979
 Frc consts  --      1.0360                 0.8995                 0.8411
 IR Inten    --     28.1193                25.4109                 0.1857

                     25                     26                     27
                      A                      A                      A
 Frequencies --    629.3910               657.1669               676.9022
 Red. masses --      3.0981                 3.9005                 2.8282
 Frc consts  --      0.7231                 0.9925                 0.7635
 IR Inten    --      1.0990                 1.8200                12.5114

                     28                     29                     30
                      A                      A                      A
 Frequencies --    715.2634               742.6354               804.5483
 Red. masses --      4.7699                 4.7495                 1.5461
 Frc consts  --      1.4378                 1.5433                 0.5897
 IR Inten    --      7.9967                 2.9408                23.2079

                     31                     32                     33
                      A                      A                      A
 Frequencies --    830.3275               854.3139               859.7433
 Red. masses --      1.3793                 4.3692                 1.5478
 Frc consts  --      0.5603                 1.8788                 0.6741
 IR Inten    --      1.0981                 6.8597                50.4916

                     34                     35                     36
                      A                      A                      A
 Frequencies --    939.5301               969.2073              1001.6162
 Red. masses --      3.5248                 5.3259                 2.6333
 Frc consts  --      1.8332                 2.9476                 1.5565
 IR Inten    --     46.1705                27.7198                20.4756

                     37                     38                     39
                      A                      A                      A
 Frequencies --   1021.5720              1050.0887              1089.5621
 Red. masses --      4.1582                 1.7931                 2.8077
 Frc consts  --      2.5568                 1.1649                 1.9639
 IR Inten    --     44.3499                 2.9351                33.2505

                     40                     41                     42
                      A                      A                      A
 Frequencies --   1100.6563              1170.7346              1185.8017
 Red. masses --      1.6796                 4.9055                 1.2682
 Frc consts  --      1.1988                 3.9614                 1.0506
 IR Inten    --      1.1233                91.1980                 0.5102

                     43                     44                     45
                      A                      A                      A
 Frequencies --   1186.5546              1191.7089              1219.9124
 Red. masses --      1.2688                 2.1753                 1.4188
 Frc consts  --      1.0525                 1.8202                 1.2440
 IR Inten    --      0.9194                19.1896                11.9183

                     46                     47                     48
                      A                      A                      A
 Frequencies --   1227.1003              1253.5663              1264.0716
 Red. masses --      1.4615                 1.8038                 2.2419
 Frc consts  --      1.2966                 1.6700                 2.1106
 IR Inten    --     22.1836                78.7212               236.1335

                     49                     50                     51
                      A                      A                      A
 Frequencies --   1291.9381              1354.0660              1379.0885
 Red. masses --      2.1940                 3.7871                 6.3719
 Frc consts  --      2.1576                 4.0910                 7.1400
 IR Inten    --    353.9944               172.8614               205.3792

                     52                     53                     54
                      A                      A                      A
 Frequencies --   1404.5671              1411.6804              1455.0978
 Red. masses --      1.3373                 7.4711                 3.0236
 Frc consts  --      1.5545                 8.7722                 3.7719
 IR Inten    --     36.7397                10.9790                21.7715

                     55                     56                     57
                      A                      A                      A
 Frequencies --   1465.1759              1497.4422              1503.7427
 Red. masses --      3.0649                 1.1819                 1.0743
 Frc consts  --      3.8765                 1.5615                 1.4313
 IR Inten    --     21.4580                27.5040                 3.9293

                     58                     59                     60
                      A                      A                      A
 Frequencies --   1508.8508              1515.8979              1518.1260
 Red. masses --      1.0476                 1.4298                 1.0479
 Frc consts  --      1.4052                 1.9358                 1.4229
 IR Inten    --      9.9295                 5.6088                 3.7390

                     61                     62                     63
                      A                      A                      A
 Frequencies --   1522.2671              1534.1977              1537.7624
 Red. masses --      1.0485                 1.3770                 1.0832
 Frc consts  --      1.4315                 1.9096                 1.5092
 IR Inten    --      7.6193                23.2903                25.1257

                     64                     65                     66
                      A                      A                      A
 Frequencies --   1543.8200              1594.9300              1640.0138
 Red. masses --      2.3226                 5.2289                 5.2574
 Frc consts  --      3.2615                 7.8369                 8.3313
 IR Inten    --     38.2541               238.6784               163.6124

                     67                     68                     69
                      A                      A                      A
 Frequencies --   1695.1152              1771.6643              3015.3514
 Red. masses --      8.5123                10.6159                 1.0357
 Frc consts  --     14.4111                19.6323                 5.5481
 IR Inten    --     75.5855               261.5207                64.0838

                     70                     71                     72
                      A                      A                      A
 Frequencies --   3029.2377              3043.3526              3070.3309
 Red. masses --      1.0343                 1.0392                 1.1063
 Frc consts  --      5.5920                 5.6711                 6.1446
 IR Inten    --     57.7536                 4.9410                48.9982

                     73                     74                     75
                      A                      A                      A
 Frequencies --   3088.9352              3101.1189              3153.4827
 Red. masses --      1.1068                 1.1004                 1.0983
 Frc consts  --      6.2221                 6.2350                 6.4351
 IR Inten    --     40.4776                12.5970                33.0335

                     76                     77                     78
                      A                      A                      A
 Frequencies --   3161.8682              3171.7535              3226.7869
 Red. masses --      1.1003                 1.0995                 1.0913
 Frc consts  --      6.4811                 6.5171                 6.6947
 IR Inten    --     21.8160                10.6553                 4.8256

                     79                     80                     81
                      A                      A                      A
 Frequencies --   3261.4414              3283.1968              3686.8789
 Red. masses --      1.0880                 1.0957                 1.0796
 Frc consts  --      6.8189                 6.9590                 8.6462
 IR Inten    --      3.8367                 0.0195                72.4670

 - Thermochemistry -
 -------------------
 Temperature   298.150 Kelvin.  Pressure   1.00000 Atm.
 Atom     1 has atomic number  6 and mass  12.00000

 Molecular mass:   219.08954 amu.
 Principal axes and moments of inertia in atomic units:
                           1         2         3
     Eigenvalues --  1832.663065982.865227781.16899
           X            0.99998   0.00599   0.00000
           Y           -0.00599   0.99998   0.00000
           Z           -0.00000  -0.00000   1.00000
 This molecule is an asymmetric top.
 Rotational symmetry number  1.
 Warning -- assumption of classical behavior for rotation
           may cause significant error
 Rotational temperatures (Kelvin)      0.04726     0.01448     0.01113
 Rotational constants (GHZ):           0.98476     0.30165     0.23194
 Zero-point vibrational energy     611633.8 (Joules/Mol)
                                  146.18398 (Kcal/Mol)
 Warning -- explicit consideration of  24 degrees of freedom as
           vibrations may cause significant error
 Vibrational temperatures:     67.87    85.83   107.37   147.64   157.64
          (Kelvin)            195.20   246.40   248.07   284.20   351.80
                              357.29   378.11   423.21   427.26   492.37
                              509.36   544.78   612.45   673.72   735.86
                              790.01   797.47   841.57   849.23   905.55
                              945.52   973.91  1029.10  1068.49  1157.57
                             1194.66  1229.17  1236.98  1351.77  1394.47
                             1441.10  1469.81  1510.84  1567.64  1583.60
                             1684.43  1706.10  1707.19  1714.60  1755.18
                             1765.52  1803.60  1818.72  1858.81  1948.20
                             1984.20  2020.86  2031.09  2093.56  2108.06
                             2154.49  2163.55  2170.90  2181.04  2184.24
                             2190.20  2207.37  2212.50  2221.21  2294.75
                             2359.61  2438.89  2549.03  4338.42  4358.40
                             4378.71  4417.52  4444.29  4461.82  4537.16
                             4549.22  4563.45  4642.63  4692.49  4723.79
                             5304.60

 Zero-point correction=                           0.232959 (Hartree/Particle)
 Thermal correction to Energy=                    0.248293
 Thermal correction to Enthalpy=                  0.249238
 Thermal correction to Gibbs Free Energy=         0.190287
 Sum of electronic and zero-point Energies=           -745.329464
 Sum of electronic and thermal Energies=              -745.314129
 Sum of electronic and thermal Enthalpies=            -745.313185
 Sum of electronic and thermal Free Energies=         -745.372136

                     E (Thermal)             CV                S
                      KCal/Mol        Cal/Mol-Kelvin    Cal/Mol-Kelvin
 Total                  155.806             57.252            124.073
 Electronic               0.000              0.000              0.000
 Translational            0.889              2.981             42.056
 Rotational               0.889              2.981             32.812
 Vibrational            154.029             51.290             49.205
 Vibration     1          0.595              1.979              4.933
 Vibration     2          0.597              1.974              4.469
 Vibration     3          0.599              1.966              4.027
 Vibration     4          0.605              1.947              3.404
 Vibration     5          0.606              1.942              3.277
 Vibration     6          0.613              1.918              2.864
 Vibration     7          0.626              1.878              2.422
 Vibration     8          0.626              1.876              2.409
 Vibration     9          0.637              1.843              2.156
 Vibration    10          0.660              1.772              1.770
 Vibration    11          0.662              1.766              1.742
 Vibration    12          0.670              1.741              1.643
 Vibration    13          0.689              1.685              1.450
 Vibration    14          0.691              1.679              1.434
 Vibration    15          0.721              1.591              1.202
 Vibration    16          0.730              1.567              1.148
 Vibration    17          0.749              1.516              1.045
 Vibration    18          0.788              1.414              0.873
 Vibration    19          0.825              1.320              0.742
 Vibration    20          0.867              1.225              0.630
 Vibration    21          0.904              1.142              0.546
 Vibration    22          0.910              1.130              0.535
 Vibration    23          0.942              1.064              0.476
 Vibration    24          0.948              1.053              0.467

 Optimization completed.
    -- Stationary point found.
 Normal termination of Gaussian 16 at Thu Dec 10 23:29:49 2020.

 ----------------------------------------------------------------------
 # B3LYP/6-311++G(d,p) empiricaldispersion=gd3bj scf=xqc pop=npa geom=c
 heck
 ----------------------------------------------------------------------

 ---------------------------------------
 CID_131527746_JID_6513_Energie_neutraal
 ---------------------------------------
 Structure from the checkpoint file:  "JID_6513.chk"
 Charge =  0 Multiplicity = 1

 SCF Done:  E(RB3LYP) =  -745.770195355     A.U. after   16 cycles
 Normal termination of Gaussian 16 at Thu Dec 10 23:33:09 2020.

 ----------------------------------------------------------------------
 # B3LYP/6-311++G(d,p) empiricaldispersion=gd3bj scf=xqc pop=npa geom=c
 heck
 ----------------------------------------------------------------------

 -------------------------------------
 CID_131527746_JID_6513_Energie_kation
 -------------------------------------
 Structure from the checkpoint file:  "JID_6513.chk"
 Charge =  1 Multiplicity = 2

 SCF Done:  E(UB3LYP) =  -745.505551251     A.U. after   24 cycles
 Normal termination of Gaussian 16 at Thu Dec 10 23:39:44 2020.
 Gaussian 16:  ES64L-G16RevA.03 25-Dec-2016

 ----------------------------------------------------------------------
 # B3LYP/6-311++G(d,p) empiricaldispersion=gd3bj scf=xqc pop=npa geom=c
 heck
 ----------------------------------------------------------------------

 ------------------------------------
 CID_131527746_JID_6513_Energie_anion
 ------------------------------------
 Structure from the checkpoint file:  "JID_6513.chk"
 Charge = -1 Multiplicity = 2

                         Standard orientation:
 ---------------------------------------------------------------------
 Center     Atomic      Atomic             Coordinates (Angstroms)
 Number     Number       Type             X           Y           Z
 ---------------------------------------------------------------------
      1          6           0        4.429407    1.021755    0.000812
      2          6           0        3.790343   -0.359338    0.000038
      3          8           0        4.468399   -1.377395   -0.000293
      4          6           0        2.323590   -0.428428   -0.000217
      5          6           0        1.525006   -1.558934   -0.000094
      6          6           0        0.162307   -1.132544   -0.000124
      7          6           0       -1.078373   -1.799173   -0.000058
      8          6           0       -2.236060   -1.036973   -0.000105
      9          6           0       -2.198008    0.383990   -0.000210
     10          6           0       -0.979902    1.052884   -0.000243
     11          6           0        0.193595    0.287609   -0.000173
     12          7           0        1.504922    0.695154   -0.000120
     13          8           0       -0.806633    2.409410   -0.000357
     14          6           0       -1.971789    3.218636    0.000005
     15          8           0       -3.414433   -1.739170   -0.000115
     16          6           0       -4.632392   -1.021369    0.000670
     17          1           0        5.514628    0.910224    0.000958
     18          1           0        4.125810    1.593301    0.887236
     19          1           0        4.126220    1.594167   -0.885205
     20          1           0        1.902561   -2.570881   -0.000064
     21          1           0       -1.151196   -2.880699    0.000040
     22          1           0       -3.119965    0.947047   -0.000301
     23          1           0        1.802977    1.657003   -0.000420
     24          1           0       -2.581765    3.038912   -0.894728
     25          1           0       -2.581469    3.038507    0.894859
     26          1           0       -1.622253    4.252244    0.000163
     27          1           0       -4.735265   -0.391987    0.895602
     28          1           0       -4.736305   -0.391767   -0.893994
     29          1           0       -5.423443   -1.773602    0.001019
 ---------------------------------------------------------------------

 SCF Done:  E(UB3LYP) =  -745.777361184     A.U. after   27 cycles

 The electronic state is 2-A.
 Alpha  occ. eigenvalues --  -19.04323 -19.03425 -18.90960 -14.20161 -10.13100
 Alpha  occ. eigenvalues --  -10.12593 -10.09624 -10.09564 -10.05860 -10.05570
 Alpha  occ. eigenvalues --  -10.03609 -10.03487 -10.02959 -10.02845 -10.01747
 Alpha  occ. eigenvalues --   -9.99506  -0.95805  -0.94959  -0.85316  -0.82864
 Alpha  occ. eigenvalues --   -0.70679  -0.65088  -0.63130  -0.60813  -0.60292
 Alpha  occ. eigenvalues --   -0.57634  -0.55937  -0.49217  -0.46640  -0.45139
 Alpha  occ. eigenvalues --   -0.42880  -0.40403  -0.38463  -0.37547  -0.37168
 Alpha  occ. eigenvalues --   -0.36427  -0.35614  -0.34153  -0.31906  -0.30131
 Alpha  occ. eigenvalues --   -0.29832  -0.28800  -0.28119  -0.27640  -0.27250
 Alpha  occ. eigenvalues --   -0.24343  -0.24309  -0.23391  -0.23307  -0.22992
 Alpha  occ. eigenvalues --   -0.22328  -0.21008  -0.19863  -0.16371  -0.12866
 Alpha  occ. eigenvalues --   -0.07910  -0.07762  -0.06188   0.05116
 Alpha virt. eigenvalues --    0.06209   0.07521   0.08997   0.09899   0.09936
 Alpha virt. eigenvalues --    0.11070   0.11390   0.12169   0.12610   0.12951
 Alpha virt. eigenvalues --    0.13225   0.13765   0.14366   0.14938   0.15640

  Beta  occ. eigenvalues --  -19.04290 -19.03438 -18.90329 -14.20013 -10.13101
  Beta  occ. eigenvalues --  -10.12588 -10.09672 -10.09416 -10.05584 -10.05494
  Beta  occ. eigenvalues --  -10.03469 -10.03377 -10.02993 -10.02880 -10.01595
  Beta  occ. eigenvalues --   -9.99316  -0.95717  -0.94980  -0.84267  -0.82535
  Beta  occ. eigenvalues --   -0.70490  -0.64895  -0.62996  -0.60705  -0.59805
  Beta  occ. eigenvalues --   -0.57415  -0.55795  -0.48800  -0.46425  -0.44920
  Beta  occ. eigenvalues --   -0.42692  -0.40186  -0.38410  -0.37196  -0.37066
  Beta  occ. eigenvalues --   -0.36422  -0.35502  -0.34030  -0.31620  -0.29728
  Beta  occ. eigenvalues --   -0.29362  -0.28686  -0.27730  -0.27534  -0.27057
  Beta  occ. eigenvalues --   -0.24221  -0.24069  -0.22986  -0.22982  -0.22648
  Beta  occ. eigenvalues --   -0.22266  -0.20901  -0.17380  -0.15671  -0.12019
  Beta  occ. eigenvalues --   -0.07329  -0.06604  -0.05010
  Beta virt. eigenvalues --    0.06172   0.07482   0.08967   0.09821   0.09913
  Beta virt. eigenvalues --    0.11044   0.11249   0.11340   0.12218   0.12573
  Beta virt. eigenvalues --    0.13011   0.13189   0.13736   0.14910   0.15268

 Mulliken charges and spin densities:
               1          2
     1  C   -0.608866  -0.027542
     2  C   -0.292398   0.256169
     3  O   -0.448751   0.222767
     4  C   -0.011139   0.036250
     5  C    0.961123   0.210210
     6  C    1.465885  -0.028925
     7  C   -0.551471   0.128236
     8  C   -0.922379  -0.061282
     9  C    0.957250   0.110679
    10  C   -1.060285   0.073382
    11  C   -1.362545  -0.029764
    12  N   -0.066781   0.075205
    13  O   -0.188131   0.007292
    14  C   -0.252355   0.002210
    15  O   -0.164277   0.000457
    16  C   -0.322129  -0.007571
    17  H    0.147751  -0.001025
    18  H    0.099700   0.025383
    19  H    0.099626   0.025349
    20  H    0.153549  -0.011336
    21  H    0.124551  -0.008242
    22  H    0.123240  -0.007623
    23  H    0.296639  -0.002009
    24  H    0.132882  -0.000141
    25  H    0.132897  -0.000134
    26  H    0.154202  -0.000038
    27  H    0.124278   0.006228
    28  H    0.124308   0.006151
    29  H    0.153627  -0.000336
 Sum of Mulliken charges =  -1.00000   1.00000

 Dipole moment (field-independent basis, Debye):
    X=             -9.7763    Y=              6.4257    Z=              0.0017  Tot=             11.6989
 Quadrupole moment (field-independent basis, Debye-Ang):
   XX=           -150.6999   YY=           -108.1360   ZZ=           -103.7228
   XY=              9.4942   XZ=             -0.0005   YZ=             -0.0036

 Summary of Natural Population Analysis:

                                       Natural Population
                Natural  -----------------------------------------------
    Atom  No    Charge         Core      Valence    Rydberg      Total
 -----------------------------------------------------------------------
      C    1   -0.33322      0.99965     2.32932    0.00425     3.33322
      C    2    0.29305      0.99963     1.68705    0.02026     2.70695
      O    3   -0.23991      0.99988     3.23278    0.00725     4.23991
      C    4    0.07505      0.99950     1.91322    0.01222     2.92495
      C    5   -0.09621      0.99950     2.08761    0.00910     3.09621
      C    6   -0.04313      0.99953     2.03474    0.00886     3.04313
      C    7   -0.10675      0.99949     2.09842    0.00884     3.10675
      C    8    0.13966      0.99941     1.84935    0.01158     2.86034
      C    9   -0.18030      0.99947     2.17339    0.00744     3.18030
      C   10    0.16867      0.99935     1.82087    0.01111     2.83133
      C   11    0.05529      0.99938     1.93447    0.01087     2.94471
      N   12   -0.25743      0.99964     2.74859    0.00920     3.75743
      O   13   -0.27445      0.99985     3.26543    0.00917     4.27445
      C   14   -0.10029      0.99962     2.09234    0.00833     3.10029
      O   15   -0.28271      0.99985     3.27303    0.00983     4.28271
      C   16   -0.09843      0.99962     2.09043    0.00838     3.09843
      H   17    0.10238      0.00000     0.39582    0.00180     0.39762
      H   18    0.09719      0.00000     0.40155    0.00126     0.40281
      H   19    0.09718      0.00000     0.40156    0.00126     0.40282
      H   20    0.10506      0.00000     0.39413    0.00081     0.39494
      H   21    0.09727      0.00000     0.40115    0.00157     0.40273
      H   22    0.09506      0.00000     0.40371    0.00123     0.40494
      H   23    0.19789      0.00000     0.30049    0.00162     0.30211
      H   24    0.08009      0.00000     0.41810    0.00181     0.41991
      H   25    0.08010      0.00000     0.41809    0.00181     0.41990
      H   26    0.08646      0.00000     0.41269    0.00086     0.41354
      H   27    0.07837      0.00000     0.41982    0.00182     0.42163
      H   28    0.07835      0.00000     0.41983    0.00182     0.42165
      H   29    0.08578      0.00000     0.41338    0.00084     0.41422
 =======================================================================
   * Total *    0.00006     15.99340    41.83134    0.17520    57.99994

 Normal termination of Gaussian 16 at Thu Dec 10 23:47:27 2020.
