 Gaussian 16, Revision A.03,

 -----------------------------------------------------------
 # opt freq B3LYP/6-31G(d) empiricaldispersion=gd3bj scf=xqc
 -----------------------------------------------------------

 ------------------------------
 CID_84109747_JID_3913_neutraal
 ------------------------------
 Symbolic Z-matrix:
 Charge =  0 Multiplicity = 1

 SCF Done:  E(RB3LYP) =  -589.047480443     A.U. after   14 cycles
 SCF Done:  E(RB3LYP) =  -589.053984955     A.U. after   12 cycles
 SCF Done:  E(RB3LYP) =  -589.054738651     A.U. after   12 cycles
 SCF Done:  E(RB3LYP) =  -589.055001088     A.U. after   11 cycles
 SCF Done:  E(RB3LYP) =  -589.055166822     A.U. after   11 cycles
 SCF Done:  E(RB3LYP) =  -589.055876526     A.U. after   14 cycles
 SCF Done:  E(RB3LYP) =  -589.056398085     A.U. after   15 cycles
 SCF Done:  E(RB3LYP) =  -589.057202578     A.U. after   12 cycles
 SCF Done:  E(RB3LYP) =  -589.057827118     A.U. after   12 cycles
 SCF Done:  E(RB3LYP) =  -589.057916263     A.U. after   11 cycles
 SCF Done:  E(RB3LYP) =  -589.058034534     A.U. after    8 cycles
 SCF Done:  E(RB3LYP) =  -589.058034907     A.U. after    8 cycles
 SCF Done:  E(RB3LYP) =  -589.058035110     A.U. after    8 cycles
 SCF Done:  E(RB3LYP) =  -589.058035276     A.U. after    8 cycles
 SCF Done:  E(RB3LYP) =  -589.058035346     A.U. after    8 cycles
 Optimization completed.
    -- Stationary point found.
 Normal termination of Gaussian 16 at Mon Dec 14 13:14:08 2020.

 --------------------------------------------------------------------
 #N Geom=AllCheck Guess=TCheck SCRF=Check GenChk RB3LYP/6-31G(d) Freq
 --------------------------------------------------------------------

 Structure from the checkpoint file:  "JID_3913.chk"
 ------------------------------
 CID_84109747_JID_3913_neutraal
 ------------------------------
 Charge =  0 Multiplicity = 1

 SCF Done:  E(RB3LYP) =  -589.058035346     A.U. after    1 cycles

  Exact polarizability: 139.882   9.027 117.736  -3.933   1.378  69.070
 Approx polarizability: 204.915  13.027 175.963  -5.659   5.664 110.623

                      1                      2                      3
                      A                      A                      A
 Frequencies --     26.9914                32.5475                95.3706
 Red. masses --      4.2577                 4.1620                 5.8017
 Frc consts  --      0.0018                 0.0026                 0.0311
 IR Inten    --      0.3349                 0.6918                 0.2355

                      4                      5                      6
                      A                      A                      A
 Frequencies --     99.3046               135.3115               167.7047
 Red. masses --      4.0087                 3.9857                 2.5616
 Frc consts  --      0.0233                 0.0430                 0.0424
 IR Inten    --      1.0473                 2.3109                 2.0734

                      7                      8                      9
                      A                      A                      A
 Frequencies --    266.2809               306.3454               338.3347
 Red. masses --      4.5965                 1.2233                 2.6699
 Frc consts  --      0.1920                 0.0676                 0.1801
 IR Inten    --      2.7842                65.2886                14.0453

                     10                     11                     12
                      A                      A                      A
 Frequencies --    391.8335               422.2369               451.8662
 Red. masses --      5.1512                 2.7403                 4.8762
 Frc consts  --      0.4660                 0.2878                 0.5866
 IR Inten    --      2.2447                 7.0786                 2.7956

                     13                     14                     15
                      A                      A                      A
 Frequencies --    501.3725               613.5421               634.7637
 Red. masses --      2.9946                 3.4080                 4.6073
 Frc consts  --      0.4435                 0.7558                 1.0937
 IR Inten    --      6.2819                 6.2730                 1.8769

                     16                     17                     18
                      A                      A                      A
 Frequencies --    654.3039               690.9874               714.6085
 Red. masses --      4.1109                 3.5064                 1.3326
 Frc consts  --      1.0369                 0.9864                 0.4009
 IR Inten    --      0.1875                 9.9983                28.8665

                     19                     20                     21
                      A                      A                      A
 Frequencies --    740.6770               752.1548               818.3690
 Red. masses --      1.4208                 3.4992                 1.2798
 Frc consts  --      0.4592                 1.1664                 0.5050
 IR Inten    --     40.4637                 0.1551                16.6458

                     22                     23                     24
                      A                      A                      A
 Frequencies --    850.0276               867.3816               871.3511
 Red. masses --      1.2960                 1.9741                 1.3000
 Frc consts  --      0.5517                 0.8751                 0.5816
 IR Inten    --      5.0666                70.8020                 0.9227

                     25                     26                     27
                      A                      A                      A
 Frequencies --    907.5429               913.5565               922.3839
 Red. masses --      5.8655                 2.1529                 2.0475
 Frc consts  --      2.8463                 1.0586                 1.0264
 IR Inten    --      1.0410                82.3878                28.9437

                     28                     29                     30
                      A                      A                      A
 Frequencies --    931.0813               954.4809              1028.0114
 Red. masses --      4.3064                 2.4178                 1.7768
 Frc consts  --      2.1996                 1.2978                 1.1063
 IR Inten    --      5.3871                 1.3637                15.6625

                     31                     32                     33
                      A                      A                      A
 Frequencies --   1046.3147              1059.5012              1114.2118
 Red. masses --      1.8225                 1.8497                 2.4648
 Frc consts  --      1.1756                 1.2233                 1.8029
 IR Inten    --     10.0531                 3.4459                16.3819

                     34                     35                     36
                      A                      A                      A
 Frequencies --   1130.0080              1135.6405              1145.3739
 Red. masses --      2.0723                 2.2145                 1.7528
 Frc consts  --      1.5591                 1.6827                 1.3548
 IR Inten    --     14.1596                 9.1142                33.7135

                     37                     38                     39
                      A                      A                      A
 Frequencies --   1189.8100              1201.5674              1210.4108
 Red. masses --      1.8487                 1.5599                 3.0228
 Frc consts  --      1.5419                 1.3269                 2.6093
 IR Inten    --     18.9773                 9.5394                 7.1725

                     40                     41                     42
                      A                      A                      A
 Frequencies --   1230.4930              1261.3448              1326.5107
 Red. masses --      1.4498                 1.5358                 2.2446
 Frc consts  --      1.2934                 1.4397                 2.3270
 IR Inten    --     11.2853                15.9002                33.3038

                     43                     44                     45
                      A                      A                      A
 Frequencies --   1341.6459              1357.3072              1383.0241
 Red. masses --      2.3264                 1.2626                 2.2960
 Frc consts  --      2.4672                 1.3705                 2.5875
 IR Inten    --     13.0701                 8.6234                 3.0255

                     46                     47                     48
                      A                      A                      A
 Frequencies --   1437.7850              1438.2531              1451.2880
 Red. masses --      1.7643                 2.7496                 2.1445
 Frc consts  --      2.1489                 3.3511                 2.6612
 IR Inten    --     39.5973                 6.5462                18.9076

                     49                     50                     51
                      A                      A                      A
 Frequencies --   1503.6420              1532.7369              1552.6966
 Red. masses --      1.1634                 4.4401                 1.1539
 Frc consts  --      1.5498                 6.1459                 1.6391
 IR Inten    --     11.8120                26.7557                 4.0370

                     52                     53                     54
                      A                      A                      A
 Frequencies --   1558.7119              1584.9923              1676.5269
 Red. masses --      4.6867                 5.8483                 7.7294
 Frc consts  --      6.7088                 8.6563                12.8001
 IR Inten    --     56.6179                25.0976               105.5209

                     55                     56                     57
                      A                      A                      A
 Frequencies --   1705.4729              2961.2876              3054.3119
 Red. masses --      1.0860                 1.0731                 1.0870
 Frc consts  --      1.8611                 5.5441                 5.9743
 IR Inten    --     33.6219                70.0261                49.7789

                     58                     59                     60
                      A                      A                      A
 Frequencies --   3080.9946              3128.5806              3265.2389
 Red. masses --      1.0621                 1.1041                 1.0930
 Frc consts  --      5.9400                 6.3671                 6.8657
 IR Inten    --     25.0266                12.9833                 8.4379

                     61                     62                     63
                      A                      A                      A
 Frequencies --   3271.9469              3285.7538              3302.0930
 Red. masses --      1.0914                 1.0986                 1.1033
 Frc consts  --      6.8839                 6.9882                 7.0878
 IR Inten    --      3.9416                 0.2239                 2.2660

                     64                     65                     66
                      A                      A                      A
 Frequencies --   3309.1774              3456.0222              3548.0332
 Red. masses --      1.1045                 1.0508                 1.0920
 Frc consts  --      7.1263                 7.3944                 8.0991
 IR Inten    --      0.2186                20.2898                 3.4329

 - Thermochemistry -
 -------------------
 Temperature   298.150 Kelvin.  Pressure   1.00000 Atm.
 Atom     1 has atomic number  6 and mass  12.00000

 Molecular mass:   177.09021 amu.
 Principal axes and moments of inertia in atomic units:
                           1         2         3
     Eigenvalues --  1375.888402910.203413959.54126
           X            0.99974  -0.02157  -0.00752
           Y            0.02156   0.99977  -0.00199
           Z            0.00756   0.00183   0.99997
 This molecule is an asymmetric top.
 Rotational symmetry number  1.
 Warning -- assumption of classical behavior for rotation
           may cause significant error
 Rotational temperatures (Kelvin)      0.06295     0.02976     0.02187
 Rotational constants (GHZ):           1.31169     0.62014     0.45580
 Zero-point vibrational energy     516424.5 (Joules/Mol)
                                  123.42842 (Kcal/Mol)
 Warning -- explicit consideration of  14 degrees of freedom as
           vibrations may cause significant error
 Vibrational temperatures:     38.83    46.83   137.22   142.88   194.68
          (Kelvin)            241.29   383.12   440.76   486.79   563.76
                              607.50   650.13   721.36   882.75   913.28
                              941.40   994.18  1028.16  1065.67  1082.18
                             1177.45  1223.00  1247.97  1253.68  1305.75
                             1314.40  1327.10  1339.62  1373.29  1479.08
                             1505.41  1524.39  1603.10  1625.83  1633.93
                             1647.94  1711.87  1728.79  1741.51  1770.40
                             1814.79  1908.55  1930.33  1952.86  1989.86
                             2068.65  2069.33  2088.08  2163.41  2205.27
                             2233.98  2242.64  2280.45  2412.15  2453.80
                             4260.63  4394.47  4432.86  4501.33  4697.95
                             4707.60  4727.47  4750.98  4761.17  4972.45
                             5104.83

 Zero-point correction=                           0.196696 (Hartree/Particle)
 Thermal correction to Energy=                    0.208073
 Thermal correction to Enthalpy=                  0.209017
 Thermal correction to Gibbs Free Energy=         0.157413
 Sum of electronic and zero-point Energies=           -588.861340
 Sum of electronic and thermal Energies=              -588.849963
 Sum of electronic and thermal Enthalpies=            -588.849018
 Sum of electronic and thermal Free Energies=         -588.900622

                     E (Thermal)             CV                S
                      KCal/Mol        Cal/Mol-Kelvin    Cal/Mol-Kelvin
 Total                  130.568             42.914            108.609
 Electronic               0.000              0.000              0.000
 Translational            0.889              2.981             41.422
 Rotational               0.889              2.981             31.139
 Vibrational            128.790             36.952             36.048
 Vibration     1          0.593              1.984              6.039
 Vibration     2          0.594              1.983              5.668
 Vibration     3          0.603              1.952              3.547
 Vibration     4          0.604              1.950              3.468
 Vibration     5          0.613              1.918              2.869
 Vibration     6          0.624              1.882              2.461
 Vibration     7          0.672              1.735              1.620
 Vibration     8          0.697              1.662              1.382
 Vibration     9          0.719              1.599              1.220
 Vibration    10          0.759              1.488              0.993
 Vibration    11          0.785              1.422              0.884
 Vibration    12          0.811              1.357              0.790
 Vibration    13          0.857              1.247              0.655
 Vibration    14          0.973              1.003              0.427

                           ! Non-Optimized Parameters !
 Normal termination of Gaussian 16 at Mon Dec 14 13:19:51 2020.

 ----------------------------------------------------------------------
 # B3LYP/6-311++G(d,p) empiricaldispersion=gd3bj scf=xqc pop=npa geom=c
 heck
 ----------------------------------------------------------------------

 --------------------------------------
 CID_84109747_JID_3913_Energie_neutraal
 --------------------------------------
 Structure from the checkpoint file:  "JID_3913.chk"
 Charge =  0 Multiplicity = 1

 SCF Done:  E(RB3LYP) =  -589.225451581     A.U. after   14 cycles
 Normal termination of Gaussian 16 at Mon Dec 14 13:22:06 2020.

 ----------------------------------------------------------------------
 # B3LYP/6-311++G(d,p) empiricaldispersion=gd3bj scf=xqc pop=npa geom=c
 heck
 ----------------------------------------------------------------------

 ------------------------------------
 CID_84109747_JID_3913_Energie_kation
 ------------------------------------
 Structure from the checkpoint file:  "JID_3913.chk"
 Charge =  1 Multiplicity = 2

 SCF Done:  E(UB3LYP) =  -588.928459655     A.U. after   24 cycles
 Normal termination of Gaussian 16 at Mon Dec 14 13:27:34 2020.
 Gaussian 16:  ES64L-G16RevA.03 25-Dec-2016

 ----------------------------------------------------------------------
 # B3LYP/6-311++G(d,p) empiricaldispersion=gd3bj scf=xqc pop=npa geom=c
 heck
 ----------------------------------------------------------------------

 -----------------------------------
 CID_84109747_JID_3913_Energie_anion
 -----------------------------------
 Structure from the checkpoint file:  "JID_3913.chk"
 Charge = -1 Multiplicity = 2

                         Standard orientation:
 ---------------------------------------------------------------------
 Center     Atomic      Atomic             Coordinates (Angstroms)
 Number     Number       Type             X           Y           Z
 ---------------------------------------------------------------------
      1          6           0       -3.497415   -0.483350    0.245350
      2          6           0       -2.783433   -1.350120   -0.523557
      3          8           0       -1.498593   -0.908125   -0.673874
      4          6           0       -1.399964    0.258274    0.034504
      5          6           0       -2.592407    0.566254    0.617114
      6          7           0       -0.169690    0.909962    0.001517
      7          6           0        0.048667    2.202387   -0.473252
      8          6           0        1.388543    2.420987   -0.323997
      9          7           0        2.005025    1.313196    0.226068
     10          6           0        1.058519    0.418314    0.422038
     11          6           0        1.255680   -0.965620    0.953159
     12          6           0        1.928836   -1.885406   -0.081510
     13          7           0        3.332257   -1.503672   -0.236849
     14          1           0       -4.536328   -0.578493    0.527063
     15          1           0       -3.014043   -2.283418   -1.012539
     16          1           0       -2.790280    1.423285    1.243941
     17          1           0       -0.764644    2.796591   -0.859195
     18          1           0        1.951530    3.308874   -0.576331
     19          1           0        1.900945   -0.914237    1.836207
     20          1           0        0.293697   -1.388560    1.256200
     21          1           0        1.884779   -2.918241    0.287318
     22          1           0        1.332861   -1.850109   -1.011203
     23          1           0        3.729321   -1.960086   -1.055683
     24          1           0        3.385616   -0.497322   -0.399043
 ---------------------------------------------------------------------

 SCF Done:  E(UB3LYP) =  -589.211986075     A.U. after   33 cycles
 SCF Done:  E(UB3LYP) =  -589.211986075     a.u. after    1 cycles

 The electronic state is 2-A.
 Alpha  occ. eigenvalues --  -19.10321 -14.29245 -14.20747 -14.19611 -10.17177
 Alpha  occ. eigenvalues --  -10.14436 -10.13005 -10.11216 -10.10215 -10.09903
 Alpha  occ. eigenvalues --  -10.08803 -10.08698 -10.08077  -1.03162  -0.93436
 Alpha  occ. eigenvalues --   -0.80782  -0.78981  -0.71555  -0.69410  -0.65839
 Alpha  occ. eigenvalues --   -0.62328  -0.54504  -0.52925  -0.52331  -0.50617
 Alpha  occ. eigenvalues --   -0.46161  -0.44295  -0.40576  -0.40119  -0.38329
 Alpha  occ. eigenvalues --   -0.37598  -0.35807  -0.34684  -0.34411  -0.32936
 Alpha  occ. eigenvalues --   -0.32500  -0.31256  -0.29524  -0.28296  -0.27705
 Alpha  occ. eigenvalues --   -0.27201  -0.21200  -0.19536  -0.19082  -0.15186
 Alpha  occ. eigenvalues --   -0.14505  -0.13538   0.04380
 Alpha virt. eigenvalues --    0.06530   0.06795   0.07557   0.07924   0.08651
 Alpha virt. eigenvalues --    0.08866   0.09620   0.10334   0.10629   0.11302
 Alpha virt. eigenvalues --    0.11986   0.12669   0.13111   0.13765   0.14712

  Beta  occ. eigenvalues --  -19.10307 -14.29245 -14.20741 -14.19603 -10.17166
  Beta  occ. eigenvalues --  -10.14429 -10.12972 -10.11199 -10.10199 -10.09901
  Beta  occ. eigenvalues --  -10.08795 -10.08673 -10.08055  -1.03132  -0.93423
  Beta  occ. eigenvalues --   -0.80767  -0.78964  -0.71514  -0.69387  -0.65797
  Beta  occ. eigenvalues --   -0.62297  -0.54462  -0.52895  -0.52291  -0.50584
  Beta  occ. eigenvalues --   -0.46096  -0.44258  -0.40523  -0.40072  -0.38305
  Beta  occ. eigenvalues --   -0.37546  -0.35769  -0.34663  -0.34370  -0.32916
  Beta  occ. eigenvalues --   -0.32450  -0.31206  -0.29490  -0.28279  -0.27681
  Beta  occ. eigenvalues --   -0.27177  -0.21163  -0.19493  -0.19069  -0.15160
  Beta  occ. eigenvalues --   -0.14472  -0.13486
  Beta virt. eigenvalues --    0.06608   0.07246   0.07717   0.07759   0.08837
  Beta virt. eigenvalues --    0.09017   0.09548   0.10134   0.10576   0.11062
  Beta virt. eigenvalues --    0.11693   0.12124   0.12646   0.13131   0.13776

 Mulliken charges and spin densities:
               1          2
     1  C    4.040044  -4.599450
     2  C   -1.033878   1.180305
     3  O   -0.103193   0.078948
     4  C    2.391011  -3.381358
     5  C   -3.454226   4.188492
     6  N    0.289613  -0.039781
     7  C    0.503794  -0.519150
     8  C    0.011494  -0.061380
     9  N   -0.204230   0.091111
    10  C    0.142382  -0.366449
    11  C    0.157223  -0.578096
    12  C    0.180910  -0.632210
    13  N   -0.436570   0.071746
    14  H   -1.114927   1.302274
    15  H   -1.381298   1.586831
    16  H   -1.022616   1.230766
    17  H   -0.446123   0.619617
    18  H   -0.065911   0.226955
    19  H    0.080290   0.126254
    20  H    0.294881  -0.132437
    21  H   -0.146471   0.313399
    22  H   -0.036421   0.187719
    23  H    0.109754   0.109200
    24  H    0.244465  -0.003305
 Sum of Mulliken charges =  -1.00000   1.00000

 Dipole moment (field-independent basis, Debye):
    X=              7.2275    Y=              2.0045    Z=             -0.4860  Tot=              7.5161
 Quadrupole moment (field-independent basis, Debye-Ang):
   XX=           -164.4166   YY=           -125.5513   ZZ=           -104.2936
   XY=             -3.8165   XZ=             -2.2079   YZ=             -3.5223

 Summary of Natural Population Analysis:

                                       Natural Population
                Natural  -----------------------------------------------
    Atom  No    Charge         Core      Valence    Rydberg      Total
 -----------------------------------------------------------------------
      C    1   -0.14345      0.99957     2.13403    0.00985     3.14345
      C    2    0.06857      0.99951     1.91727    0.01465     2.93143
      O    3   -0.23371      0.99986     3.22478    0.00907     4.23371
      C    4    0.22507      0.99943     1.75771    0.01779     2.77493
      C    5   -0.13696      0.99950     2.12810    0.00936     3.13696
      N    6   -0.22010      0.99959     2.70988    0.01063     3.72010
      C    7   -0.02648      0.99955     2.01575    0.01118     3.02648
      C    8   -0.03428      0.99957     2.02179    0.01292     3.03428
      N    9   -0.26807      0.99969     2.75838    0.01000     3.76807
      C   10    0.20989      0.99960     1.77281    0.01769     2.79011
      C   11   -0.22055      0.99959     2.21079    0.01017     3.22055
      C   12   -0.08333      0.99965     2.07306    0.01062     3.08333
      N   13   -0.42851      0.99977     2.91919    0.00955     3.92851
      H   14    0.11519      0.00000     0.37941    0.00539     0.38481
      H   15    0.10153      0.00000     0.39408    0.00438     0.39847
      H   16    0.11520      0.00000     0.38229    0.00251     0.38480
      H   17    0.10965      0.00000     0.38897    0.00138     0.39035
      H   18    0.09716      0.00000     0.40190    0.00093     0.40284
      H   19    0.11200      0.00000     0.38666    0.00134     0.38800
      H   20    0.11335      0.00000     0.38543    0.00122     0.38665
      H   21    0.08943      0.00000     0.40919    0.00138     0.41057
      H   22    0.08308      0.00000     0.41456    0.00236     0.41692
      H   23    0.17108      0.00000     0.32722    0.00170     0.32892
      H   24    0.18422      0.00000     0.31319    0.00259     0.31578
 =======================================================================
   * Total *   -0.00000     12.99487    33.82647    0.17866    47.00000

 Normal termination of Gaussian 16 at Mon Dec 14 13:34:49 2020.
