 Gaussian 16, Revision A.03,

 -----------------------------------------------------------
 # opt freq B3LYP/6-31G(d) empiricaldispersion=gd3bj scf=xqc
 -----------------------------------------------------------

 -------------------------------
 CID_107928173_JID_5165_neutraal
 -------------------------------
 Symbolic Z-matrix:
 Charge =  0 Multiplicity = 1

 SCF Done:  E(RB3LYP) =  -651.657490952     A.U. after   15 cycles
 SCF Done:  E(RB3LYP) =  -651.659958436     A.U. after   13 cycles
 SCF Done:  E(RB3LYP) =  -651.660121479     A.U. after   13 cycles
 SCF Done:  E(RB3LYP) =  -651.661357005     A.U. after   15 cycles
 SCF Done:  E(RB3LYP) =  -651.662671450     A.U. after   13 cycles
 SCF Done:  E(RB3LYP) =  -651.662927933     A.U. after   12 cycles
 SCF Done:  E(RB3LYP) =  -651.663007714     A.U. after   12 cycles
 SCF Done:  E(RB3LYP) =  -651.663056840     A.U. after   11 cycles
 SCF Done:  E(RB3LYP) =  -651.663085257     A.U. after   11 cycles
 SCF Done:  E(RB3LYP) =  -651.663090860     A.U. after   10 cycles
 SCF Done:  E(RB3LYP) =  -651.663196964     A.U. after   10 cycles
 SCF Done:  E(RB3LYP) =  -651.663202718     A.U. after   10 cycles
 SCF Done:  E(RB3LYP) =  -651.663203143     A.U. after    8 cycles
 SCF Done:  E(RB3LYP) =  -651.663203188     A.U. after    8 cycles
 SCF Done:  E(RB3LYP) =  -651.663203192     A.U. after    6 cycles
 SCF Done:  E(RB3LYP) =  -651.663203193     A.U. after    6 cycles
 Optimization completed.
    -- Stationary point found.
 Normal termination of Gaussian 16 at Thu Dec 10 14:57:00 2020.

 --------------------------------------------------------------------
 #N Geom=AllCheck Guess=TCheck SCRF=Check GenChk RB3LYP/6-31G(d) Freq
 --------------------------------------------------------------------

 Structure from the checkpoint file:  "JID_5165.chk"
 -------------------------------
 CID_107928173_JID_5165_neutraal
 -------------------------------
 Charge =  0 Multiplicity = 1

 SCF Done:  E(RB3LYP) =  -651.663203193     A.U. after    1 cycles

  Exact polarizability: 160.209  24.009 140.154  13.010 -19.174 114.407
 Approx polarizability: 225.318  50.604 229.625  23.699 -47.874 185.776

                      1                      2                      3
                      A                      A                      A
 Frequencies --     29.1977                36.2055                47.9573
 Red. masses --      3.6218                 3.9070                 1.0556
 Frc consts  --      0.0018                 0.0030                 0.0014
 IR Inten    --      0.5179                 1.7271                 0.0149

                      4                      5                      6
                      A                      A                      A
 Frequencies --     69.4437                82.0348               114.6719
 Red. masses --      3.0960                 3.2171                 3.8311
 Frc consts  --      0.0088                 0.0128                 0.0297
 IR Inten    --      0.5347                 1.0325                 0.6607

                      7                      8                      9
                      A                      A                      A
 Frequencies --    142.5310               150.2800               199.0356
 Red. masses --      8.3321                 5.0992                 2.9276
 Frc consts  --      0.0997                 0.0679                 0.0683
 IR Inten    --      3.7324                 4.0701                 0.1951

                     10                     11                     12
                      A                      A                      A
 Frequencies --    239.6368               247.1836               282.8835
 Red. masses --      1.1092                 1.2655                 2.8762
 Frc consts  --      0.0375                 0.0456                 0.1356
 IR Inten    --      0.1516                 0.5417                 0.4708

                     13                     14                     15
                      A                      A                      A
 Frequencies --    322.6280               326.1349               366.2450
 Red. masses --      2.5771                 3.2022                 3.2697
 Frc consts  --      0.1580                 0.2007                 0.2584
 IR Inten    --      3.2951                 7.4776                 3.6822

                     16                     17                     18
                      A                      A                      A
 Frequencies --    385.0995               404.7241               411.0917
 Red. masses --      4.4583                 4.5069                 2.0353
 Frc consts  --      0.3895                 0.4350                 0.2027
 IR Inten    --      0.9292                 2.3740                 2.6048

                     19                     20                     21
                      A                      A                      A
 Frequencies --    438.7580               462.7227               513.2359
 Red. masses --      2.1464                 4.9117                 7.1489
 Frc consts  --      0.2434                 0.6196                 1.1095
 IR Inten    --      0.6132                 7.4976                 2.8144

                     22                     23                     24
                      A                      A                      A
 Frequencies --    521.3540               563.4372               599.1982
 Red. masses --      3.4827                 2.7154                 4.9209
 Frc consts  --      0.5577                 0.5079                 1.0410
 IR Inten    --      7.9606                 4.0410                 0.3617

                     25                     26                     27
                      A                      A                      A
 Frequencies --    607.2898               718.5550               741.3532
 Red. masses --      4.7280                 5.8560                 4.8142
 Frc consts  --      1.0274                 1.7814                 1.5589
 IR Inten    --      0.4117                 1.6241                 1.6899

                     28                     29                     30
                      A                      A                      A
 Frequencies --    758.9510               802.4110               847.8091
 Red. masses --      3.8853                 2.9319                 1.5594
 Frc consts  --      1.3186                 1.1122                 0.6604
 IR Inten    --      4.1957                28.5689                24.4933

                     31                     32                     33
                      A                      A                      A
 Frequencies --    901.0017               905.7140               945.8458
 Red. masses --      1.9293                 1.6029                 3.5843
 Frc consts  --      0.9228                 0.7747                 1.8893
 IR Inten    --     13.6837                 1.4981                 0.9700

                     34                     35                     36
                      A                      A                      A
 Frequencies --    968.1129               984.3379              1035.8664
 Red. masses --      1.3093                 2.2361                 1.4856
 Frc consts  --      0.7230                 1.2765                 0.9392
 IR Inten    --      0.5741                37.6028                 8.9753

                     37                     38                     39
                      A                      A                      A
 Frequencies --   1056.6787              1078.3023              1080.4748
 Red. masses --      3.4911                 1.4925                 1.7318
 Frc consts  --      2.2967                 1.0224                 1.1912
 IR Inten    --     56.8646                 4.7975                16.4997

                     40                     41                     42
                      A                      A                      A
 Frequencies --   1093.4646              1097.3903              1135.5548
 Red. masses --      1.7708                 2.1679                 1.2911
 Frc consts  --      1.2475                 1.5382                 0.9809
 IR Inten    --      2.8384                12.6144                 6.4016

                     43                     44                     45
                      A                      A                      A
 Frequencies --   1152.7901              1182.0606              1192.7507
 Red. masses --      2.1621                 1.4807                 1.4568
 Frc consts  --      1.6929                 1.2189                 1.2211
 IR Inten    --     30.4671                 6.1147                 2.7824

                     46                     47                     48
                      A                      A                      A
 Frequencies --   1236.4279              1261.5913              1279.8243
 Red. masses --      1.7585                 2.2265                 4.6505
 Frc consts  --      1.5839                 2.0879                 4.4880
 IR Inten    --     21.1265                 8.1463               121.7312

                     49                     50                     51
                      A                      A                      A
 Frequencies --   1311.3275              1313.2183              1333.8160
 Red. masses --      1.5484                 1.7778                 1.7356
 Frc consts  --      1.5687                 1.8064                 1.8193
 IR Inten    --     40.0155                23.3003                19.7711

                     52                     53                     54
                      A                      A                      A
 Frequencies --   1337.5497              1359.5592              1416.8840
 Red. masses --      1.4830                 5.1244                 1.4043
 Frc consts  --      1.5632                 5.5807                 1.6610
 IR Inten    --      9.1888                19.7614                13.8581

                     55                     56                     57
                      A                      A                      A
 Frequencies --   1436.9553              1445.5290              1450.0623
 Red. masses --      1.4825                 1.3286                 2.3186
 Frc consts  --      1.8036                 1.6357                 2.8724
 IR Inten    --     12.3194                 2.6963                10.7024

                     58                     59                     60
                      A                      A                      A
 Frequencies --   1471.6025              1494.1823              1512.7629
 Red. masses --      1.1665                 1.1324                 1.0474
 Frc consts  --      1.4884                 1.4896                 1.4122
 IR Inten    --      2.2152                 0.3690                 6.4925

                     61                     62                     63
                      A                      A                      A
 Frequencies --   1515.2272              1515.3862              1526.6448
 Red. masses --      1.1182                 1.0659                 1.1563
 Frc consts  --      1.5126                 1.4422                 1.5878
 IR Inten    --      1.4905                 7.1633                14.7873

                     64                     65                     66
                      A                      A                      A
 Frequencies --   1528.3538              1530.3809              1534.5235
 Red. masses --      1.1108                 1.0927                 1.2359
 Frc consts  --      1.5287                 1.5078                 1.7146
 IR Inten    --      8.5722                 3.3098                51.2008

                     67                     68                     69
                      A                      A                      A
 Frequencies --   1541.4461              1552.6263              1620.8336
 Red. masses --      1.0956                 1.7108                 6.0142
 Frc consts  --      1.5338                 2.4299                 9.3090
 IR Inten    --      3.4239                93.5646                12.0659

                     70                     71                     72
                      A                      A                      A
 Frequencies --   1673.4744              2336.9682              2915.9150
 Red. masses --      5.8715                12.6747                 1.0725
 Frc consts  --      9.6881                40.7844                 5.3726
 IR Inten    --     21.0786                49.6658                66.2187

                     73                     74                     75
                      A                      A                      A
 Frequencies --   2935.8396              2946.3466              3045.5593
 Red. masses --      1.0614                 1.0631                 1.0376
 Frc consts  --      5.3900                 5.4372                 5.6706
 IR Inten    --     41.9007               208.0743                35.4696

                     76                     77                     78
                      A                      A                      A
 Frequencies --   3078.7810              3086.0050              3095.1286
 Red. masses --      1.0715                 1.0849                 1.0727
 Frc consts  --      5.9839                 6.0872                 6.0544
 IR Inten    --     20.4722                19.7874                27.0957

                     79                     80                     81
                      A                      A                      A
 Frequencies --   3097.4995              3104.8117              3123.7163
 Red. masses --      1.1011                 1.0612                 1.1038
 Frc consts  --      6.2243                 6.0274                 6.3458
 IR Inten    --     18.9823                31.9172                25.9215

                     82                     83                     84
                      A                      A                      A
 Frequencies --   3129.8647              3143.1946              3154.2292
 Red. masses --      1.1008                 1.1025                 1.1047
 Frc consts  --      6.3533                 6.4177                 6.4756
 IR Inten    --     14.5545                24.6177                11.9637

                     85                     86                     87
                      A                      A                      A
 Frequencies --   3183.1964              3201.7820              3220.4611
 Red. masses --      1.0892                 1.0910                 1.0932
 Frc consts  --      6.5024                 6.5898                 6.6799
 IR Inten    --     14.0366                 6.3736                 6.6275

 - Thermochemistry -
 -------------------
 Temperature   298.150 Kelvin.  Pressure   1.00000 Atm.
 Atom     1 has atomic number  6 and mass  12.00000

 Molecular mass:   204.12626 amu.
 Principal axes and moments of inertia in atomic units:
                           1         2         3
     Eigenvalues --  2312.316713745.539244430.73784
           X            1.00000  -0.00077   0.00279
           Y            0.00071   0.99973   0.02310
           Z           -0.00280  -0.02309   0.99973
 This molecule is an asymmetric top.
 Rotational symmetry number  1.
 Warning -- assumption of classical behavior for rotation
           may cause significant error
 Rotational temperatures (Kelvin)      0.03746     0.02312     0.01955
 Rotational constants (GHZ):           0.78049     0.48184     0.40732
 Zero-point vibrational energy     689299.6 (Joules/Mol)
                                  164.74656 (Kcal/Mol)
 Warning -- explicit consideration of  25 degrees of freedom as
           vibrations may cause significant error
 Vibrational temperatures:     42.01    52.09    69.00    99.91   118.03
          (Kelvin)            164.99   205.07   216.22   286.37   344.78
                              355.64   407.01   464.19   469.24   526.94
                              554.07   582.31   591.47   631.27   665.75
                              738.43   750.11   810.66   862.11   873.75
                             1033.84  1066.64  1091.96  1154.49  1219.81
                             1296.34  1303.12  1360.86  1392.90  1416.24
                             1490.38  1520.32  1551.44  1554.56  1573.25
                             1578.90  1633.81  1658.61  1700.72  1716.10
                             1778.94  1815.15  1841.38  1886.71  1889.43
                             1919.06  1924.44  1956.10  2038.58  2067.46
                             2079.79  2086.32  2117.31  2149.80  2176.53
                             2180.07  2180.30  2196.50  2198.96  2201.88
                             2207.84  2217.80  2233.88  2332.02  2407.76
                             3362.38  4195.35  4224.02  4239.14  4381.88
                             4429.68  4440.07  4453.20  4456.61  4467.13
                             4494.33  4503.18  4522.36  4538.23  4579.91
                             4606.65  4633.53

 Zero-point correction=                           0.262540 (Hartree/Particle)
 Thermal correction to Energy=                    0.278105
 Thermal correction to Enthalpy=                  0.279050
 Thermal correction to Gibbs Free Energy=         0.218459
 Sum of electronic and zero-point Energies=           -651.400663
 Sum of electronic and thermal Energies=              -651.385098
 Sum of electronic and thermal Enthalpies=            -651.384154
 Sum of electronic and thermal Free Energies=         -651.444744

                     E (Thermal)             CV                S
                      KCal/Mol        Cal/Mol-Kelvin    Cal/Mol-Kelvin
 Total                  174.514             57.066            127.524
 Electronic               0.000              0.000              0.000
 Translational            0.889              2.981             41.845
 Rotational               0.889              2.981             32.018
 Vibrational            172.736             51.104             53.661
 Vibration     1          0.593              1.984              5.883
 Vibration     2          0.594              1.982              5.457
 Vibration     3          0.595              1.978              4.900
 Vibration     4          0.598              1.969              4.169
 Vibration     5          0.600              1.961              3.842
 Vibration     6          0.608              1.937              3.188
 Vibration     7          0.616              1.911              2.770
 Vibration     8          0.618              1.902              2.669
 Vibration     9          0.637              1.841              2.142
 Vibration    10          0.657              1.780              1.806
 Vibration    11          0.661              1.767              1.751
 Vibration    12          0.682              1.705              1.516
 Vibration    13          0.708              1.630              1.297
 Vibration    14          0.710              1.623              1.279
 Vibration    15          0.739              1.542              1.095
 Vibration    16          0.754              1.502              1.019
 Vibration    17          0.770              1.460              0.945
 Vibration    18          0.775              1.446              0.923
 Vibration    19          0.799              1.386              0.831
 Vibration    20          0.820              1.333              0.758
 Vibration    21          0.868              1.221              0.626
 Vibration    22          0.876              1.203              0.607
 Vibration    23          0.919              1.110              0.517
 Vibration    24          0.957              1.033              0.451
 Vibration    25          0.966              1.016              0.437

 Optimization completed.
    -- Stationary point found.
 Normal termination of Gaussian 16 at Thu Dec 10 15:07:10 2020.

 ----------------------------------------------------------------------
 # B3LYP/6-311++G(d,p) empiricaldispersion=gd3bj scf=xqc pop=npa geom=c
 heck
 ----------------------------------------------------------------------

 ---------------------------------------
 CID_107928173_JID_5165_Energie_neutraal
 ---------------------------------------
 Structure from the checkpoint file:  "JID_5165.chk"
 Charge =  0 Multiplicity = 1

 SCF Done:  E(RB3LYP) =  -651.838799079     A.U. after   15 cycles
 Normal termination of Gaussian 16 at Thu Dec 10 15:12:00 2020.

 ----------------------------------------------------------------------
 # B3LYP/6-311++G(d,p) empiricaldispersion=gd3bj scf=xqc pop=npa geom=c
 heck
 ----------------------------------------------------------------------

 -------------------------------------
 CID_107928173_JID_5165_Energie_kation
 -------------------------------------
 Structure from the checkpoint file:  "JID_5165.chk"
 Charge =  1 Multiplicity = 2

 SCF Done:  E(UB3LYP) =  -651.558661481     A.U. after   23 cycles
 Normal termination of Gaussian 16 at Thu Dec 10 15:21:42 2020.
 Gaussian 16:  ES64L-G16RevA.03 25-Dec-2016

 ----------------------------------------------------------------------
 # B3LYP/6-311++G(d,p) empiricaldispersion=gd3bj scf=xqc pop=npa geom=c
 heck
 ----------------------------------------------------------------------

 ------------------------------------
 CID_107928173_JID_5165_Energie_anion
 ------------------------------------
 Structure from the checkpoint file:  "JID_5165.chk"
 Charge = -1 Multiplicity = 2

                         Standard orientation:
 ---------------------------------------------------------------------
 Center     Atomic      Atomic             Coordinates (Angstroms)
 Number     Number       Type             X           Y           Z
 ---------------------------------------------------------------------
      1          6           0       -3.998871   -0.877189   -0.761821
      2          6           0       -2.700268   -0.441614   -0.128865
      3          6           0       -2.016545    0.682562   -0.577762
      4          6           0       -0.803208    1.092786    0.007773
      5          6           0       -0.240718    0.335834    1.055027
      6          6           0       -0.942163   -0.778981    1.523730
      7          6           0       -2.144552   -1.157918    0.944474
      8          8           0        0.898923    0.679933    1.720497
      9          6           0        2.131030    0.839682    0.994696
     10          6           0        2.642489   -0.490489    0.455486
     11          7           0        1.789433   -1.034523   -0.592001
     12          6           0        1.958203   -0.359596   -1.870099
     13          6           0        1.924095   -2.475252   -0.725953
     14          6           0       -0.185607    2.286783   -0.473189
     15          7           0        0.305307    3.259184   -0.884936
     16          1           0       -4.302678   -0.191807   -1.558579
     17          1           0       -3.913386   -1.879825   -1.198558
     18          1           0       -4.810109   -0.914207   -0.024857
     19          1           0       -2.421541    1.276751   -1.391439
     20          1           0       -0.508575   -1.341957    2.343313
     21          1           0       -2.662906   -2.035496    1.323646
     22          1           0        2.024484    1.589389    0.207991
     23          1           0        2.830444    1.231996    1.736984
     24          1           0        3.691773   -0.355649    0.120523
     25          1           0        2.660373   -1.202570    1.287810
     26          1           0        2.971454   -0.496378   -2.296357
     27          1           0        1.229243   -0.752399   -2.586022
     28          1           0        1.774263    0.712883   -1.768615
     29          1           0        2.935955   -2.795192   -1.043546
     30          1           0        1.696211   -2.957482    0.230376
     31          1           0        1.207116   -2.839796   -1.469064
 ---------------------------------------------------------------------

 SCF Done:  E(UB3LYP) =  -651.837197397     A.U. after   32 cycles

 The electronic state is 2-A.
 Alpha  occ. eigenvalues --  -19.01892 -14.19931 -14.15549 -10.10857 -10.09354
 Alpha  occ. eigenvalues --  -10.09068 -10.08160 -10.07831 -10.05920 -10.05550
 Alpha  occ. eigenvalues --  -10.04861 -10.04564 -10.03899 -10.03073 -10.02575
 Alpha  occ. eigenvalues --   -0.93499  -0.81893  -0.76098  -0.72380  -0.66116
 Alpha  occ. eigenvalues --   -0.63707  -0.62274  -0.60092  -0.57137  -0.53892
 Alpha  occ. eigenvalues --   -0.50227  -0.47716  -0.46144  -0.41259  -0.38543
 Alpha  occ. eigenvalues --   -0.37849  -0.36803  -0.35597  -0.34878  -0.32682
 Alpha  occ. eigenvalues --   -0.31901  -0.30637  -0.30457  -0.29397  -0.28976
 Alpha  occ. eigenvalues --   -0.27570  -0.27257  -0.26609  -0.25451  -0.24927
 Alpha  occ. eigenvalues --   -0.24205  -0.23157  -0.22570  -0.21727  -0.19923
 Alpha  occ. eigenvalues --   -0.18953  -0.16481  -0.12419  -0.12156  -0.08950
 Alpha  occ. eigenvalues --    0.04973
 Alpha virt. eigenvalues --    0.06907   0.07978   0.08780   0.09146   0.10181
 Alpha virt. eigenvalues --    0.10574   0.10715   0.11412   0.12011   0.12627
 Alpha virt. eigenvalues --    0.12898   0.13004   0.13443   0.13985   0.14700

  Beta  occ. eigenvalues --  -19.01882 -14.19933 -14.15266 -10.10834 -10.09197
  Beta  occ. eigenvalues --  -10.09062 -10.08139 -10.07823 -10.05905 -10.05544
  Beta  occ. eigenvalues --  -10.04654 -10.04626 -10.03747 -10.03077 -10.02232
  Beta  occ. eigenvalues --   -0.93421  -0.81889  -0.75672  -0.72044  -0.65981
  Beta  occ. eigenvalues --   -0.63479  -0.61886  -0.60067  -0.56970  -0.53717
  Beta  occ. eigenvalues --   -0.49694  -0.47609  -0.46001  -0.41158  -0.38484
  Beta  occ. eigenvalues --   -0.37696  -0.36677  -0.35476  -0.34805  -0.32570
  Beta  occ. eigenvalues --   -0.31784  -0.30541  -0.30381  -0.29296  -0.28951
  Beta  occ. eigenvalues --   -0.27346  -0.27178  -0.26550  -0.25409  -0.24578
  Beta  occ. eigenvalues --   -0.23866  -0.22857  -0.22173  -0.21361  -0.19262
  Beta  occ. eigenvalues --   -0.18438  -0.16320  -0.11998  -0.10814  -0.08204
  Beta virt. eigenvalues --    0.07187   0.08011   0.08823   0.09165   0.09951
  Beta virt. eigenvalues --    0.10335   0.10571   0.10851   0.11486   0.11962
  Beta virt. eigenvalues --    0.12585   0.12982   0.13144   0.13579   0.13931

 Mulliken charges and spin densities:
               1          2
     1  C   -0.410978  -0.165433
     2  C    0.342815  -0.139533
     3  C   -0.738706   0.057991
     4  C    2.519997   0.230831
     5  C   -1.268252   0.131727
     6  C   -0.060189  -0.006802
     7  C   -0.394995   0.420721
     8  O   -0.085085   0.004839
     9  C   -0.254077   0.086297
    10  C   -0.297539  -0.159609
    11  N    0.161323   0.122344
    12  C   -0.337461  -0.043325
    13  C    0.388938  -0.736957
    14  C   -1.097851  -0.105894
    15  N   -0.334524   0.152498
    16  H    0.110455   0.011810
    17  H    0.041333   0.107019
    18  H    0.143773  -0.014134
    19  H    0.148246  -0.001221
    20  H    0.105988   0.030165
    21  H    0.061726   0.044439
    22  H    0.174590  -0.019571
    23  H    0.080186   0.044948
    24  H   -0.027145   0.098953
    25  H    0.164115   0.013297
    26  H    0.002039   0.087943
    27  H    0.143375  -0.011927
    28  H    0.128421   0.000525
    29  H   -0.245619   0.344629
    30  H   -0.061242   0.183999
    31  H   -0.103656   0.229431
 Sum of Mulliken charges =  -1.00000   1.00000

 Dipole moment (field-independent basis, Debye):
    X=              0.0215    Y=             -1.9907    Z=              0.8047  Tot=              2.1473
 Quadrupole moment (field-independent basis, Debye-Ang):
   XX=           -121.5486   YY=           -139.7979   ZZ=           -108.8878
   XY=              3.7652   XZ=              6.1947   YZ=              0.4342

 Summary of Natural Population Analysis:

                                       Natural Population
                Natural  -----------------------------------------------
    Atom  No    Charge         Core      Valence    Rydberg      Total
 -----------------------------------------------------------------------
      C    1   -0.28551      0.99964     2.28129    0.00458     3.28551
      C    2   -0.05182      0.99951     2.04287    0.00944     3.05182
      C    3   -0.04750      0.99950     2.03830    0.00970     3.04750
      C    4   -0.09107      0.99936     2.08257    0.00914     3.09107
      C    5    0.20808      0.99934     1.77777    0.01481     2.79192
      C    6   -0.12365      0.99952     2.11396    0.01018     3.12365
      C    7   -0.02653      0.99952     2.01752    0.00948     3.02653
      O    8   -0.28833      0.99985     3.27987    0.00861     4.28833
      C    9   -0.01234      0.99954     2.00160    0.01121     3.01234
      C   10   -0.09540      0.99961     2.08460    0.01120     3.09540
      N   11   -0.27991      0.99972     2.76797    0.01221     3.77991
      C   12   -0.17865      0.99964     2.17094    0.00806     3.17865
      C   13   -0.17201      0.99964     2.16413    0.00823     3.17201
      C   14    0.14915      0.99964     1.83209    0.01913     2.85085
      N   15   -0.17402      0.99979     2.66359    0.01065     3.67402
      H   16    0.09657      0.00000     0.40266    0.00078     0.40343
      H   17    0.09833      0.00000     0.40039    0.00128     0.40167
      H   18    0.09546      0.00000     0.40353    0.00101     0.40454
      H   19    0.09336      0.00000     0.40567    0.00098     0.40664
      H   20    0.09560      0.00000     0.40284    0.00156     0.40440
      H   21    0.08791      0.00000     0.41119    0.00090     0.41209
      H   22    0.09461      0.00000     0.40341    0.00198     0.40539
      H   23    0.08664      0.00000     0.41250    0.00086     0.41336
      H   24    0.08046      0.00000     0.41756    0.00198     0.41954
      H   25    0.09681      0.00000     0.40183    0.00136     0.40319
      H   26    0.07549      0.00000     0.42303    0.00149     0.42451
      H   27    0.09610      0.00000     0.40306    0.00084     0.40390
      H   28    0.10396      0.00000     0.39503    0.00101     0.39604
      H   29    0.07668      0.00000     0.42117    0.00215     0.42332
      H   30    0.09524      0.00000     0.40364    0.00112     0.40476
      H   31    0.09632      0.00000     0.40272    0.00096     0.40368
 =======================================================================
   * Total *   -0.00000     14.99384    39.82927    0.17689    55.00000

 Normal termination of Gaussian 16 at Thu Dec 10 15:34:57 2020.
