 Gaussian 16, Revision A.03,

 -----------------------------------------------------------
 # opt freq B3LYP/6-31G(d) empiricaldispersion=gd3bj scf=xqc
 -----------------------------------------------------------

 -------------------------------
 CID_108833673_JID_8916_neutraal
 -------------------------------
 Symbolic Z-matrix:
 Charge =  0 Multiplicity = 1

 SCF Done:  E(RB3LYP) =  -802.861311573     A.U. after   16 cycles
 SCF Done:  E(RB3LYP) =  -802.889483943     A.U. after   14 cycles
 SCF Done:  E(RB3LYP) =  -802.834320168     A.U. after   15 cycles
 SCF Done:  E(RB3LYP) =  -802.886071013     A.U. after   14 cycles
 SCF Done:  E(RB3LYP) =  -802.893557880     A.U. after   11 cycles
 SCF Done:  E(RB3LYP) =  -802.897339328     A.U. after   13 cycles
 SCF Done:  E(RB3LYP) =  -802.899184589     A.U. after   14 cycles
 SCF Done:  E(RB3LYP) =  -802.900299455     A.U. after   12 cycles
 SCF Done:  E(RB3LYP) =  -802.900663056     A.U. after   12 cycles
 SCF Done:  E(RB3LYP) =  -802.900767374     A.U. after   12 cycles
 SCF Done:  E(RB3LYP) =  -802.900834435     A.U. after    8 cycles
 SCF Done:  E(RB3LYP) =  -802.900835185     A.U. after    8 cycles
 SCF Done:  E(RB3LYP) =  -802.900835795     A.U. after    8 cycles
 SCF Done:  E(RB3LYP) =  -802.900836127     A.U. after    8 cycles
 SCF Done:  E(RB3LYP) =  -802.900836271     A.U. after    8 cycles
 SCF Done:  E(RB3LYP) =  -802.900836269     A.U. after    6 cycles
 Optimization completed.
    -- Stationary point found.
 Normal termination of Gaussian 16 at Fri Dec 11 21:33:42 2020.

 --------------------------------------------------------------------
 #N Geom=AllCheck Guess=TCheck SCRF=Check GenChk RB3LYP/6-31G(d) Freq
 --------------------------------------------------------------------

 Structure from the checkpoint file:  "JID_8916.chk"
 -------------------------------
 CID_108833673_JID_8916_neutraal
 -------------------------------
 Charge =  0 Multiplicity = 1

 SCF Done:  E(RB3LYP) =  -802.900836269     A.U. after    1 cycles

  Exact polarizability: 198.345  19.819 172.568  -2.573   6.920 133.624
 Approx polarizability: 276.043  41.897 239.930 -14.612   5.375 212.362

                      1                      2                      3
                      A                      A                      A
 Frequencies --     27.0170                32.7445                38.8428
 Red. masses --      3.6847                 4.0298                 3.4170
 Frc consts  --      0.0016                 0.0025                 0.0030
 IR Inten    --      1.2883                 0.5237                 2.5997

                      4                      5                      6
                      A                      A                      A
 Frequencies --     46.6617                48.5633                91.4821
 Red. masses --      3.7897                 3.9542                 4.6900
 Frc consts  --      0.0049                 0.0055                 0.0231
 IR Inten    --      2.0859                 0.5959                 0.8089

                      7                      8                      9
                      A                      A                      A
 Frequencies --    104.5978               122.0954               143.0609
 Red. masses --      3.8008                 6.9195                 3.5274
 Frc consts  --      0.0245                 0.0608                 0.0425
 IR Inten    --      0.1824                 3.7449                 1.1075

                     10                     11                     12
                      A                      A                      A
 Frequencies --    151.3984               175.0686               197.8567
 Red. masses --      2.6005                 3.3726                 3.1172
 Frc consts  --      0.0351                 0.0609                 0.0719
 IR Inten    --      0.7951                 0.3981                 0.8962

                     13                     14                     15
                      A                      A                      A
 Frequencies --    222.7899               236.5863               255.9689
 Red. masses --      1.0589                 2.3098                 2.4478
 Frc consts  --      0.0310                 0.0762                 0.0945
 IR Inten    --      0.1433                 0.5525                 2.2508

                     16                     17                     18
                      A                      A                      A
 Frequencies --    273.0267               286.4528               319.7105
 Red. masses --      2.7099                 1.6423                 2.5395
 Frc consts  --      0.1190                 0.0794                 0.1529
 IR Inten    --      1.8736                 1.0566                 9.4387

                     19                     20                     21
                      A                      A                      A
 Frequencies --    345.4005               360.9549               390.7656
 Red. masses --      4.2256                 2.5889                 2.6082
 Frc consts  --      0.2970                 0.1987                 0.2347
 IR Inten    --     14.3670                11.3369                11.4174

                     22                     23                     24
                      A                      A                      A
 Frequencies --    431.9711               440.2557               463.2107
 Red. masses --      1.9101                 2.3628                 3.6001
 Frc consts  --      0.2100                 0.2698                 0.4551
 IR Inten    --      0.0458                 1.7393                 1.1737

                     25                     26                     27
                      A                      A                      A
 Frequencies --    483.5470               489.6755               513.8082
 Red. masses --      2.9338                 2.8053                 1.7776
 Frc consts  --      0.4042                 0.3963                 0.2765
 IR Inten    --      1.2985                 4.6024                38.7051

                     28                     29                     30
                      A                      A                      A
 Frequencies --    527.0799               552.4005               603.5434
 Red. masses --      5.1704                 4.6976                 2.5207
 Frc consts  --      0.8463                 0.8446                 0.5410
 IR Inten    --      7.8318                 3.8821                39.2022

                     31                     32                     33
                      A                      A                      A
 Frequencies --    644.4860               675.9686               723.6409
 Red. masses --      1.9980                 3.9997                 3.9130
 Frc consts  --      0.4890                 1.0768                 1.2073
 IR Inten    --     24.0699                10.9854                 4.5372

                     34                     35                     36
                      A                      A                      A
 Frequencies --    756.3013               784.2678               793.5088
 Red. masses --      1.4304                 4.8395                 4.2317
 Frc consts  --      0.4821                 1.7538                 1.5699
 IR Inten    --      8.4989                10.3882                12.4396

                     37                     38                     39
                      A                      A                      A
 Frequencies --    823.3060               830.1133               847.4356
 Red. masses --      3.2181                 2.4237                 1.7022
 Frc consts  --      1.2852                 0.9840                 0.7202
 IR Inten    --      7.8262                 0.1514                 3.1394

                     40                     41                     42
                      A                      A                      A
 Frequencies --    881.4437               939.4442               948.8208
 Red. masses --      1.4409                 2.2907                 1.4457
 Frc consts  --      0.6596                 1.1911                 0.7668
 IR Inten    --      8.1218                 1.3608                 2.3500

                     43                     44                     45
                      A                      A                      A
 Frequencies --    979.2617               995.0488              1000.5919
 Red. masses --      2.0212                 1.4554                 2.5281
 Frc consts  --      1.1420                 0.8491                 1.4913
 IR Inten    --      2.3561                 1.1137                 8.8145

                     46                     47                     48
                      A                      A                      A
 Frequencies --   1044.9110              1059.8639              1068.3955
 Red. masses --      2.2911                 1.6572                 2.1573
 Frc consts  --      1.4739                 1.0968                 1.4508
 IR Inten    --     53.3525                 5.6388                 6.1999

                     49                     50                     51
                      A                      A                      A
 Frequencies --   1070.3969              1089.9932              1104.4850
 Red. masses --      1.8041                 2.0344                 2.6953
 Frc consts  --      1.2179                 1.4241                 1.9372
 IR Inten    --      4.5484                32.7876                14.8563

                     52                     53                     54
                      A                      A                      A
 Frequencies --   1146.0409              1149.9946              1169.8023
 Red. masses --      3.7296                 1.9938                 1.4523
 Frc consts  --      2.8861                 1.5536                 1.1709
 IR Inten    --     17.7624                 1.8504                23.4400

                     55                     56                     57
                      A                      A                      A
 Frequencies --   1179.4269              1186.2902              1206.8768
 Red. masses --      1.9854                 2.5441                 2.7713
 Frc consts  --      1.6272                 2.1094                 2.3783
 IR Inten    --     56.9051                 4.2556                21.0108

                     58                     59                     60
                      A                      A                      A
 Frequencies --   1240.2174              1254.8358              1266.4131
 Red. masses --      1.4227                 1.5121                 1.2103
 Frc consts  --      1.2893                 1.4028                 1.1437
 IR Inten    --     14.3250               103.9556                19.1804

                     61                     62                     63
                      A                      A                      A
 Frequencies --   1285.4897              1292.0742              1331.6924
 Red. masses --      1.4806                 1.5248                 1.1852
 Frc consts  --      1.4416                 1.4998                 1.2384
 IR Inten    --     17.5908                12.8197                11.2778

                     64                     65                     66
                      A                      A                      A
 Frequencies --   1333.3528              1347.6890              1382.4817
 Red. masses --      1.5450                 1.8533                 1.3431
 Frc consts  --      1.6183                 1.9832                 1.5124
 IR Inten    --     17.3668               144.3777                 3.7062

                     67                     68                     69
                      A                      A                      A
 Frequencies --   1387.9954              1394.2597              1402.7158
 Red. masses --      1.4519                 1.5514                 1.3330
 Frc consts  --      1.6480                 1.7769                 1.5454
 IR Inten    --      2.5405                10.2801                16.6702

                     70                     71                     72
                      A                      A                      A
 Frequencies --   1406.4397              1414.5909              1416.3337
 Red. masses --      1.4562                 1.5269                 1.3652
 Frc consts  --      1.6971                 1.8002                 1.6135
 IR Inten    --      0.8884                14.2076                29.4829

                     73                     74                     75
                      A                      A                      A
 Frequencies --   1422.4692              1444.5880              1451.6924
 Red. masses --      1.2752                 1.2781                 2.5893
 Frc consts  --      1.5203                 1.5714                 3.2150
 IR Inten    --      8.0928                 6.3573                77.5892

                     76                     77                     78
                      A                      A                      A
 Frequencies --   1460.5411              1480.7397              1482.2315
 Red. masses --      1.4607                 1.5075                 1.1757
 Frc consts  --      1.8358                 1.9475                 1.5218
 IR Inten    --    131.4691                42.9968                13.3346

                     79                     80                     81
                      A                      A                      A
 Frequencies --   1497.6529              1509.7537              1510.6587
 Red. masses --      1.0867                 1.0849                 1.1260
 Frc consts  --      1.4361                 1.4569                 1.5140
 IR Inten    --      6.5664                 2.4758                23.9663

                     82                     83                     84
                      A                      A                      A
 Frequencies --   1513.1426              1514.1690              1525.8026
 Red. masses --      1.0757                 1.0765                 1.0506
 Frc consts  --      1.4511                 1.4542                 1.4410
 IR Inten    --      1.9372                 3.7260                 3.9905

                     85                     86                     87
                      A                      A                      A
 Frequencies --   1532.3712              1533.1209              1540.7643
 Red. masses --      1.0553                 1.0911                 1.0899
 Frc consts  --      1.4600                 1.5110                 1.5245
 IR Inten    --      8.1562                38.4870                 7.9933

                     88                     89                     90
                      A                      A                      A
 Frequencies --   1546.6006              1556.3322              1677.0566
 Red. masses --      1.0496                 1.0760                 5.2911
 Frc consts  --      1.4792                 1.5355                 8.7679
 IR Inten    --      4.1535                 7.4234               424.0437

                     91                     92                     93
                      A                      A                      A
 Frequencies --   1775.3229              2329.1291              2971.0915
 Red. masses --      8.8589                12.6702                 1.0592
 Frc consts  --     16.4507                40.4967                 5.5088
 IR Inten    --    410.1042               101.2586                43.6582

                     94                     95                     96
                      A                      A                      A
 Frequencies --   3008.6015              3018.7168              3030.9681
 Red. masses --      1.0702                 1.0730                 1.0684
 Frc consts  --      5.7074                 5.7608                 5.7830
 IR Inten    --     50.4567                60.2665                26.4990

                     97                     98                     99
                      A                      A                      A
 Frequencies --   3039.3305              3043.3992              3044.2475
 Red. masses --      1.0685                 1.0619                 1.0619
 Frc consts  --      5.8153                 5.7952                 5.7984
 IR Inten    --      7.7595                20.5363                29.7495

                    100                    101                    102
                      A                      A                      A
 Frequencies --   3048.7887              3051.3709              3071.8668
 Red. masses --      1.0530                 1.0501                 1.0928
 Frc consts  --      5.7670                 5.7604                 6.0759
 IR Inten    --     49.5330                35.9726                31.9614

                    103                    104                    105
                      A                      A                      A
 Frequencies --   3080.5446              3087.9519              3102.1565
 Red. masses --      1.0742                 1.1019                 1.1018
 Frc consts  --      6.0061                 6.1908                 6.2473
 IR Inten    --     44.4998                39.0896                22.8535

                    106                    107                    108
                      A                      A                      A
 Frequencies --   3104.3994              3108.2369              3114.7073
 Red. masses --      1.1021                 1.0944                 1.0972
 Frc consts  --      6.2577                 6.2293                 6.2716
 IR Inten    --     56.3251                15.0820                 3.2521

                    109                    110                    111
                      A                      A                      A
 Frequencies --   3114.8185              3123.4685              3124.8809
 Red. masses --      1.0983                 1.1016                 1.1039
 Frc consts  --      6.2785                 6.3324                 6.3512
 IR Inten    --     54.7554                48.0999                29.2869

                    112                    113                    114
                      A                      A                      A
 Frequencies --   3178.9027              3191.5964              3595.2473
 Red. masses --      1.0889                 1.0896                 1.0752
 Frc consts  --      6.4834                 6.5393                 8.1885
 IR Inten    --      7.0446                 3.4283                26.8546

 - Thermochemistry -
 -------------------
 Temperature   298.150 Kelvin.  Pressure   1.00000 Atm.
 Atom     1 has atomic number  6 and mass  12.00000

 Molecular mass:   250.17936 amu.
 Principal axes and moments of inertia in atomic units:
                           1         2         3
     Eigenvalues --  4211.834215637.480828402.08552
           X            0.99321  -0.11578   0.01118
           Y            0.11577   0.99328   0.00139
           Z           -0.01126  -0.00008   0.99994
 This molecule is an asymmetric top.
 Rotational symmetry number  1.
 Warning -- assumption of classical behavior for rotation
           may cause significant error
 Rotational temperatures (Kelvin)      0.02056     0.01536     0.01031
 Rotational constants (GHZ):           0.42849     0.32013     0.21480
 Zero-point vibrational energy     922277.0 (Joules/Mol)
                                  220.42948 (Kcal/Mol)
 Warning -- explicit consideration of  30 degrees of freedom as
           vibrations may cause significant error
 Vibrational temperatures:     38.87    47.11    55.89    67.14    69.87
          (Kelvin)            131.62   150.49   175.67   205.83   217.83
                              251.88   284.67   320.55   340.39   368.28
                              392.82   412.14   459.99   496.95   519.33
                              562.22   621.51   633.43   666.46   695.72
                              704.53   739.26   758.35   794.78   868.36
                              927.27   972.57  1041.16  1088.15  1128.39
                             1141.68  1184.55  1194.35  1219.27  1268.20
                             1351.65  1365.14  1408.94  1431.65  1439.63
                             1503.39  1524.91  1537.18  1540.06  1568.26
                             1589.11  1648.90  1654.59  1683.08  1696.93
                             1706.81  1736.43  1784.40  1805.43  1822.09
                             1849.53  1859.01  1916.01  1918.40  1939.02
                             1989.08  1997.02  2006.03  2018.20  2023.55
                             2035.28  2037.79  2046.62  2078.44  2088.66
                             2101.39  2130.45  2132.60  2154.79  2172.20
                             2173.50  2177.07  2178.55  2195.29  2204.74
                             2205.82  2216.82  2225.21  2239.21  2412.91
                             2554.29  3351.10  4274.74  4328.71  4343.26
                             4360.89  4372.92  4378.77  4379.99  4386.53
                             4390.24  4419.73  4432.22  4442.87  4463.31
                             4466.54  4472.06  4481.37  4481.53  4493.97
                             4496.01  4573.73  4592.00  5172.76

 Zero-point correction=                           0.351277 (Hartree/Particle)
 Thermal correction to Energy=                    0.370507
 Thermal correction to Enthalpy=                  0.371451
 Thermal correction to Gibbs Free Energy=         0.301952
 Sum of electronic and zero-point Energies=           -802.549560
 Sum of electronic and thermal Energies=              -802.530330
 Sum of electronic and thermal Enthalpies=            -802.529385
 Sum of electronic and thermal Free Energies=         -802.598884

                     E (Thermal)             CV                S
                      KCal/Mol        Cal/Mol-Kelvin    Cal/Mol-Kelvin
 Total                  232.496             70.998            146.273
 Electronic               0.000              0.000              0.000
 Translational            0.889              2.981             42.451
 Rotational               0.889              2.981             33.656
 Vibrational            230.719             65.036             70.166
 Vibration     1          0.593              1.984              6.037
 Vibration     2          0.594              1.983              5.656
 Vibration     3          0.594              1.981              5.317
 Vibration     4          0.595              1.979              4.954
 Vibration     5          0.595              1.978              4.875
 Vibration     6          0.602              1.955              3.628
 Vibration     7          0.605              1.946              3.367
 Vibration     8          0.610              1.931              3.067
 Vibration     9          0.616              1.910              2.763
 Vibration    10          0.619              1.901              2.655
 Vibration    11          0.627              1.873              2.380
 Vibration    12          0.637              1.843              2.153
 Vibration    13          0.648              1.806              1.936
 Vibration    14          0.655              1.785              1.828
 Vibration    15          0.666              1.753              1.689
 Vibration    16          0.676              1.723              1.577
 Vibration    17          0.684              1.699              1.495
 Vibration    18          0.706              1.636              1.312
 Vibration    19          0.724              1.585              1.187
 Vibration    20          0.735              1.553              1.118
 Vibration    21          0.758              1.490              0.997
 Vibration    22          0.793              1.401              0.852
 Vibration    23          0.800              1.382              0.826
 Vibration    24          0.821              1.332              0.757
 Vibration    25          0.840              1.287              0.701
 Vibration    26          0.846              1.273              0.684
 Vibration    27          0.869              1.219              0.624
 Vibration    28          0.882              1.190              0.594
 Vibration    29          0.908              1.134              0.539
 Vibration    30          0.962              1.024              0.444

                           ! Non-Optimized Parameters !
 Normal termination of Gaussian 16 at Fri Dec 11 21:52:18 2020.

 ----------------------------------------------------------------------
 # B3LYP/6-311++G(d,p) empiricaldispersion=gd3bj scf=xqc pop=npa geom=c
 heck
 ----------------------------------------------------------------------

 ---------------------------------------
 CID_108833673_JID_8916_Energie_neutraal
 ---------------------------------------
 Structure from the checkpoint file:  "JID_8916.chk"
 Charge =  0 Multiplicity = 1

 SCF Done:  E(RB3LYP) =  -803.127274058     A.U. after   17 cycles
 Normal termination of Gaussian 16 at Fri Dec 11 22:00:42 2020.

 ----------------------------------------------------------------------
 # B3LYP/6-311++G(d,p) empiricaldispersion=gd3bj scf=xqc pop=npa geom=c
 heck
 ----------------------------------------------------------------------

 -------------------------------------
 CID_108833673_JID_8916_Energie_kation
 -------------------------------------
 Structure from the checkpoint file:  "JID_8916.chk"
 Charge =  1 Multiplicity = 2

 SCF Done:  E(UB3LYP) =  -802.845656535     A.U. after   25 cycles
 Normal termination of Gaussian 16 at Fri Dec 11 22:18:33 2020.
 Gaussian 16:  ES64L-G16RevA.03 25-Dec-2016

 ----------------------------------------------------------------------
 # B3LYP/6-311++G(d,p) empiricaldispersion=gd3bj scf=xqc pop=npa geom=c
 heck
 ----------------------------------------------------------------------

 ------------------------------------
 CID_108833673_JID_8916_Energie_anion
 ------------------------------------
 Structure from the checkpoint file:  "JID_8916.chk"
 Charge = -1 Multiplicity = 2

                         Standard orientation:
 ---------------------------------------------------------------------
 Center     Atomic      Atomic             Coordinates (Angstroms)
 Number     Number       Type             X           Y           Z
 ---------------------------------------------------------------------
      1          6           0       -0.902872    3.832918   -0.010602
      2          6           0       -2.345601    3.339757   -0.150442
      3          6           0       -2.514580    2.151295   -1.111500
      4          6           0       -1.649142    0.928129   -0.796325
      5          7           0       -1.928018    0.406688    0.537894
      6          6           0       -1.868371   -0.898592    0.959649
      7          8           0       -2.352022   -1.250615    2.026973
      8          6           0       -1.210986   -1.869300    0.015037
      9          6           0        0.058535   -1.851952   -0.499226
     10          7           0        1.105771   -1.007453   -0.298296
     11          6           0        2.392542   -1.365163   -0.911561
     12          6           0        3.208859   -0.098107   -1.198036
     13          7           0        3.407859    0.743838   -0.022371
     14          6           0        2.115576    1.061369    0.576905
     15          6           0        1.247626   -0.165271    0.896752
     16          6           0        4.388926    0.223833    0.922626
     17          6           0       -2.021527   -2.983594   -0.348709
     18          7           0       -2.687429   -3.884114   -0.671436
     19          1           0       -0.264596    3.081398    0.466895
     20          1           0       -0.855254    4.739558    0.601627
     21          1           0       -0.467001    4.066879   -0.989615
     22          1           0       -2.739798    3.084860    0.843579
     23          1           0       -2.979871    4.159214   -0.510200
     24          1           0       -3.568322    1.846218   -1.133089
     25          1           0       -2.258753    2.476839   -2.128190
     26          1           0       -1.846632    0.140415   -1.528612
     27          1           0       -0.586586    1.187505   -0.893563
     28          1           0       -2.425127    1.004204    1.187187
     29          1           0        0.292801   -2.653329   -1.196121
     30          1           0        2.951495   -2.037532   -0.242068
     31          1           0        2.199524   -1.904787   -1.842665
     32          1           0        2.677755    0.494211   -1.954680
     33          1           0        4.184417   -0.375103   -1.611961
     34          1           0        1.568546    1.702279   -0.126515
     35          1           0        2.277025    1.638689    1.493510
     36          1           0        0.268557    0.163643    1.235923
     37          1           0        1.700322   -0.764667    1.701213
     38          1           0        4.124145   -0.737443    1.397016
     39          1           0        5.344867    0.088713    0.405748
     40          1           0        4.537458    0.958515    1.720866
 ---------------------------------------------------------------------

 SCF Done:  E(UB3LYP) =  -803.129290425     A.U. after   31 cycles

 The electronic state is 2-A.
 Alpha  occ. eigenvalues --  -18.98256 -14.25252 -14.23854 -14.21932 -14.18086
 Alpha  occ. eigenvalues --  -10.17234 -10.11950 -10.11683 -10.11528 -10.11063
 Alpha  occ. eigenvalues --  -10.10952 -10.10844 -10.09796 -10.09604 -10.09581
 Alpha  occ. eigenvalues --  -10.08747 -10.08290 -10.08229  -0.93583  -0.87732
 Alpha  occ. eigenvalues --   -0.83282  -0.82765  -0.78113  -0.71975  -0.69570
 Alpha  occ. eigenvalues --   -0.68516  -0.64634  -0.63842  -0.58923  -0.57412
 Alpha  occ. eigenvalues --   -0.56824  -0.53065  -0.50751  -0.49902  -0.46789
 Alpha  occ. eigenvalues --   -0.43086  -0.41923  -0.40570  -0.39178  -0.38968
 Alpha  occ. eigenvalues --   -0.38613  -0.38044  -0.36954  -0.36342  -0.35757
 Alpha  occ. eigenvalues --   -0.33973  -0.33433  -0.32050  -0.31272  -0.30871
 Alpha  occ. eigenvalues --   -0.30189  -0.30009  -0.29076  -0.28909  -0.27306
 Alpha  occ. eigenvalues --   -0.27005  -0.26463  -0.26051  -0.25916  -0.25547
 Alpha  occ. eigenvalues --   -0.25158  -0.24370  -0.21664  -0.21421  -0.16227
 Alpha  occ. eigenvalues --   -0.15815  -0.13265  -0.10914   0.03334
 Alpha virt. eigenvalues --    0.05118   0.05947   0.06727   0.07233   0.07681
 Alpha virt. eigenvalues --    0.08246   0.08519   0.09673   0.09774   0.10180
 Alpha virt. eigenvalues --    0.10471   0.10870   0.11218   0.11351   0.12029

  Beta  occ. eigenvalues --  -18.98206 -14.25227 -14.23834 -14.21931 -14.18030
  Beta  occ. eigenvalues --  -10.17180 -10.11944 -10.11660 -10.11238 -10.11046
  Beta  occ. eigenvalues --  -10.10927 -10.10824 -10.09754 -10.09598 -10.09573
  Beta  occ. eigenvalues --  -10.08732 -10.08266 -10.08202  -0.93480  -0.87611
  Beta  occ. eigenvalues --   -0.83217  -0.82706  -0.78022  -0.71943  -0.69316
  Beta  occ. eigenvalues --   -0.68463  -0.64590  -0.63770  -0.58748  -0.57371
  Beta  occ. eigenvalues --   -0.56762  -0.52860  -0.50644  -0.49846  -0.46659
  Beta  occ. eigenvalues --   -0.42980  -0.41806  -0.40529  -0.39131  -0.38901
  Beta  occ. eigenvalues --   -0.38569  -0.37989  -0.36900  -0.36243  -0.35657
  Beta  occ. eigenvalues --   -0.33890  -0.33335  -0.32014  -0.31232  -0.30803
  Beta  occ. eigenvalues --   -0.30142  -0.29937  -0.28995  -0.28752  -0.27152
  Beta  occ. eigenvalues --   -0.26944  -0.26354  -0.26015  -0.25882  -0.25505
  Beta  occ. eigenvalues --   -0.24856  -0.24264  -0.21460  -0.21024  -0.16156
  Beta  occ. eigenvalues --   -0.15624  -0.13121  -0.10520
  Beta virt. eigenvalues --    0.05291   0.06109   0.06696   0.07317   0.07682
  Beta virt. eigenvalues --    0.08007   0.08503   0.08893   0.09845   0.09976
  Beta virt. eigenvalues --    0.10428   0.10542   0.11048   0.11438   0.11623

 Mulliken charges and spin densities:
               1          2
     1  C   -0.055338  -0.517372
     2  C   -0.157215   0.030871
     3  C   -0.388774  -0.152681
     4  C   -0.168781   0.031548
     5  N   -0.114821   0.019137
     6  C   -0.609391   0.117913
     7  O   -0.280869   0.019288
     8  C    1.857770  -0.021721
     9  C   -0.678672   0.323927
    10  N    0.221071   0.052238
    11  C    0.630194  -0.621886
    12  C   -0.376734  -0.176365
    13  N    0.115821   0.096086
    14  C   -0.308045  -0.489200
    15  C   -0.520218   0.147168
    16  C    0.673739  -0.954946
    17  C   -1.400267   0.099152
    18  N   -0.263723   0.026345
    19  H    0.041983   0.090053
    20  H   -0.220909   0.367873
    21  H    0.044881   0.095399
    22  H    0.078414   0.038440
    23  H   -0.043413   0.209046
    24  H    0.166851   0.004708
    25  H    0.009009   0.152501
    26  H    0.243640  -0.003322
    27  H    0.338400  -0.267260
    28  H    0.296116   0.008132
    29  H    0.163221   0.030539
    30  H   -0.171917   0.373124
    31  H    0.062179   0.053202
    32  H    0.017931   0.120567
    33  H   -0.191451   0.384716
    34  H    0.421235  -0.183206
    35  H   -0.101768   0.280100
    36  H    0.197744   0.030956
    37  H   -0.071170   0.308809
    38  H   -0.098961   0.219773
    39  H   -0.233300   0.383163
    40  H   -0.124462   0.273186
 Sum of Mulliken charges =  -1.00000   1.00000

 Dipole moment (field-independent basis, Debye):
    X=              0.1758    Y=              6.0795    Z=             -3.3568  Tot=              6.9470
 Quadrupole moment (field-independent basis, Debye-Ang):
   XX=           -186.5698   YY=           -182.1985   ZZ=           -140.5256
   XY=            -19.7349   XZ=              0.4480   YZ=              1.1885

 Summary of Natural Population Analysis:

                                       Natural Population
                Natural  -----------------------------------------------
    Atom  No    Charge         Core      Valence    Rydberg      Total
 -----------------------------------------------------------------------
      C    1   -0.29030      0.99966     2.28497    0.00567     3.29030
      C    2   -0.19373      0.99964     2.18582    0.00827     3.19373
      C    3   -0.19034      0.99963     2.18382    0.00690     3.19034
      C    4   -0.09252      0.99961     2.08388    0.00903     3.09252
      N    5   -0.32584      0.99967     2.81697    0.00920     3.82584
      C    6    0.34685      0.99963     1.62936    0.02416     2.65315
      O    7   -0.31092      0.99988     3.30573    0.00531     4.31092
      C    8   -0.18406      0.99939     2.17494    0.00972     3.18406
      C    9    0.12217      0.99951     1.86677    0.01155     2.87783
      N   10   -0.23937      0.99966     2.72903    0.01068     3.73937
      C   11   -0.08943      0.99961     2.07966    0.01016     3.08943
      C   12   -0.08804      0.99961     2.07665    0.01179     3.08804
      N   13   -0.27788      0.99974     2.76465    0.01349     3.77788
      C   14   -0.08851      0.99961     2.07713    0.01177     3.08851
      C   15   -0.09898      0.99959     2.08963    0.00976     3.09898
      C   16   -0.17988      0.99964     2.17171    0.00854     3.17988
      C   17    0.15770      0.99963     1.82412    0.01855     2.84230
      N   18   -0.20388      0.99979     2.69337    0.01071     3.70388
      H   19    0.09938      0.00000     0.39938    0.00124     0.40062
      H   20    0.10097      0.00000     0.39818    0.00085     0.39903
      H   21    0.09624      0.00000     0.40284    0.00092     0.40376
      H   22    0.09100      0.00000     0.40784    0.00115     0.40900
      H   23    0.09743      0.00000     0.40159    0.00097     0.40257
      H   24    0.09870      0.00000     0.40028    0.00102     0.40130
      H   25    0.09844      0.00000     0.40063    0.00093     0.40156
      H   26    0.10598      0.00000     0.39304    0.00097     0.39402
      H   27    0.09008      0.00000     0.40732    0.00260     0.40992
      H   28    0.19152      0.00000     0.30609    0.00239     0.30848
      H   29    0.09329      0.00000     0.40540    0.00130     0.40671
      H   30    0.09405      0.00000     0.40405    0.00190     0.40595
      H   31    0.09908      0.00000     0.39984    0.00108     0.40092
      H   32    0.09366      0.00000     0.40500    0.00134     0.40634
      H   33    0.10014      0.00000     0.39878    0.00108     0.39986
      H   34    0.09351      0.00000     0.40466    0.00184     0.40649
      H   35    0.10022      0.00000     0.39872    0.00106     0.39978
      H   36    0.11115      0.00000     0.38693    0.00192     0.38885
      H   37    0.09585      0.00000     0.40271    0.00144     0.40415
      H   38    0.08354      0.00000     0.41467    0.00179     0.41646
      H   39    0.09655      0.00000     0.40221    0.00124     0.40345
      H   40    0.09617      0.00000     0.40277    0.00105     0.40383
 =======================================================================
   * Total *    0.00000     17.99349    49.78117    0.22534    68.00000

 Normal termination of Gaussian 16 at Fri Dec 11 22:40:34 2020.
