 Gaussian 16, Revision A.03,

 -----------------------------------------------------------
 # opt freq B3LYP/6-31G(d) empiricaldispersion=gd3bj scf=xqc
 -----------------------------------------------------------

 ------------------------------
 CID_61901717_JID_3020_neutraal
 ------------------------------
 Symbolic Z-matrix:
 Charge =  0 Multiplicity = 1

 SCF Done:  E(RB3LYP) =  -592.628391127     A.U. after   15 cycles
 SCF Done:  E(RB3LYP) =  -592.652252311     A.U. after   16 cycles
 SCF Done:  E(RB3LYP) =  -592.655495377     A.U. after   15 cycles
 SCF Done:  E(RB3LYP) =  -592.672365629     A.U. after   14 cycles
 SCF Done:  E(RB3LYP) =  -592.676045326     A.U. after   14 cycles
 SCF Done:  E(RB3LYP) =  -592.680190568     A.U. after   13 cycles
 SCF Done:  E(RB3LYP) =  -592.687886885     A.U. after   15 cycles
 SCF Done:  E(RB3LYP) =  -592.693770309     A.U. after   12 cycles
 SCF Done:  E(RB3LYP) =  -592.699119234     A.U. after   13 cycles
 SCF Done:  E(RB3LYP) =  -592.701456172     A.U. after   13 cycles
 SCF Done:  E(RB3LYP) =  -592.712106367     A.U. after   10 cycles
 SCF Done:  E(RB3LYP) =  -592.712107081     A.U. after    9 cycles
 SCF Done:  E(RB3LYP) =  -592.712107284     A.U. after   10 cycles
 SCF Done:  E(RB3LYP) =  -592.712107532     A.U. after    9 cycles
 SCF Done:  E(RB3LYP) =  -592.712107700     A.U. after    7 cycles
 SCF Done:  E(RB3LYP) =  -592.712107752     A.U. after    7 cycles
 Optimization completed.
    -- Stationary point found.
 Normal termination of Gaussian 16 at Wed Dec  9 22:42:25 2020.

 --------------------------------------------------------------------
 #N Geom=AllCheck Guess=TCheck SCRF=Check GenChk RB3LYP/6-31G(d) Freq
 --------------------------------------------------------------------

 Structure from the checkpoint file:  "JID_3020.chk"
 ------------------------------
 CID_61901717_JID_3020_neutraal
 ------------------------------
 Charge =  0 Multiplicity = 1

 SCF Done:  E(RB3LYP) =  -592.712107752     A.U. after    1 cycles

  Exact polarizability: 138.214  -5.806 106.047  -3.363   0.361  93.539
 Approx polarizability: 170.827 -15.850 164.845 -10.890  -0.914 137.965

                      1                      2                      3
                      A                      A                      A
 Frequencies --     25.2492                40.6467                57.0665
 Red. masses --      4.3017                 3.2712                 3.7588
 Frc consts  --      0.0016                 0.0032                 0.0072
 IR Inten    --      1.1115                 1.7836                 1.3029

                      4                      5                      6
                      A                      A                      A
 Frequencies --     79.0863                95.6154               110.0310
 Red. masses --      3.1544                 3.8933                 2.9205
 Frc consts  --      0.0116                 0.0210                 0.0208
 IR Inten    --      0.5722                 5.7168                 2.5187

                      7                      8                      9
                      A                      A                      A
 Frequencies --    131.0263               181.3621               197.9614
 Red. masses --      5.6999                 4.1953                 1.8468
 Frc consts  --      0.0577                 0.0813                 0.0426
 IR Inten    --      6.6022                10.0805                 0.2286

                     10                     11                     12
                      A                      A                      A
 Frequencies --    233.5516               248.0690               252.7787
 Red. masses --      2.3046                 1.5553                 1.2210
 Frc consts  --      0.0741                 0.0564                 0.0460
 IR Inten    --      5.5682                 6.7143                 3.1591

                     13                     14                     15
                      A                      A                      A
 Frequencies --    272.5849               287.3932               314.3726
 Red. masses --      1.3769                 2.0502                 2.9987
 Frc consts  --      0.0603                 0.0998                 0.1746
 IR Inten    --      1.3004                 2.5254                 5.4674

                     16                     17                     18
                      A                      A                      A
 Frequencies --    347.4834               368.6812               396.7308
 Red. masses --      3.7283                 3.4794                 1.8884
 Frc consts  --      0.2652                 0.2786                 0.1751
 IR Inten    --     15.9378                 3.9711                15.7117

                     19                     20                     21
                      A                      A                      A
 Frequencies --    429.8554               440.9341               471.8225
 Red. masses --      1.3268                 2.8765                 3.1399
 Frc consts  --      0.1444                 0.3295                 0.4118
 IR Inten    --     58.2812                 2.7694                 5.9786

                     22                     23                     24
                      A                      A                      A
 Frequencies --    529.5620               597.2019               702.7834
 Red. masses --      2.8330                 6.8497                 2.4069
 Frc consts  --      0.4681                 1.4393                 0.7004
 IR Inten    --      3.1924                 6.6591                 3.7178

                     25                     26                     27
                      A                      A                      A
 Frequencies --    760.0724               788.9525               797.6228
 Red. masses --      3.1427                 1.4442                 1.4908
 Frc consts  --      1.0697                 0.5296                 0.5588
 IR Inten    --      2.4287                 4.0849                 2.4494

                     28                     29                     30
                      A                      A                      A
 Frequencies --    816.2958               881.9539               896.8388
 Red. masses --      2.0842                 5.0055                 2.4211
 Frc consts  --      0.8182                 2.2940                 1.1473
 IR Inten    --     15.1810                12.9944                25.4988

                     31                     32                     33
                      A                      A                      A
 Frequencies --    909.1404               930.7874               993.2665
 Red. masses --      2.1714                 2.1280                 2.4585
 Frc consts  --      1.0574                 1.0862                 1.4290
 IR Inten    --      1.0274                 2.6800                14.9497

                     34                     35                     36
                      A                      A                      A
 Frequencies --   1016.2541              1067.1726              1072.6350
 Red. masses --      2.3249                 2.4593                 1.9319
 Frc consts  --      1.4147                 1.6502                 1.3096
 IR Inten    --      8.8534                 6.9544                 5.5312

                     37                     38                     39
                      A                      A                      A
 Frequencies --   1109.6652              1116.4885              1131.6647
 Red. masses --      2.1879                 1.9526                 2.0174
 Frc consts  --      1.5873                 1.4341                 1.5222
 IR Inten    --     12.0830                 7.9022                 8.0421

                     40                     41                     42
                      A                      A                      A
 Frequencies --   1153.0359              1184.7504              1200.8803
 Red. masses --      1.8439                 1.8228                 2.2209
 Frc consts  --      1.4443                 1.5075                 1.8870
 IR Inten    --     47.4775                 2.7728                30.9671

                     43                     44                     45
                      A                      A                      A
 Frequencies --   1235.8297              1261.1391              1328.1251
 Red. masses --      1.9629                 2.1589                 1.1543
 Frc consts  --      1.7663                 2.0230                 1.1996
 IR Inten    --    144.4775                31.0039                 7.3422

                     46                     47                     48
                      A                      A                      A
 Frequencies --   1343.5410              1376.6430              1391.9289
 Red. masses --      1.1564                 1.4537                 1.2296
 Frc consts  --      1.2299                 1.6231                 1.4036
 IR Inten    --     23.0797                26.8297                 5.9821

                     49                     50                     51
                      A                      A                      A
 Frequencies --   1406.8350              1409.3487              1414.8506
 Red. masses --      1.3772                 1.2818                 1.2766
 Frc consts  --      1.6060                 1.5000                 1.5057
 IR Inten    --      5.9528                 9.0717                13.4340

                     52                     53                     54
                      A                      A                      A
 Frequencies --   1429.7633              1437.2180              1440.0595
 Red. masses --      1.3199                 1.2735                 1.3297
 Frc consts  --      1.5898                 1.5499                 1.6247
 IR Inten    --      2.2559                 6.6376                21.8303

                     55                     56                     57
                      A                      A                      A
 Frequencies --   1442.4701              1491.6454              1503.3845
 Red. masses --      1.2394                 1.0730                 1.0884
 Frc consts  --      1.5194                 1.4066                 1.4494
 IR Inten    --     13.6532                25.1866                13.1382

                     58                     59                     60
                      A                      A                      A
 Frequencies --   1510.4741              1515.8815              1520.9419
 Red. masses --      1.0713                 1.0470                 1.0515
 Frc consts  --      1.4401                 1.4175                 1.4332
 IR Inten    --      3.4742                11.7340                13.8982

                     61                     62                     63
                      A                      A                      A
 Frequencies --   1527.1150              1532.9362              1534.9472
 Red. masses --      1.0472                 1.0579                 1.0575
 Frc consts  --      1.4388                 1.4647                 1.4680
 IR Inten    --      1.7790                 3.0897                 4.5324

                     64                     65                     66
                      A                      A                      A
 Frequencies --   1541.0521              1566.7284              1760.9323
 Red. masses --      1.0591                 2.0106                 8.3110
 Frc consts  --      1.4820                 2.9077                15.1840
 IR Inten    --      3.3742               221.9195               177.4560

                     67                     68                     69
                      A                      A                      A
 Frequencies --   2351.0977              3025.9538              3052.9370
 Red. masses --     12.5388                 1.0653                 1.0743
 Frc consts  --     40.8363                 5.7471                 5.8993
 IR Inten    --      3.1685                42.3551                30.3499

                     70                     71                     72
                      A                      A                      A
 Frequencies --   3054.2168              3055.2972              3056.1290
 Red. masses --      1.0363                 1.0609                 1.0511
 Frc consts  --      5.6954                 5.8346                 5.7843
 IR Inten    --     24.5487                15.6921                25.0085

                     73                     74                     75
                      A                      A                      A
 Frequencies --   3064.1973              3074.8005              3076.2098
 Red. masses --      1.0430                 1.0986                 1.0646
 Frc consts  --      5.7702                 6.1197                 5.9357
 IR Inten    --     15.3454                28.3801                34.2377

                     76                     77                     78
                      A                      A                      A
 Frequencies --   3115.6833              3115.8669              3117.9413
 Red. masses --      1.1013                 1.1022                 1.0984
 Frc consts  --      6.2991                 6.3050                 6.2912
 IR Inten    --     56.0763                19.1374                10.0376

                     79                     80                     81
                      A                      A                      A
 Frequencies --   3133.8138              3136.6869              3147.7800
 Red. masses --      1.0996                 1.0947                 1.1044
 Frc consts  --      6.3623                 6.3460                 6.4476
 IR Inten    --     19.4330                22.0568                25.6394

                     82                     83                     84
                      A                      A                      A
 Frequencies --   3155.3973              3165.5547              3634.4559
 Red. masses --      1.1005                 1.1034                 1.0778
 Frc consts  --      6.4558                 6.5145                 8.3879
 IR Inten    --     12.2646                10.3208                18.5223

 - Thermochemistry -
 -------------------
 Temperature   298.150 Kelvin.  Pressure   1.00000 Atm.
 Atom     1 has atomic number  6 and mass  12.00000

 Molecular mass:   183.13716 amu.
 Principal axes and moments of inertia in atomic units:
                           1         2         3
     Eigenvalues --  1202.335574386.867254800.58326
           X            0.99978   0.02110   0.00101
           Y           -0.02110   0.99978  -0.00221
           Z           -0.00106   0.00219   1.00000
 This molecule is an asymmetric top.
 Rotational symmetry number  1.
 Warning -- assumption of classical behavior for rotation
           may cause significant error
 Rotational temperatures (Kelvin)      0.07204     0.01974     0.01804
 Rotational constants (GHZ):           1.50103     0.41140     0.37594
 Zero-point vibrational energy     688433.8 (Joules/Mol)
                                  164.53962 (Kcal/Mol)
 Warning -- explicit consideration of  23 degrees of freedom as
           vibrations may cause significant error
 Vibrational temperatures:     36.33    58.48    82.11   113.79   137.57
          (Kelvin)            158.31   188.52   260.94   284.82   336.03
                              356.92   363.69   392.19   413.49   452.31
                              499.95   530.45   570.81   618.47   634.41
                              678.85   761.92   859.24  1011.15  1093.57
                             1135.13  1147.60  1174.47  1268.93  1290.35
                             1308.05  1339.20  1429.09  1462.16  1535.42
                             1543.28  1596.56  1606.38  1628.21  1658.96
                             1704.59  1727.80  1778.08  1814.50  1910.88
                             1933.06  1980.68  2002.68  2024.12  2027.74
                             2035.65  2057.11  2067.84  2071.92  2075.39
                             2146.14  2163.03  2173.24  2181.02  2188.30
                             2197.18  2205.55  2208.45  2217.23  2254.17
                             2533.59  3382.71  4353.67  4392.50  4394.34
                             4395.89  4397.09  4408.70  4423.95  4425.98
                             4482.77  4483.04  4486.02  4508.86  4512.99
                             4528.95  4539.91  4554.53  5229.17

 Zero-point correction=                           0.262211 (Hartree/Particle)
 Thermal correction to Energy=                    0.277687
 Thermal correction to Enthalpy=                  0.278631
 Thermal correction to Gibbs Free Energy=         0.218604
 Sum of electronic and zero-point Energies=           -592.449897
 Sum of electronic and thermal Energies=              -592.434421
 Sum of electronic and thermal Enthalpies=            -592.433477
 Sum of electronic and thermal Free Energies=         -592.493504

                     E (Thermal)             CV                S
                      KCal/Mol        Cal/Mol-Kelvin    Cal/Mol-Kelvin
 Total                  174.251             55.198            126.337
 Electronic               0.000              0.000              0.000
 Translational            0.889              2.981             41.522
 Rotational               0.889              2.981             31.605
 Vibrational            172.473             49.237             53.211
 Vibration     1          0.593              1.985              6.172
 Vibration     2          0.594              1.981              5.227
 Vibration     3          0.596              1.975              4.556
 Vibration     4          0.600              1.963              3.913
 Vibration     5          0.603              1.952              3.542
 Vibration     6          0.606              1.941              3.268
 Vibration     7          0.612              1.922              2.931
 Vibration     8          0.630              1.865              2.314
 Vibration     9          0.637              1.843              2.152
 Vibration    10          0.654              1.790              1.851
 Vibration    11          0.662              1.766              1.744
 Vibration    12          0.664              1.758              1.711
 Vibration    13          0.676              1.724              1.580
 Vibration    14          0.685              1.697              1.489
 Vibration    15          0.702              1.646              1.339
 Vibration    16          0.725              1.580              1.178
 Vibration    17          0.741              1.537              1.085
 Vibration    18          0.763              1.477              0.975
 Vibration    19          0.791              1.405              0.859
 Vibration    20          0.801              1.381              0.824
 Vibration    21          0.829              1.313              0.732
 Vibration    22          0.885              1.185              0.588
 Vibration    23          0.955              1.038              0.454

                           ! Non-Optimized Parameters !
 Normal termination of Gaussian 16 at Wed Dec  9 22:49:51 2020.

 ----------------------------------------------------------------------
 # B3LYP/6-311++G(d,p) empiricaldispersion=gd3bj scf=xqc pop=npa geom=c
 heck
 ----------------------------------------------------------------------

 --------------------------------------
 CID_61901717_JID_3020_Energie_neutraal
 --------------------------------------
 Structure from the checkpoint file:  "JID_3020.chk"
 Charge =  0 Multiplicity = 1

 SCF Done:  E(RB3LYP) =  -592.885374579     A.U. after   15 cycles
 Normal termination of Gaussian 16 at Wed Dec  9 22:52:53 2020.

 ----------------------------------------------------------------------
 # B3LYP/6-311++G(d,p) empiricaldispersion=gd3bj scf=xqc pop=npa geom=c
 heck
 ----------------------------------------------------------------------

 ------------------------------------
 CID_61901717_JID_3020_Energie_kation
 ------------------------------------
 Structure from the checkpoint file:  "JID_3020.chk"
 Charge =  1 Multiplicity = 2

 SCF Done:  E(UB3LYP) =  -592.588122613     A.U. after   21 cycles
 Normal termination of Gaussian 16 at Wed Dec  9 22:58:19 2020.
 Gaussian 16:  ES64L-G16RevA.03 25-Dec-2016

 ----------------------------------------------------------------------
 # B3LYP/6-311++G(d,p) empiricaldispersion=gd3bj scf=xqc pop=npa geom=c
 heck
 ----------------------------------------------------------------------

 -----------------------------------
 CID_61901717_JID_3020_Energie_anion
 -----------------------------------
 Structure from the checkpoint file:  "JID_3020.chk"
 Charge = -1 Multiplicity = 2

                         Standard orientation:
 ---------------------------------------------------------------------
 Center     Atomic      Atomic             Coordinates (Angstroms)
 Number     Number       Type             X           Y           Z
 ---------------------------------------------------------------------
      1          6           0        4.475746    0.259218    0.478317
      2          6           0        3.602790   -0.344644   -0.622823
      3          7           0        2.280467   -0.735833   -0.144902
      4          6           0        1.262458    0.158575   -0.042101
      5          8           0        1.378639    1.333514   -0.390290
      6          6           0       -0.063442   -0.389028    0.509234
      7          6           0       -0.489946    0.445272    1.726446
      8          7           0       -1.012956   -0.455438   -0.608448
      9          6           0       -1.896023   -1.617890   -0.655662
     10          6           0       -2.879823   -1.811973    0.508183
     11          6           0       -1.542958    0.798841   -1.101510
     12          6           0       -2.678977    1.377914   -0.337590
     13          7           0       -3.572741    1.804121    0.269171
     14          1           0        4.633323   -0.453748    1.295594
     15          1           0        3.995393    1.154088    0.884314
     16          1           0        5.455640    0.543623    0.078729
     17          1           0        3.449783    0.385051   -1.421770
     18          1           0        4.076083   -1.230261   -1.059509
     19          1           0        2.149430   -1.669097    0.216367
     20          1           0        0.083227   -1.427676    0.828750
     21          1           0       -0.554790    1.503543    1.462420
     22          1           0       -1.459171    0.120956    2.111418
     23          1           0        0.255778    0.348490    2.524180
     24          1           0       -2.453342   -1.552632   -1.598177
     25          1           0       -1.259215   -2.509607   -0.738175
     26          1           0       -3.548218   -0.955160    0.622229
     27          1           0       -3.491715   -2.703933    0.329187
     28          1           0       -2.350373   -1.960684    1.455609
     29          1           0       -0.730366    1.531304   -1.119258
     30          1           0       -1.882923    0.659979   -2.135291
 ---------------------------------------------------------------------

 SCF Done:  E(UB3LYP) =  -592.879936269     A.U. after   27 cycles

 The electronic state is 2-A.
 Alpha  occ. eigenvalues --  -18.98796 -14.23330 -14.22389 -14.22271 -10.16826
 Alpha  occ. eigenvalues --  -10.14380 -10.12020 -10.11589 -10.10474 -10.10275
 Alpha  occ. eigenvalues --  -10.06578 -10.06421 -10.06218  -0.93929  -0.84821
 Alpha  occ. eigenvalues --   -0.82065  -0.81481  -0.68706  -0.67335  -0.65094
 Alpha  occ. eigenvalues --   -0.61332  -0.56079  -0.53359  -0.49806  -0.47847
 Alpha  occ. eigenvalues --   -0.44713  -0.41064  -0.40678  -0.38317  -0.36386
 Alpha  occ. eigenvalues --   -0.34190  -0.33954  -0.33276  -0.32701  -0.31883
 Alpha  occ. eigenvalues --   -0.31219  -0.30380  -0.29758  -0.28276  -0.27852
 Alpha  occ. eigenvalues --   -0.27167  -0.26791  -0.26292  -0.25575  -0.24928
 Alpha  occ. eigenvalues --   -0.23747  -0.23534  -0.16756  -0.15817  -0.12464
 Alpha  occ. eigenvalues --    0.04153
 Alpha virt. eigenvalues --    0.06709   0.07514   0.08136   0.08486   0.09239
 Alpha virt. eigenvalues --    0.10048   0.10432   0.10577   0.11065   0.11651
 Alpha virt. eigenvalues --    0.11764   0.12057   0.12536   0.12940   0.13221

  Beta  occ. eigenvalues --  -18.98786 -14.23277 -14.22392 -14.22269 -10.16825
  Beta  occ. eigenvalues --  -10.14365 -10.12020 -10.11561 -10.10445 -10.10250
  Beta  occ. eigenvalues --  -10.06567 -10.06402 -10.06190  -0.93900  -0.84806
  Beta  occ. eigenvalues --   -0.81984  -0.81472  -0.68666  -0.67299  -0.65041
  Beta  occ. eigenvalues --   -0.61306  -0.56030  -0.53296  -0.49737  -0.47719
  Beta  occ. eigenvalues --   -0.44679  -0.41026  -0.40632  -0.38253  -0.36358
  Beta  occ. eigenvalues --   -0.34157  -0.33922  -0.33240  -0.32667  -0.31851
  Beta  occ. eigenvalues --   -0.31179  -0.30356  -0.29719  -0.28269  -0.27811
  Beta  occ. eigenvalues --   -0.27135  -0.26742  -0.26257  -0.25547  -0.24890
  Beta  occ. eigenvalues --   -0.23733  -0.23518  -0.16734  -0.15775  -0.12451
  Beta virt. eigenvalues --    0.06751   0.07318   0.07998   0.08659   0.09223
  Beta virt. eigenvalues --    0.09466   0.10231   0.10697   0.10911   0.11292
  Beta virt. eigenvalues --    0.11703   0.11871   0.12338   0.12758   0.13066

 Mulliken charges and spin densities:
               1          2
     1  C    0.344126  -0.734964
     2  C    0.298679  -0.541006
     3  N    0.007790  -0.014862
     4  C   -0.779468   0.568907
     5  O   -0.318254  -0.035917
     6  C    0.726992  -0.931024
     7  C    0.228133  -0.798124
     8  N    0.175285   0.126867
     9  C   -0.066415  -0.121366
    10  C    0.268568  -0.744235
    11  C    0.276223  -0.570667
    12  C   -0.129073   0.207822
    13  N   -0.316262  -0.002996
    14  H   -0.170697   0.312294
    15  H   -0.023215   0.189151
    16  H   -0.060227   0.181709
    17  H    0.142766   0.018040
    18  H   -0.710882   0.883311
    19  H   -0.347931   0.661951
    20  H   -0.552491   0.751348
    21  H    0.163307   0.010063
    22  H    0.205226  -0.057749
    23  H   -0.052842   0.197486
    24  H   -0.062171   0.181154
    25  H   -0.421148   0.609521
    26  H    0.120802   0.024287
    27  H   -0.145717   0.279120
    28  H   -0.090329   0.237755
    29  H    0.200829   0.004098
    30  H    0.088394   0.108026
 Sum of Mulliken charges =  -1.00000   1.00000

 Dipole moment (field-independent basis, Debye):
    X=             -3.2576    Y=              4.9877    Z=             -1.5609  Tot=              6.1584
 Quadrupole moment (field-independent basis, Debye-Ang):
   XX=           -153.8289   YY=           -134.4259   ZZ=           -104.9807
   XY=             16.3042   XZ=              2.1284   YZ=              0.5899

 Summary of Natural Population Analysis:

                                       Natural Population
                Natural  -----------------------------------------------
    Atom  No    Charge         Core      Valence    Rydberg      Total
 -----------------------------------------------------------------------
      C    1   -0.28924      0.99966     2.28461    0.00497     3.28924
      C    2   -0.09192      0.99963     2.08017    0.01213     3.09192
      N    3   -0.31088      0.99966     2.79929    0.01193     3.81088
      C    4    0.34462      0.99964     1.63166    0.02408     2.65538
      O    5   -0.34348      0.99988     3.33830    0.00531     4.34348
      C    6   -0.04007      0.99954     2.02484    0.01568     3.04007
      C    7   -0.29640      0.99964     2.29097    0.00578     3.29640
      N    8   -0.27145      0.99971     2.75815    0.01359     3.77145
      C    9   -0.08077      0.99962     2.06966    0.01150     3.08077
      C   10   -0.29993      0.99966     2.29510    0.00517     3.29993
      C   11   -0.14627      0.99951     2.13693    0.00983     3.14627
      C   12    0.15036      0.99965     1.83236    0.01763     2.84964
      N   13   -0.19276      0.99979     2.68215    0.01081     3.69276
      H   14    0.10036      0.00000     0.39827    0.00137     0.39964
      H   15    0.10216      0.00000     0.39685    0.00099     0.39784
      H   16    0.09637      0.00000     0.40282    0.00080     0.40363
      H   17    0.10129      0.00000     0.39741    0.00130     0.39871
      H   18    0.09857      0.00000     0.39924    0.00219     0.40143
      H   19    0.20723      0.00000     0.27242    0.02035     0.29277
      H   20    0.10841      0.00000     0.38772    0.00386     0.39159
      H   21    0.10516      0.00000     0.39383    0.00100     0.39484
      H   22    0.10317      0.00000     0.39595    0.00088     0.39683
      H   23    0.10464      0.00000     0.39455    0.00081     0.39536
      H   24    0.09067      0.00000     0.40812    0.00121     0.40933
      H   25    0.10078      0.00000     0.39719    0.00203     0.39922
      H   26    0.10216      0.00000     0.39684    0.00101     0.39784
      H   27    0.09970      0.00000     0.39937    0.00093     0.40030
      H   28    0.09900      0.00000     0.39987    0.00113     0.40100
      H   29    0.13619      0.00000     0.36239    0.00141     0.36381
      H   30    0.11233      0.00000     0.38653    0.00114     0.38767
 =======================================================================
   * Total *   -0.00000     12.99559    36.81357    0.19084    50.00000

 Normal termination of Gaussian 16 at Wed Dec  9 23:05:14 2020.
