 Gaussian 16, Revision A.03,

 -----------------------------------------------------------
 # opt freq B3LYP/6-31G(d) empiricaldispersion=gd3bj scf=xqc
 -----------------------------------------------------------

 ------------------------------
 CID_46218307_JID_1910_neutraal
 ------------------------------
 Symbolic Z-matrix:
 Charge =  0 Multiplicity = 1

 SCF Done:  E(RB3LYP) =  -457.199651777     A.U. after   15 cycles
 SCF Done:  E(RB3LYP) =  -457.202158279     A.U. after   13 cycles
 SCF Done:  E(RB3LYP) =  -457.202356857     A.U. after   12 cycles
 SCF Done:  E(RB3LYP) =  -457.202324997     A.U. after   13 cycles
 SCF Done:  E(RB3LYP) =  -457.202475652     A.U. after   12 cycles
 SCF Done:  E(RB3LYP) =  -457.202447474     A.U. after   11 cycles
 SCF Done:  E(RB3LYP) =  -457.202611218     A.U. after   13 cycles
 SCF Done:  E(RB3LYP) =  -457.202825343     A.U. after   15 cycles
 SCF Done:  E(RB3LYP) =  -457.203022937     A.U. after   15 cycles
 SCF Done:  E(RB3LYP) =  -457.203183565     A.U. after   12 cycles
 SCF Done:  E(RB3LYP) =  -457.203340604     A.U. after   12 cycles
 SCF Done:  E(RB3LYP) =  -457.203356703     A.U. after   12 cycles
 SCF Done:  E(RB3LYP) =  -457.203359968     A.U. after    9 cycles
 SCF Done:  E(RB3LYP) =  -457.203360764     A.U. after    9 cycles
 SCF Done:  E(RB3LYP) =  -457.203360836     A.U. after    8 cycles
 Optimization completed.
    -- Stationary point found.
 Normal termination of Gaussian 16 at Tue Dec  8 21:37:14 2020.

 --------------------------------------------------------------------
 #N Geom=AllCheck Guess=TCheck SCRF=Check GenChk RB3LYP/6-31G(d) Freq
 --------------------------------------------------------------------

 Structure from the checkpoint file:  "JID_1910.chk"
 ------------------------------
 CID_46218307_JID_1910_neutraal
 ------------------------------
 Charge =  0 Multiplicity = 1

 SCF Done:  E(RB3LYP) =  -457.203360836     A.U. after    1 cycles

  Exact polarizability: 194.867  -8.372  87.754   0.006  -0.001  52.556
 Approx polarizability: 287.703 -14.981 150.201   0.015  -0.003  76.777

                      1                      2                      3
                      A                      A                      A
 Frequencies --     23.5942                62.6460                73.8109
 Red. masses --      3.3987                 4.8758                 3.6819
 Frc consts  --      0.0011                 0.0113                 0.0118
 IR Inten    --      0.0401                 0.9789                 1.1914

                      4                      5                      6
                      A                      A                      A
 Frequencies --    173.4083               174.2214               307.7996
 Red. masses --      4.7135                 3.4678                 3.8237
 Frc consts  --      0.0835                 0.0620                 0.2134
 IR Inten    --      0.0482                 0.0107                 0.1920

                      7                      8                      9
                      A                      A                      A
 Frequencies --    376.2596               421.4473               488.3506
 Red. masses --      6.2473                 5.0977                 5.1883
 Frc consts  --      0.5211                 0.5335                 0.7290
 IR Inten    --      1.0914                14.4307                 1.7286

                     10                     11                     12
                      A                      A                      A
 Frequencies --    510.8757               574.9439               575.8456
 Red. masses --      4.3090                 5.7875                 5.4596
 Frc consts  --      0.6626                 1.1272                 1.0666
 IR Inten    --      2.3323                 0.4673                 1.7348

                     13                     14                     15
                      A                      A                      A
 Frequencies --    637.7050               749.2107               774.1223
 Red. masses --      9.2178                 3.1669                 2.9463
 Frc consts  --      2.2086                 1.0473                 1.0403
 IR Inten    --      0.2471                 1.4718                 0.9651

                     16                     17                     18
                      A                      A                      A
 Frequencies --    805.6730               826.5287               862.4942
 Red. masses --      1.1976                 1.6833                 1.4582
 Frc consts  --      0.4580                 0.6775                 0.6391
 IR Inten    --      1.0466                 7.1841                15.9222

                     19                     20                     21
                      A                      A                      A
 Frequencies --    870.5681               894.2166               953.3433
 Red. masses --      3.6541                 2.4284                 1.3815
 Frc consts  --      1.6317                 1.1441                 0.7398
 IR Inten    --     20.1854                 0.0132                 0.5245

                     22                     23                     24
                      A                      A                      A
 Frequencies --    979.4364               995.9880              1030.2678
 Red. masses --      1.4324                 3.1160                 5.4657
 Frc consts  --      0.8096                 1.8212                 3.4182
 IR Inten    --      0.0796                79.4537                26.4937

                     25                     26                     27
                      A                      A                      A
 Frequencies --   1071.6378              1088.1534              1088.8225
 Red. masses --      1.2537                 2.3953                 1.2855
 Frc consts  --      0.8483                 1.6711                 0.8979
 IR Inten    --     19.6077                10.3554                 5.9263

                     28                     29                     30
                      A                      A                      A
 Frequencies --   1121.4002              1149.1092              1201.7645
 Red. masses --      1.1281                 1.6836                 2.1495
 Frc consts  --      0.8358                 1.3099                 1.8290
 IR Inten    --      1.3881                 4.4968                19.8206

                     31                     32                     33
                      A                      A                      A
 Frequencies --   1215.1138              1223.3839              1246.7973
 Red. masses --      1.3754                 2.3373                 6.0086
 Frc consts  --      1.1965                 2.0611                 5.5032
 IR Inten    --      0.5166                15.5023                 9.0226

                     34                     35                     36
                      A                      A                      A
 Frequencies --   1321.4950              1329.8949              1411.4653
 Red. masses --      1.6287                 1.7797                 1.7648
 Frc consts  --      1.6758                 1.8545                 2.0715
 IR Inten    --     11.9399                 0.0833                 0.7778

                     37                     38                     39
                      A                      A                      A
 Frequencies --   1444.0601              1492.0286              1515.1939
 Red. masses --      2.2499                 1.0874                 2.2753
 Frc consts  --      2.7643                 1.4262                 3.0777
 IR Inten    --     41.5294                 1.8007                66.1411

                     40                     41                     42
                      A                      A                      A
 Frequencies --   1527.3698              1578.3225              1620.5366
 Red. masses --      1.3599                 6.6571                 5.0611
 Frc consts  --      1.8692                 9.7707                 7.8310
 IR Inten    --      0.3870                23.3676                20.3963

                     43                     44                     45
                      A                      A                      A
 Frequencies --   2342.4016              3159.1980              3160.5976
 Red. masses --     11.9053                 1.0505                 1.0705
 Frc consts  --     38.4869                 6.1774                 6.3006
 IR Inten    --    199.0824                15.7062                 5.0948

                     46                     47                     48
                      A                      A                      A
 Frequencies --   3165.1641              3174.5514              3190.1227
 Red. masses --      1.0760                 1.0879                 1.0907
 Frc consts  --      6.3514                 6.4598                 6.5399
 IR Inten    --     17.8369                 9.9852                33.7074

                     49                     50                     51
                      A                      A                      A
 Frequencies --   3196.7594              3241.0266              3254.8483
 Red. masses --      1.0973                 1.1206                 1.1171
 Frc consts  --      6.6066                 6.9351                 6.9727
 IR Inten    --     26.1762                 0.1233                12.3394

 - Thermochemistry -
 -------------------
 Temperature   298.150 Kelvin.  Pressure   1.00000 Atm.
 Atom     1 has atomic number  6 and mass  12.00000

 Molecular mass:   144.06875 amu.
 Principal axes and moments of inertia in atomic units:
                           1         2         3
     Eigenvalues --   427.377904045.087624330.33025
           X            1.00000  -0.00283  -0.00000
           Y            0.00283   1.00000  -0.00000
           Z            0.00000   0.00000   1.00000
 This molecule is an asymmetric top.
 Rotational symmetry number  1.
 Rotational temperatures (Kelvin)      0.20266     0.02141     0.02000
 Rotational constants (GHZ):           4.22282     0.44616     0.41677
 Zero-point vibrational energy     392817.6 (Joules/Mol)
                                   93.88566 (Kcal/Mol)
 Warning -- explicit consideration of  12 degrees of freedom as
           vibrations may cause significant error
 Vibrational temperatures:     33.95    90.13   106.20   249.50   250.67
          (Kelvin)            442.85   541.35   606.37   702.63   735.04
                              827.22   828.51   917.52  1077.95  1113.79
                             1159.18  1189.19  1240.94  1252.55  1286.58
                             1371.65  1409.19  1433.00  1482.33  1541.85
                             1565.61  1566.57  1613.44  1653.31  1729.07
                             1748.28  1760.18  1793.86  1901.34  1913.42
                             2030.78  2077.68  2146.70  2180.03  2197.54
                             2270.85  2331.59  3370.19  4545.38  4547.40
                             4553.97  4567.47  4589.88  4599.42  4663.11
                             4683.00

 Zero-point correction=                           0.149616 (Hartree/Particle)
 Thermal correction to Energy=                    0.159011
 Thermal correction to Enthalpy=                  0.159955
 Thermal correction to Gibbs Free Energy=         0.112896
 Sum of electronic and zero-point Energies=           -457.053745
 Sum of electronic and thermal Energies=              -457.044350
 Sum of electronic and thermal Enthalpies=            -457.043406
 Sum of electronic and thermal Free Energies=         -457.090465

                     E (Thermal)             CV                S
                      KCal/Mol        Cal/Mol-Kelvin    Cal/Mol-Kelvin
 Total                   99.781             34.648             99.044
 Electronic               0.000              0.000              0.000
 Translational            0.889              2.981             40.806
 Rotational               0.889              2.981             30.394
 Vibrational             98.003             28.686             27.844
 Vibration     1          0.593              1.985              6.306
 Vibration     2          0.597              1.972              4.372
 Vibration     3          0.599              1.966              4.049
 Vibration     4          0.627              1.875              2.398
 Vibration     5          0.627              1.874              2.389
 Vibration     6          0.698              1.659              1.374
 Vibration     7          0.747              1.521              1.054
 Vibration     8          0.784              1.424              0.887
 Vibration     9          0.844              1.276              0.688
 Vibration    10          0.866              1.226              0.631
 Vibration    11          0.931              1.085              0.495
 Vibration    12          0.932              1.084              0.493

 Optimization completed.
    -- Stationary point found.
 Normal termination of Gaussian 16 at Tue Dec  8 21:41:24 2020.

 ----------------------------------------------------------------------
 # B3LYP/6-311++G(d,p) empiricaldispersion=gd3bj scf=xqc pop=npa geom=c
 heck
 ----------------------------------------------------------------------

 --------------------------------------
 CID_46218307_JID_1910_Energie_neutraal
 --------------------------------------
 Structure from the checkpoint file:  "JID_1910.chk"
 Charge =  0 Multiplicity = 1

 SCF Done:  E(RB3LYP) =  -457.322441798     A.U. after   14 cycles
 Normal termination of Gaussian 16 at Tue Dec  8 21:43:01 2020.

 ----------------------------------------------------------------------
 # B3LYP/6-311++G(d,p) empiricaldispersion=gd3bj scf=xqc pop=npa geom=c
 heck
 ----------------------------------------------------------------------

 ------------------------------------
 CID_46218307_JID_1910_Energie_kation
 ------------------------------------
 Structure from the checkpoint file:  "JID_1910.chk"
 Charge =  1 Multiplicity = 2

 SCF Done:  E(UB3LYP) =  -457.013369375     A.U. after   20 cycles
 Normal termination of Gaussian 16 at Tue Dec  8 21:46:44 2020.
 Gaussian 16:  ES64L-G16RevA.03 25-Dec-2016

 ----------------------------------------------------------------------
 # B3LYP/6-311++G(d,p) empiricaldispersion=gd3bj scf=xqc pop=npa geom=c
 heck
 ----------------------------------------------------------------------

 -----------------------------------
 CID_46218307_JID_1910_Energie_anion
 -----------------------------------
 Structure from the checkpoint file:  "JID_1910.chk"
 Charge = -1 Multiplicity = 2

                         Standard orientation:
 ---------------------------------------------------------------------
 Center     Atomic      Atomic             Coordinates (Angstroms)
 Number     Number       Type             X           Y           Z
 ---------------------------------------------------------------------
      1          6           0        3.936037    0.391931   -0.748616
      2          6           0        3.936049    0.393112    0.747911
      3          6           0        3.051198   -0.599122    0.000425
      4          6           0        1.629493   -0.419781    0.000387
      5          6           0        0.429688   -0.238787    0.000235
      6          6           0       -0.984707   -0.069250    0.000112
      7          7           0       -1.489222    1.182295    0.000006
      8          6           0       -2.820173    1.278979   -0.000116
      9          6           0       -3.655263    0.160693   -0.000122
     10          7           0       -3.163527   -1.085363   -0.000077
     11          6           0       -1.836755   -1.194092    0.000038
     12          1           0        4.795388   -0.017651   -1.270992
     13          1           0        3.433136    1.204551   -1.262403
     14          1           0        4.795391   -0.015644    1.270956
     15          1           0        3.433208    1.206544    1.260476
     16          1           0        3.388322   -1.633230    0.001272
     17          1           0       -3.236467    2.284525   -0.000214
     18          1           0       -4.737599    0.266871   -0.000219
     19          1           0       -1.415547   -2.196584    0.000100
 ---------------------------------------------------------------------

 SCF Done:  E(UB3LYP) =  -457.328341130     A.U. after   29 cycles

 The electronic state is 2-A.
 Alpha  occ. eigenvalues --  -14.13167 -14.12158 -10.08728 -10.07158 -10.07130
 Alpha  occ. eigenvalues --  -10.04461 -10.04105 -10.03893 -10.02362 -10.01705
 Alpha  occ. eigenvalues --  -10.01258  -0.79955  -0.75861  -0.72743  -0.63062
 Alpha  occ. eigenvalues --   -0.58973  -0.52169  -0.50168  -0.48416  -0.47994
 Alpha  occ. eigenvalues --   -0.40843  -0.38105  -0.36291  -0.33955  -0.33393
 Alpha  occ. eigenvalues --   -0.28967  -0.27346  -0.26995  -0.25910  -0.22583
 Alpha  occ. eigenvalues --   -0.22362  -0.21635  -0.17091  -0.14116  -0.13625
 Alpha  occ. eigenvalues --   -0.12114  -0.08206  -0.07481   0.05611
 Alpha virt. eigenvalues --    0.07196   0.09154   0.09886   0.10321   0.11355
 Alpha virt. eigenvalues --    0.12498   0.12575   0.13144   0.13291   0.15260
 Alpha virt. eigenvalues --    0.15709   0.16680   0.17710   0.18012   0.18562

  Beta  occ. eigenvalues --  -14.12677 -14.11446 -10.08760 -10.07109 -10.07080
  Beta  occ. eigenvalues --  -10.04581 -10.03998 -10.03841 -10.02080 -10.01744
  Beta  occ. eigenvalues --  -10.01051  -0.79146  -0.75754  -0.71639  -0.62657
  Beta  occ. eigenvalues --   -0.58591  -0.51849  -0.50059  -0.47983  -0.47612
  Beta  occ. eigenvalues --   -0.40756  -0.37983  -0.36061  -0.33579  -0.33118
  Beta  occ. eigenvalues --   -0.28880  -0.27262  -0.26933  -0.24211  -0.22354
  Beta  occ. eigenvalues --   -0.21856  -0.21502  -0.14825  -0.13170  -0.12596
  Beta  occ. eigenvalues --   -0.11651  -0.06875  -0.06814
  Beta virt. eigenvalues --    0.07113   0.09084   0.09755   0.10276   0.11284
  Beta virt. eigenvalues --    0.12452   0.12505   0.13153   0.13200   0.13220
  Beta virt. eigenvalues --    0.15164   0.15640   0.16758   0.17688   0.18191

 Mulliken charges and spin densities:
               1          2
     1  C   -0.444310  -0.036428
     2  C   -0.442871  -0.037839
     3  C    0.221157  -0.011922
     4  C   -0.100461   0.200011
     5  C    0.240419  -0.063217
     6  C   -0.606084   0.148493
     7  N   -0.106945   0.326625
     8  C    0.133087  -0.046988
     9  C   -0.356553   0.257325
    10  N   -0.131831   0.201653
    11  C   -0.336182  -0.051361
    12  H    0.054493   0.050341
    13  H    0.129043   0.011385
    14  H    0.053654   0.051249
    15  H    0.128870   0.011554
    16  H    0.234200   0.000274
    17  H    0.103013   0.003646
    18  H    0.107248  -0.019778
    19  H    0.120053   0.004976
 Sum of Mulliken charges =  -1.00000   1.00000

 Dipole moment (field-independent basis, Debye):
    X=              6.0636    Y=             -0.2937    Z=             -0.0031  Tot=              6.0707
 Quadrupole moment (field-independent basis, Debye-Ang):
   XX=           -104.3375   YY=            -76.2131   ZZ=            -73.8641
   XY=             -7.2952   XZ=             -0.0157   YZ=             -0.0023

 Summary of Natural Population Analysis:

                                       Natural Population
                Natural  -----------------------------------------------
    Atom  No    Charge         Core      Valence    Rydberg      Total
 -----------------------------------------------------------------------
      C    1   -0.18225      0.99955     2.17492    0.00778     3.18225
      C    2   -0.19730      0.99968     2.18701    0.01062     3.19730
      C    3   -0.13478      0.99944     2.12578    0.00956     3.13478
      C    4    0.00365      0.99922     1.98970    0.00743     2.99635
      C    5   -0.00198      0.99921     1.99348    0.00929     3.00198
      C    6    0.06168      0.99949     1.92310    0.01574     2.93832
      N    7   -0.12515      0.99968     2.61097    0.01449     3.62515
      C    8   -0.02381      0.99960     2.00997    0.01424     3.02381
      C    9    0.03777      0.99960     1.94646    0.01617     2.96223
      N   10   -0.17399      0.99971     2.65982    0.01446     3.67399
      C   11   -0.00491      0.99957     1.99182    0.01352     3.00491
      H   12    0.09383      0.00000     0.40488    0.00129     0.40617
      H   13    0.10510      0.00000     0.39383    0.00107     0.39490
      H   14    0.09767      0.00000     0.40147    0.00086     0.40233
      H   15    0.10581      0.00000     0.39322    0.00096     0.39419
      H   16    0.10477      0.00000     0.39377    0.00146     0.39523
      H   17    0.07784      0.00000     0.42051    0.00164     0.42216
      H   18    0.07482      0.00000     0.42362    0.00155     0.42518
      H   19    0.08134      0.00000     0.41705    0.00161     0.41866
 =======================================================================
   * Total *    0.00008     10.99477    26.86141    0.14373    37.99992

 Normal termination of Gaussian 16 at Tue Dec  8 21:51:01 2020.
