 Gaussian 16, Revision A.03,

 -----------------------------------------------------------
 # opt freq B3LYP/6-31G(d) empiricaldispersion=gd3bj scf=xqc
 -----------------------------------------------------------

 -------------------------------
 CID_124676253_JID_2287_neutraal
 -------------------------------
 Symbolic Z-matrix:
 Charge =  0 Multiplicity = 1

 SCF Done:  E(RB3LYP) =  -966.841820677     A.U. after   15 cycles
 SCF Done:  E(RB3LYP) =  -966.849991260     A.U. after   12 cycles
 SCF Done:  E(RB3LYP) =  -966.851056006     A.U. after   12 cycles
 SCF Done:  E(RB3LYP) =  -966.851423175     A.U. after   11 cycles
 SCF Done:  E(RB3LYP) =  -966.851556029     A.U. after   13 cycles
 SCF Done:  E(RB3LYP) =  -966.851932048     A.U. after   11 cycles
 SCF Done:  E(RB3LYP) =  -966.852731109     A.U. after   13 cycles
 SCF Done:  E(RB3LYP) =  -966.853016350     A.U. after   13 cycles
 SCF Done:  E(RB3LYP) =  -966.852159030     A.U. after   15 cycles
 SCF Done:  E(RB3LYP) =  -966.853207146     A.U. after   13 cycles
 SCF Done:  E(RB3LYP) =  -966.858791262     A.U. after   10 cycles
 SCF Done:  E(RB3LYP) =  -966.858792003     A.U. after   10 cycles
 SCF Done:  E(RB3LYP) =  -966.858792389     A.U. after   10 cycles
 SCF Done:  E(RB3LYP) =  -966.858792491     A.U. after    8 cycles
 SCF Done:  E(RB3LYP) =  -966.858792511     A.U. after    7 cycles
 Optimization completed.
    -- Stationary point found.
 Normal termination of Gaussian 16 at Wed Dec  9 17:31:06 2020.

 --------------------------------------------------------------------
 #N Geom=AllCheck Guess=TCheck SCRF=Check GenChk RB3LYP/6-31G(d) Freq
 --------------------------------------------------------------------

 Structure from the checkpoint file:  "JID_2287.chk"
 -------------------------------
 CID_124676253_JID_2287_neutraal
 -------------------------------
 Charge =  0 Multiplicity = 1

 SCF Done:  E(RB3LYP) =  -966.858792511     A.U. after    1 cycles

  Exact polarizability: 108.083  -4.813 101.386  -3.317  -0.531  71.084
 Approx polarizability: 148.631  -8.147 185.146  -5.331  -4.876 110.465

                      1                      2                      3
                      A                      A                      A
 Frequencies --     61.2890                87.3045               143.5701
 Red. masses --      3.4234                 4.8156                 7.6469
 Frc consts  --      0.0076                 0.0216                 0.0929
 IR Inten    --      2.5978                 0.5632                10.0897

                      4                      5                      6
                      A                      A                      A
 Frequencies --    146.3843               167.3006               252.8998
 Red. masses --      7.8556                 5.3568                 5.9040
 Frc consts  --      0.0992                 0.0883                 0.2225
 IR Inten    --      5.1347                 1.6528                 0.8529

                      7                      8                      9
                      A                      A                      A
 Frequencies --    296.7798               319.7618               364.9803
 Red. masses --      4.2268                 6.3795                 2.4703
 Frc consts  --      0.2193                 0.3843                 0.1939
 IR Inten    --      2.3213                18.8540                 4.6036

                     10                     11                     12
                      A                      A                      A
 Frequencies --    428.1459               447.5875               553.4287
 Red. masses --      6.1243                 4.2945                 5.9080
 Frc consts  --      0.6614                 0.5069                 1.0661
 IR Inten    --      8.6240                 8.4630                12.7200

                     13                     14                     15
                      A                      A                      A
 Frequencies --    574.3492               616.1242               618.4383
 Red. masses --      1.1404                 4.5027                 4.6187
 Frc consts  --      0.2216                 1.0071                 1.0408
 IR Inten    --     68.0826                 9.6722                11.5923

                     16                     17                     18
                      A                      A                      A
 Frequencies --    640.8449               671.3375               679.1274
 Red. masses --      5.2162                 3.9683                 2.0695
 Frc consts  --      1.2621                 1.0538                 0.5624
 IR Inten    --     19.4091                 2.3592               103.4633

                     19                     20                     21
                      A                      A                      A
 Frequencies --    697.2072               742.6652               758.0967
 Red. masses --      2.0556                 7.4872                 7.9222
 Frc consts  --      0.5887                 2.4331                 2.6825
 IR Inten    --     45.7394                 9.2612                15.4943

                     22                     23                     24
                      A                      A                      A
 Frequencies --    787.7522               835.2192               919.4847
 Red. masses --      1.4274                 3.8358                 1.8808
 Frc consts  --      0.5219                 1.5765                 0.9369
 IR Inten    --     20.2933                 7.4644                 7.9255

                     25                     26                     27
                      A                      A                      A
 Frequencies --    959.4084               988.0489               991.9145
 Red. masses --      2.0013                 2.4867                 3.1982
 Frc consts  --      1.0853                 1.4303                 1.8540
 IR Inten    --      7.9465                 5.1585                 1.4338

                     28                     29                     30
                      A                      A                      A
 Frequencies --   1031.6852              1067.4404              1089.7572
 Red. masses --      3.4604                 3.0734                 1.9407
 Frc consts  --      2.1701                 2.0633                 1.3579
 IR Inten    --     51.1695                37.2470                41.7452

                     31                     32                     33
                      A                      A                      A
 Frequencies --   1100.6836              1182.3015              1216.2187
 Red. masses --      2.1359                 1.5354                 2.2578
 Frc consts  --      1.5246                 1.2645                 1.9677
 IR Inten    --     13.4282                 2.6343                22.5981

                     34                     35                     36
                      A                      A                      A
 Frequencies --   1240.9859              1248.6753              1271.8191
 Red. masses --      1.3319                 1.3889                 1.5380
 Frc consts  --      1.2085                 1.2759                 1.4658
 IR Inten    --      6.2739                 1.0385                34.3336

                     37                     38                     39
                      A                      A                      A
 Frequencies --   1325.1888              1346.3489              1363.3698
 Red. masses --      1.7858                 1.6613                 1.8954
 Frc consts  --      1.8478                 1.7742                 2.0758
 IR Inten    --     43.9385                76.0660                39.9777

                     40                     41                     42
                      A                      A                      A
 Frequencies --   1396.7169              1435.6894              1476.2535
 Red. masses --      5.7116                 1.8544                 1.1018
 Frc consts  --      6.5648                 2.2521                 1.4147
 IR Inten    --    179.9933                53.1112                 8.7809

                     43                     44                     45
                      A                      A                      A
 Frequencies --   1488.7168              1521.4448              1848.6127
 Red. masses --      1.0811                 1.0930                10.2853
 Frc consts  --      1.4117                 1.4907                20.7089
 IR Inten    --      2.9412                 4.4121               640.8625

                     46                     47                     48
                      A                      A                      A
 Frequencies --   1893.0954              3087.6951              3091.5636
 Red. masses --     11.3367                 1.0600                 1.0596
 Frc consts  --     23.9376                 5.9541                 5.9669
 IR Inten    --    393.5106                 7.3369                 1.5443

                     49                     50                     51
                      A                      A                      A
 Frequencies --   3097.9612              3140.3139              3160.4084
 Red. masses --      1.0601                 1.1069                 1.1072
 Frc consts  --      5.9946                 6.4311                 6.5158
 IR Inten    --      9.8244                 3.9131                 3.4066

                     52                     53                     54
                      A                      A                      A
 Frequencies --   3168.1989              3525.0232              3647.6448
 Red. masses --      1.1068                 1.0805                 1.0799
 Frc consts  --      6.5453                 7.9107                 8.4660
 IR Inten    --      1.2666               154.3034                78.3776

 - Thermochemistry -
 -------------------
 Temperature   298.150 Kelvin.  Pressure   1.00000 Atm.
 Atom     1 has atomic number  6 and mass  12.00000

 Molecular mass:   188.02556 amu.
 Principal axes and moments of inertia in atomic units:
                           1         2         3
     Eigenvalues --  1321.544892615.744603355.84781
           X            0.99981  -0.01446  -0.01304
           Y            0.01466   0.99976   0.01610
           Z            0.01281  -0.01629   0.99979
 This molecule is an asymmetric top.
 Rotational symmetry number  1.
 Warning -- assumption of classical behavior for rotation
           may cause significant error
 Rotational temperatures (Kelvin)      0.06554     0.03311     0.02581
 Rotational constants (GHZ):           1.36563     0.68995     0.53779
 Zero-point vibrational energy     396043.3 (Joules/Mol)
                                   94.65661 (Kcal/Mol)
 Warning -- explicit consideration of  15 degrees of freedom as
           vibrations may cause significant error
 Vibrational temperatures:     88.18   125.61   206.57   210.61   240.71
          (Kelvin)            363.87   427.00   460.07   525.13   616.01
                              643.98   796.26   826.36   886.47   889.79
                              922.03   965.90   977.11  1003.13  1068.53
                             1090.73  1133.40  1201.69  1322.93  1380.37
                             1421.58  1427.14  1484.36  1535.81  1567.92
                             1583.64  1701.07  1749.87  1785.50  1796.57
                             1829.86  1906.65  1937.10  1961.59  2009.56
                             2065.64  2124.00  2141.93  2189.02  2659.74
                             2723.74  4442.50  4448.07  4457.28  4518.21
                             4547.12  4558.33  5071.72  5248.15

 Zero-point correction=                           0.150845 (Hartree/Particle)
 Thermal correction to Energy=                    0.161279
 Thermal correction to Enthalpy=                  0.162223
 Thermal correction to Gibbs Free Energy=         0.114276
 Sum of electronic and zero-point Energies=           -966.707948
 Sum of electronic and thermal Energies=              -966.697514
 Sum of electronic and thermal Enthalpies=            -966.696570
 Sum of electronic and thermal Free Energies=         -966.744517

                     E (Thermal)             CV                S
                      KCal/Mol        Cal/Mol-Kelvin    Cal/Mol-Kelvin
 Total                  101.204             40.143            100.913
 Electronic               0.000              0.000              0.000
 Translational            0.889              2.981             41.600
 Rotational               0.889              2.981             30.829
 Vibrational             99.426             34.182             28.484
 Vibration     1          0.597              1.973              4.415
 Vibration     2          0.601              1.958              3.720
 Vibration     3          0.616              1.910              2.756
 Vibration     4          0.617              1.907              2.719
 Vibration     5          0.624              1.883              2.466
 Vibration     6          0.664              1.758              1.710
 Vibration     7          0.690              1.680              1.435
 Vibration     8          0.706              1.636              1.311
 Vibration     9          0.738              1.544              1.101
 Vibration    10          0.790              1.409              0.865
 Vibration    11          0.807              1.366              0.803
 Vibration    12          0.909              1.132              0.537
 Vibration    13          0.931              1.087              0.496
 Vibration    14          0.976              0.998              0.423
 Vibration    15          0.978              0.993              0.419

 Optimization completed.
    -- Stationary point found.
 Normal termination of Gaussian 16 at Wed Dec  9 17:36:19 2020.

 ----------------------------------------------------------------------
 # B3LYP/6-311++G(d,p) empiricaldispersion=gd3bj scf=xqc pop=npa geom=c
 heck
 ----------------------------------------------------------------------

 ---------------------------------------
 CID_124676253_JID_2287_Energie_neutraal
 ---------------------------------------
 Structure from the checkpoint file:  "JID_2287.chk"
 Charge =  0 Multiplicity = 1

 SCF Done:  E(RB3LYP) =  -967.060441897     A.U. after   15 cycles
 Normal termination of Gaussian 16 at Wed Dec  9 17:38:46 2020.

 ----------------------------------------------------------------------
 # B3LYP/6-311++G(d,p) empiricaldispersion=gd3bj scf=xqc pop=npa geom=c
 heck
 ----------------------------------------------------------------------

 -------------------------------------
 CID_124676253_JID_2287_Energie_kation
 -------------------------------------
 Structure from the checkpoint file:  "JID_2287.chk"
 Charge =  1 Multiplicity = 2

 SCF Done:  E(UB3LYP) =  -966.725604066     A.U. after   27 cycles
 Normal termination of Gaussian 16 at Wed Dec  9 17:44:44 2020.
 Gaussian 16:  ES64L-G16RevA.03 25-Dec-2016

 ----------------------------------------------------------------------
 # B3LYP/6-311++G(d,p) empiricaldispersion=gd3bj scf=xqc pop=npa geom=c
 heck
 ----------------------------------------------------------------------

 ------------------------------------
 CID_124676253_JID_2287_Energie_anion
 ------------------------------------
 Structure from the checkpoint file:  "JID_2287.chk"
 Charge = -1 Multiplicity = 2

                         Standard orientation:
 ---------------------------------------------------------------------
 Center     Atomic      Atomic             Coordinates (Angstroms)
 Number     Number       Type             X           Y           Z
 ---------------------------------------------------------------------
      1          6           0       -0.598227    1.118448    1.206085
      2          6           0       -2.068482    0.664362    1.115586
      3         16           0       -2.336570   -0.227455   -0.503563
      4          8           0       -2.054294   -1.699906   -0.234777
      5          6           0       -0.750469    0.473568   -1.136019
      6          6           0        0.191983    0.432786    0.074666
      7          6           0        1.522699    1.149694   -0.217644
      8          8           0        1.659306    2.330450   -0.464995
      9          7           0        2.483462    0.175311   -0.142803
     10          6           0        1.964498   -1.111301    0.167901
     11          8           0        2.614277   -2.131185    0.220351
     12          7           0        0.625189   -0.920308    0.394051
     13          1           0       -0.519164    2.199190    1.055202
     14          1           0       -0.157085    0.872825    2.174885
     15          1           0       -2.777230    1.495139    1.172538
     16          1           0       -2.340226   -0.083362    1.864404
     17          1           0       -0.417556   -0.140882   -1.974891
     18          1           0       -0.917758    1.505253   -1.462955
     19          1           0        3.470445    0.331642   -0.294838
     20          1           0       -0.043181   -1.685761    0.335851
 ---------------------------------------------------------------------

 SCF Done:  E(UB3LYP) =  -967.051547374     A.U. after   33 cycles
 SCF Done:  E(UB3LYP) =  -967.052110226     a.u. after   10 cycles

 The electronic state is 2-A.
 Alpha  occ. eigenvalues --  -88.84872 -19.00893 -19.00431 -18.98795 -14.26363
 Alpha  occ. eigenvalues --  -14.23931 -10.21378 -10.18685 -10.14433 -10.10740
 Alpha  occ. eigenvalues --  -10.10171 -10.08700  -7.92605  -5.88874  -5.88715
 Alpha  occ. eigenvalues --   -5.88212  -0.97855  -0.95147  -0.91802  -0.88116
 Alpha  occ. eigenvalues --   -0.81076  -0.73878  -0.64918  -0.63572  -0.56024
 Alpha  occ. eigenvalues --   -0.54661  -0.50053  -0.49449  -0.42945  -0.40752
 Alpha  occ. eigenvalues --   -0.39707  -0.38161  -0.37338  -0.35490  -0.34201
 Alpha  occ. eigenvalues --   -0.33623  -0.31906  -0.30857  -0.30066  -0.28669
 Alpha  occ. eigenvalues --   -0.28333  -0.27179  -0.26003  -0.20017  -0.19636
 Alpha  occ. eigenvalues --   -0.18411  -0.17136  -0.16589  -0.14175   0.04640
 Alpha virt. eigenvalues --    0.07041   0.07346   0.08448   0.08918   0.09733
 Alpha virt. eigenvalues --    0.10872   0.11172   0.11855   0.12216   0.12524
 Alpha virt. eigenvalues --    0.14019   0.14123   0.14398   0.15641   0.16126

  Beta  occ. eigenvalues --  -88.84856 -19.00807 -19.00413 -18.98771 -14.26338
  Beta  occ. eigenvalues --  -14.23922 -10.21361 -10.18579 -10.14438 -10.10645
  Beta  occ. eigenvalues --  -10.10123 -10.08667  -7.92589  -5.88863  -5.88677
  Beta  occ. eigenvalues --   -5.88196  -0.97779  -0.95022  -0.91747  -0.88059
  Beta  occ. eigenvalues --   -0.81025  -0.73796  -0.64776  -0.63483  -0.55891
  Beta  occ. eigenvalues --   -0.54582  -0.49911  -0.49382  -0.42872  -0.40688
  Beta  occ. eigenvalues --   -0.39609  -0.37991  -0.37253  -0.35358  -0.34121
  Beta  occ. eigenvalues --   -0.33537  -0.31776  -0.30667  -0.29852  -0.28580
  Beta  occ. eigenvalues --   -0.28230  -0.27071  -0.25947  -0.19971  -0.19431
  Beta  occ. eigenvalues --   -0.18339  -0.17070  -0.16506  -0.14073
  Beta virt. eigenvalues --    0.07357   0.07872   0.08410   0.09339   0.09623
  Beta virt. eigenvalues --    0.10218   0.11266   0.11490   0.12388   0.12593
  Beta virt. eigenvalues --    0.12677   0.14223   0.14491   0.14576   0.15577

 Mulliken charges and spin densities:
               1          2
     1  C    1.530406  -1.966056
     2  C   -0.576645  -0.122389
     3  S    1.113216  -0.549878
     4  O   -0.456208   0.023968
     5  C    0.765885  -1.788091
     6  C   -0.836619   1.375277
     7  C   -0.744041   1.019473
     8  O   -0.316646   0.005440
     9  N   -0.125766  -0.190011
    10  C    0.459910  -0.169668
    11  O   -0.391340   0.003173
    12  N   -0.112153  -0.055571
    13  H   -0.116979   0.338374
    14  H   -0.315533   0.500040
    15  H   -0.794955   0.997963
    16  H    0.164624   0.089072
    17  H   -0.190597   0.474891
    18  H   -0.430193   0.671040
    19  H   -0.002783   0.358055
    20  H    0.376419  -0.015102
 Sum of Mulliken charges =  -1.00000   1.00000

 Dipole moment (field-independent basis, Debye):
    X=              1.6199    Y=             -2.5788    Z=              0.1068  Tot=              3.0473
 Quadrupole moment (field-independent basis, Debye-Ang):
   XX=           -123.6948   YY=           -129.5796   ZZ=           -103.2197
   XY=              9.7229   XZ=             -0.6408   YZ=             -0.3908

 Summary of Natural Population Analysis:

                                       Natural Population
                Natural  -----------------------------------------------
    Atom  No    Charge         Core      Valence    Rydberg      Total
 -----------------------------------------------------------------------
      C    1   -0.19812      0.99958     2.18689    0.01165     3.19812
      C    2   -0.26978      0.99961     2.25894    0.01123     3.26978
      S    3    0.58490      4.99947     2.36434    0.05129     7.41510
      O    4   -0.49447      0.99993     3.48867    0.00587     4.49447
      C    5   -0.27039      0.99954     2.25745    0.01340     3.27039
      C    6    0.01954      0.99951     1.96444    0.01650     2.98046
      C    7    0.36355      0.99960     1.61307    0.02378     2.63645
      O    8   -0.29403      0.99987     3.28849    0.00566     4.29403
      N    9   -0.32840      0.99964     2.82047    0.00829     3.82840
      C   10    0.41236      0.99971     1.56467    0.02326     2.58764
      O   11   -0.31692      0.99987     3.31122    0.00582     4.31692
      N   12   -0.33929      0.99964     2.82966    0.00999     3.83929
      H   13    0.11909      0.00000     0.37774    0.00317     0.38091
      H   14    0.11173      0.00000     0.38665    0.00163     0.38827
      H   15    0.11674      0.00000     0.37621    0.00706     0.38326
      H   16    0.11290      0.00000     0.38601    0.00109     0.38710
      H   17    0.11778      0.00000     0.38059    0.00163     0.38222
      H   18    0.12508      0.00000     0.37099    0.00393     0.37492
      H   19    0.20643      0.00000     0.29064    0.00293     0.29357
      H   20    0.22131      0.00000     0.27685    0.00183     0.27869
 =======================================================================
   * Total *    0.00000     15.99597    32.79400    0.21003    49.00000

 Normal termination of Gaussian 16 at Wed Dec  9 18:39:06 2020.
