 Gaussian 16, Revision A.03,

 -----------------------------------------------------------
 # opt freq B3LYP/6-31G(d) empiricaldispersion=gd3bj scf=xqc
 -----------------------------------------------------------

 ------------------------------
 CID_152736747_JID_833_neutraal
 ------------------------------
 Symbolic Z-matrix:
 Charge =  0 Multiplicity = 1

 SCF Done:  E(RB3LYP) =  -558.526351869     A.U. after   17 cycles
 SCF Done:  E(RB3LYP) =  -558.538817958     A.U. after   17 cycles
 SCF Done:  E(RB3LYP) =  -558.543409485     A.U. after   17 cycles
 SCF Done:  E(RB3LYP) =  -558.544876371     A.U. after   17 cycles
 SCF Done:  E(RB3LYP) =  -558.547270714     A.U. after   16 cycles
 SCF Done:  E(RB3LYP) =  -558.550626833     A.U. after   15 cycles
 SCF Done:  E(RB3LYP) =  -558.551035423     A.U. after   14 cycles
 SCF Done:  E(RB3LYP) =  -558.551272013     A.U. after   15 cycles
 SCF Done:  E(RB3LYP) =  -558.551469935     A.U. after   14 cycles
 SCF Done:  E(RB3LYP) =  -558.551605439     A.U. after   14 cycles
 SCF Done:  E(RB3LYP) =  -558.557326191     A.U. after   13 cycles
 SCF Done:  E(RB3LYP) =  -558.557339339     A.U. after   14 cycles
 SCF Done:  E(RB3LYP) =  -558.557351480     A.U. after   13 cycles
 SCF Done:  E(RB3LYP) =  -558.557353471     A.U. after   11 cycles
 SCF Done:  E(RB3LYP) =  -558.557354789     A.U. after   11 cycles
 SCF Done:  E(RB3LYP) =  -558.557355005     A.U. after    9 cycles
 Optimization completed.
    -- Stationary point found.
 Normal termination of Gaussian 16 at Tue Dec  8 12:51:46 2020.

 --------------------------------------------------------------------
 #N Geom=AllCheck Guess=TCheck SCRF=Check GenChk RB3LYP/6-31G(d) Freq
 --------------------------------------------------------------------

 Structure from the checkpoint file:  "JID_833.chk"
 ------------------------------
 CID_152736747_JID_833_neutraal
 ------------------------------
 Charge =  0 Multiplicity = 1

 SCF Done:  E(RB3LYP) =  -558.557355005     A.U. after    1 cycles

  Exact polarizability:  81.613 -12.090  72.849   2.563  -0.402  57.965
 Approx polarizability: 135.354 -30.453 109.502   8.668  -4.888 111.538

                      1                      2                      3
                      A                      A                      A
 Frequencies --     44.9497                53.2932                75.0112
 Red. masses --     10.3278                 4.5743                10.2253
 Frc consts  --      0.0123                 0.0077                 0.0339
 IR Inten    --      2.2782                 1.7497                 0.7392

                      4                      5                      6
                      A                      A                      A
 Frequencies --     80.6171               176.8835               246.6696
 Red. masses --      9.8469                 7.8595                 3.5727
 Frc consts  --      0.0377                 0.1449                 0.1281
 IR Inten    --      1.0727                 0.0880                 3.3272

                      7                      8                      9
                      A                      A                      A
 Frequencies --    269.5532               303.7692               414.5476
 Red. masses --      3.7477                 1.2956                 2.2703
 Frc consts  --      0.1604                 0.0704                 0.2299
 IR Inten    --     17.5982                28.6484                 0.8009

                     10                     11                     12
                      A                      A                      A
 Frequencies --    463.1000               489.5314               535.1895
 Red. masses --      2.6651                 4.6977                 9.4906
 Frc consts  --      0.3368                 0.6633                 1.6016
 IR Inten    --      0.9084                 5.3316                19.6551

                     13                     14                     15
                      A                      A                      A
 Frequencies --    570.5937               609.4326               634.9722
 Red. masses --      5.3734                 3.9397                 4.5079
 Frc consts  --      1.0308                 0.8621                 1.0709
 IR Inten    --      8.5122                13.7425                 3.9716

                     16                     17                     18
                      A                      A                      A
 Frequencies --    688.5617               782.5616               841.2542
 Red. masses --      3.6132                 2.8156                 6.1381
 Frc consts  --      1.0093                 1.0159                 2.5594
 IR Inten    --      6.1539                71.3856                28.3642

                     19                     20                     21
                      A                      A                      A
 Frequencies --    880.9208               948.0650               988.1029
 Red. masses --      5.0923                 2.7017                 2.3072
 Frc consts  --      2.3283                 1.4307                 1.3272
 IR Inten    --     22.8596                21.0427                25.9029

                     22                     23                     24
                      A                      A                      A
 Frequencies --   1054.8272              1127.4318              1149.0059
 Red. masses --      2.2237                 2.9847                 3.0242
 Frc consts  --      1.4578                 2.2353                 2.3524
 IR Inten    --     13.3597                11.9236                18.3186

                     25                     26                     27
                      A                      A                      A
 Frequencies --   1250.1970              1273.8849              1318.4700
 Red. masses --      1.2258                 9.4559                 1.2400
 Frc consts  --      1.1288                 9.0409                 1.2700
 IR Inten    --     11.3807               115.7467                 0.0516

                     28                     29                     30
                      A                      A                      A
 Frequencies --   1334.5889              1374.8600              1396.2457
 Red. masses --      1.2848                 1.2661                 1.5082
 Frc consts  --      1.3483                 1.4101                 1.7323
 IR Inten    --      5.9805                 2.2026                40.5248

                     31                     32                     33
                      A                      A                      A
 Frequencies --   1437.3014              1489.6196              1494.5235
 Red. masses --      4.9971                 1.0833                 1.1179
 Frc consts  --      6.0823                 1.4163                 1.4711
 IR Inten    --     70.0196                 7.2199                24.5144

                     34                     35                     36
                      A                      A                      A
 Frequencies --   1684.2294              1686.4336              2247.5811
 Red. masses --     10.1779                 1.0845                13.9385
 Frc consts  --     17.0103                 1.8173                41.4856
 IR Inten    --    222.0703                11.5507               474.7851

                     37                     38                     39
                      A                      A                      A
 Frequencies --   3094.7550              3106.2834              3151.3461
 Red. masses --      1.0628                 1.0618                 1.1046
 Frc consts  --      5.9975                 6.0362                 6.4631
 IR Inten    --     12.7083                 6.2435                 1.7296

                     40                     41                     42
                      A                      A                      A
 Frequencies --   3174.3230              3405.9560              3570.3389
 Red. masses --      1.1036                 1.0531                 1.0891
 Frc consts  --      6.5516                 7.1978                 8.1798
 IR Inten    --      5.8145                13.1271                 4.8774

 - Thermochemistry -
 -------------------
 Temperature   298.150 Kelvin.  Pressure   1.00000 Atm.
 Atom     1 has atomic number  6 and mass  12.00000

 Molecular mass:   146.05522 amu.
 Principal axes and moments of inertia in atomic units:
                           1         2         3
     Eigenvalues --   883.328601961.599862387.37551
           X            0.99999  -0.00085   0.00421
           Y            0.00080   0.99992   0.01264
           Z           -0.00422  -0.01264   0.99991
 This molecule is an asymmetric top.
 Rotational symmetry number  1.
 Warning -- assumption of classical behavior for rotation
           may cause significant error
 Rotational temperatures (Kelvin)      0.09805     0.04415     0.03628
 Rotational constants (GHZ):           2.04311     0.92004     0.75595
 Zero-point vibrational energy     304567.9 (Joules/Mol)
                                   72.79348 (Kcal/Mol)
 Warning -- explicit consideration of  14 degrees of freedom as
           vibrations may cause significant error
 Vibrational temperatures:     64.67    76.68   107.92   115.99   254.50
          (Kelvin)            354.90   387.83   437.06   596.44   666.30
                              704.33   770.02   820.96   876.84   913.58
                              990.69  1125.93  1210.38  1267.45  1364.05
                             1421.66  1517.66  1622.12  1653.16  1798.75
                             1832.84  1896.98  1920.18  1978.12  2008.89
                             2067.96  2143.23  2150.29  2423.23  2426.40
                             3233.77  4452.66  4469.25  4534.08  4567.14
                             4900.41  5136.92

 Zero-point correction=                           0.116004 (Hartree/Particle)
 Thermal correction to Energy=                    0.126049
 Thermal correction to Enthalpy=                  0.126993
 Thermal correction to Gibbs Free Energy=         0.078958
 Sum of electronic and zero-point Energies=           -558.441351
 Sum of electronic and thermal Energies=              -558.431306
 Sum of electronic and thermal Enthalpies=            -558.430362
 Sum of electronic and thermal Free Energies=         -558.478397

                     E (Thermal)             CV                S
                      KCal/Mol        Cal/Mol-Kelvin    Cal/Mol-Kelvin
 Total                   79.097             34.610            101.099
 Electronic               0.000              0.000              0.000
 Translational            0.889              2.981             40.847
 Rotational               0.889              2.981             29.804
 Vibrational             77.319             28.649             30.447
 Vibration     1          0.595              1.979              5.028
 Vibration     2          0.596              1.976              4.691
 Vibration     3          0.599              1.966              4.017
 Vibration     4          0.600              1.962              3.876
 Vibration     5          0.628              1.871              2.361
 Vibration     6          0.661              1.768              1.754
 Vibration     7          0.674              1.729              1.599
 Vibration     8          0.695              1.667              1.396
 Vibration     9          0.778              1.439              0.911
 Vibration    10          0.821              1.332              0.757
 Vibration    11          0.845              1.273              0.685
 Vibration    12          0.890              1.172              0.576
 Vibration    13          0.927              1.095              0.503
 Vibration    14          0.968              1.012              0.434

                           ! Non-Optimized Parameters !
 Normal termination of Gaussian 16 at Tue Dec  8 13:06:06 2020.

 ----------------------------------------------------------------------
 # B3LYP/6-311++G(d,p) empiricaldispersion=gd3bj scf=xqc pop=npa geom=c
 heck
 ----------------------------------------------------------------------

 --------------------------------------
 CID_152736747_JID_833_Energie_neutraal
 --------------------------------------
 Structure from the checkpoint file:  "JID_833.chk"
 Charge =  0 Multiplicity = 1

 SCF Done:  E(RB3LYP) =  -558.732819862     A.U. after   24 cycles
 Normal termination of Gaussian 16 at Tue Dec  8 13:12:18 2020.

 ----------------------------------------------------------------------
 # B3LYP/6-311++G(d,p) empiricaldispersion=gd3bj scf=xqc pop=npa geom=c
 heck
 ----------------------------------------------------------------------

 ------------------------------------
 CID_152736747_JID_833_Energie_kation
 ------------------------------------
 Structure from the checkpoint file:  "JID_833.chk"
 Charge =  1 Multiplicity = 2

 SCF Done:  E(UB3LYP) =  -558.402105218     A.U. after   28 cycles
 Normal termination of Gaussian 16 at Tue Dec  8 13:17:18 2020.
 Gaussian 16:  ES64L-G16RevA.03 25-Dec-2016

 ----------------------------------------------------------------------
 # B3LYP/6-311++G(d,p) empiricaldispersion=gd3bj scf=xqc pop=npa geom=c
 heck
 ----------------------------------------------------------------------

 -----------------------------------
 CID_152736747_JID_833_Energie_anion
 -----------------------------------
 Structure from the checkpoint file:  "JID_833.chk"
 Charge = -1 Multiplicity = 2

                         Standard orientation:
 ---------------------------------------------------------------------
 Center     Atomic      Atomic             Coordinates (Angstroms)
 Number     Number       Type             X           Y           Z
 ---------------------------------------------------------------------
      1          6           0       -0.378775    1.325643   -0.747927
      2          6           0       -1.468637    0.957818    0.262223
      3          7           0       -1.923949   -0.476864    0.125995
      4          8           0       -2.075498   -1.112811    1.161424
      5          8           0       -2.160688   -0.877530   -1.008398
      6          7           0        0.990749    0.919673   -0.415680
      7          7           0        1.552755    1.536233    0.734646
      8          7           0        0.928665   -0.519679   -0.196588
      9          7           0        2.070000   -1.008282   -0.117994
     10          7           0        3.052271   -1.570497    0.011520
     11          1           0       -0.352873    2.412919   -0.864386
     12          1           0       -0.639645    0.883754   -1.712297
     13          1           0       -1.176946    1.078196    1.305473
     14          1           0       -2.367451    1.550506    0.070699
     15          1           0        1.961022    2.416905    0.434014
     16          1           0        0.856410    1.715595    1.463229
 ---------------------------------------------------------------------

 SCF Done:  E(UB3LYP) =  -558.748267873     A.U. after   32 cycles

 The electronic state is 2-A.
 Alpha  occ. eigenvalues --  -18.96291 -18.96285 -14.33369 -14.32923 -14.25870
 Alpha  occ. eigenvalues --  -14.24030 -14.23895 -14.22521 -10.08600 -10.08349
 Alpha  occ. eigenvalues --   -1.04047  -1.00520  -0.90367  -0.87159  -0.81117
 Alpha  occ. eigenvalues --   -0.70343  -0.64315  -0.54870  -0.45237  -0.44544
 Alpha  occ. eigenvalues --   -0.40951  -0.38923  -0.37682  -0.36562  -0.36347
 Alpha  occ. eigenvalues --   -0.35057  -0.33126  -0.32053  -0.28800  -0.28266
 Alpha  occ. eigenvalues --   -0.26708  -0.21931  -0.17097  -0.15848  -0.14623
 Alpha  occ. eigenvalues --   -0.13064  -0.11750  -0.09761   0.04386
 Alpha virt. eigenvalues --    0.06742   0.07701   0.09688   0.10186   0.12535
 Alpha virt. eigenvalues --    0.13107   0.13719   0.14941   0.16706   0.17487
 Alpha virt. eigenvalues --    0.18529   0.19052   0.19560   0.20400   0.21688

  Beta  occ. eigenvalues --  -18.95958 -18.95911 -14.32722 -14.32715 -14.25787
  Beta  occ. eigenvalues --  -14.23961 -14.23691 -14.22512 -10.08562 -10.08374
  Beta  occ. eigenvalues --   -1.03129  -1.00106  -0.90205  -0.86487  -0.80948
  Beta  occ. eigenvalues --   -0.70213  -0.63990  -0.54461  -0.44773  -0.44178
  Beta  occ. eigenvalues --   -0.40712  -0.38587  -0.36849  -0.35903  -0.34979
  Beta  occ. eigenvalues --   -0.34620  -0.32558  -0.31367  -0.28185  -0.27924
  Beta  occ. eigenvalues --   -0.26295  -0.21435  -0.17026  -0.15707  -0.12776
  Beta  occ. eigenvalues --   -0.12258  -0.11392  -0.09611
  Beta virt. eigenvalues --    0.07281   0.09339   0.09885   0.10301   0.12374
  Beta virt. eigenvalues --    0.12829   0.13378   0.14101   0.14869   0.16734
  Beta virt. eigenvalues --    0.17565   0.18627   0.19067   0.19620   0.20433

 Mulliken charges and spin densities:
               1          2
     1  C   -0.129717  -0.232529
     2  C    0.220985  -0.663634
     3  N   -0.182783   0.306209
     4  O   -0.189477   0.139896
     5  O   -0.200095   0.120933
     6  N    0.186222   0.054151
     7  N   -0.660725  -0.004209
     8  N   -1.120734  -0.195846
     9  N    1.080359   0.183699
    10  N   -0.119975   0.246574
    11  H   -0.279037   0.409967
    12  H    0.269522  -0.041359
    13  H    0.121794   0.032791
    14  H   -0.395192   0.611777
    15  H    0.215311   0.031511
    16  H    0.183542   0.000068
 Sum of Mulliken charges =  -1.00000   1.00000

 Dipole moment (field-independent basis, Debye):
    X=              3.4156    Y=              4.1382    Z=              0.3473  Tot=              5.3769
 Quadrupole moment (field-independent basis, Debye-Ang):
   XX=           -100.1716   YY=            -78.2786   ZZ=            -69.8033
   XY=              3.5008   XZ=             -0.5958   YZ=              3.3674

 Summary of Natural Population Analysis:

                                       Natural Population
                Natural  -----------------------------------------------
    Atom  No    Charge         Core      Valence    Rydberg      Total
 -----------------------------------------------------------------------
      C    1   -0.10235      0.99959     2.08736    0.01540     3.10235
      C    2   -0.13485      0.99957     2.12367    0.01161     3.13485
      N    3    0.31554      0.99978     2.15606    0.02862     3.18446
      O    4   -0.19486      0.99989     3.18691    0.00805     4.19486
      O    5   -0.20539      0.99989     3.19719    0.00831     4.20539
      N    6   -0.10221      0.99974     2.58560    0.01688     3.60221
      N    7   -0.32968      0.99976     2.81746    0.01246     3.82968
      N    8   -0.13263      0.99971     2.61751    0.01541     3.63263
      N    9    0.13318      0.99972     2.35118    0.01592     3.36682
      N   10   -0.00610      0.99982     2.49312    0.01317     3.50610
      H   11    0.09474      0.00000     0.40317    0.00209     0.40526
      H   12    0.11628      0.00000     0.38203    0.00170     0.38372
      H   13    0.09873      0.00000     0.39965    0.00161     0.40127
      H   14    0.11287      0.00000     0.38265    0.00449     0.38713
      H   15    0.17334      0.00000     0.32469    0.00197     0.32666
      H   16    0.16340      0.00000     0.33462    0.00198     0.33660
 =======================================================================
   * Total *   -0.00000      9.99748    27.84286    0.15966    38.00000

 Normal termination of Gaussian 16 at Tue Dec  8 13:23:58 2020.
