 Gaussian 16, Revision A.03,

 -----------------------------------------------------------
 # opt freq B3LYP/6-31G(d) empiricaldispersion=gd3bj scf=xqc
 -----------------------------------------------------------

 ------------------------------
 CID_84127132_JID_6199_neutraal
 ------------------------------
 Symbolic Z-matrix:
 Charge =  0 Multiplicity = 1

 SCF Done:  E(RB3LYP) =  -702.006612681     A.U. after   15 cycles
 SCF Done:  E(RB3LYP) =  -702.010715690     A.U. after   12 cycles
 SCF Done:  E(RB3LYP) =  -702.011558843     A.U. after   12 cycles
 SCF Done:  E(RB3LYP) =  -702.011637035     A.U. after   11 cycles
 SCF Done:  E(RB3LYP) =  -702.011752397     A.U. after   11 cycles
 SCF Done:  E(RB3LYP) =  -702.011796781     A.U. after   11 cycles
 SCF Done:  E(RB3LYP) =  -702.011848382     A.U. after   11 cycles
 SCF Done:  E(RB3LYP) =  -702.011911795     A.U. after   11 cycles
 SCF Done:  E(RB3LYP) =  -702.011989695     A.U. after   11 cycles
 SCF Done:  E(RB3LYP) =  -702.011998139     A.U. after   10 cycles
 SCF Done:  E(RB3LYP) =  -702.012002372     A.U. after    8 cycles
 SCF Done:  E(RB3LYP) =  -702.012002411     A.U. after    7 cycles
 SCF Done:  E(RB3LYP) =  -702.012002434     A.U. after    6 cycles
 SCF Done:  E(RB3LYP) =  -702.012002453     A.U. after    6 cycles
 SCF Done:  E(RB3LYP) =  -702.012002467     A.U. after    6 cycles
 SCF Done:  E(RB3LYP) =  -702.012002479     A.U. after    6 cycles
 Optimization completed.
    -- Stationary point found.
 Normal termination of Gaussian 16 at Thu Dec 10 21:22:50 2020.

 --------------------------------------------------------------------
 #N Geom=AllCheck Guess=TCheck SCRF=Check GenChk RB3LYP/6-31G(d) Freq
 --------------------------------------------------------------------

 Structure from the checkpoint file:  "JID_6199.chk"
 ------------------------------
 CID_84127132_JID_6199_neutraal
 ------------------------------
 Charge =  0 Multiplicity = 1

 SCF Done:  E(RB3LYP) =  -702.012002479     A.U. after    1 cycles

  Exact polarizability: 228.618   2.249 146.514  10.409  -2.320  77.244
 Approx polarizability: 306.652   5.841 250.060  18.771  -6.079 120.507

                      1                      2                      3
                      A                      A                      A
 Frequencies --     16.4587                40.8262                49.0501
 Red. masses --      4.3704                 3.8247                 2.8107
 Frc consts  --      0.0007                 0.0038                 0.0040
 IR Inten    --      0.2798                 1.9567                 0.4603

                      4                      5                      6
                      A                      A                      A
 Frequencies --     85.2308               102.6060               113.0371
 Red. masses --      4.3411                 3.3519                 1.1393
 Frc consts  --      0.0186                 0.0208                 0.0086
 IR Inten    --      2.4870                 0.4455                 0.1974

                      7                      8                      9
                      A                      A                      A
 Frequencies --    128.5936               163.9801               211.4978
 Red. masses --      3.2827                 1.8930                 3.7892
 Frc consts  --      0.0320                 0.0300                 0.0999
 IR Inten    --      0.6932                 1.3151                 3.6477

                     10                     11                     12
                      A                      A                      A
 Frequencies --    225.1022               249.6546               291.1936
 Red. masses --      2.0958                 3.6323                 2.4203
 Frc consts  --      0.0626                 0.1334                 0.1209
 IR Inten    --      3.7786                 0.5979                 1.9135

                     13                     14                     15
                      A                      A                      A
 Frequencies --    328.7364               356.2514               361.7603
 Red. masses --      3.6851                 2.7541                 4.5441
 Frc consts  --      0.2346                 0.2059                 0.3504
 IR Inten    --      0.8905                 3.2078                 3.8224

                     16                     17                     18
                      A                      A                      A
 Frequencies --    415.7687               425.0450               501.6018
 Red. masses --      3.4852                 2.6306                 2.7950
 Frc consts  --      0.3550                 0.2800                 0.4143
 IR Inten    --      3.8383                 0.3749                 2.6866

                     19                     20                     21
                      A                      A                      A
 Frequencies --    519.9850               552.7953               629.6013
 Red. masses --      3.5862                 3.8761                 3.9009
 Frc consts  --      0.5713                 0.6979                 0.9111
 IR Inten    --      2.8584                 1.9079                 1.9849

                     22                     23                     24
                      A                      A                      A
 Frequencies --    641.4249               708.7487               715.9716
 Red. masses --      6.3079                 6.0707                 6.1625
 Frc consts  --      1.5291                 1.7967                 1.8612
 IR Inten    --      4.7785                 9.6699                19.4034

                     25                     26                     27
                      A                      A                      A
 Frequencies --    761.1403               769.2953               785.3598
 Red. masses --      1.8880                 5.0979                 2.8312
 Frc consts  --      0.6444                 1.7776                 1.0289
 IR Inten    --     12.1522                13.0570                37.2354

                     28                     29                     30
                      A                      A                      A
 Frequencies --    813.9100               818.7871               854.6726
 Red. masses --      2.3852                 2.3478                 1.8164
 Frc consts  --      0.9309                 0.9274                 0.7818
 IR Inten    --     30.7553                92.3108                33.5025

                     31                     32                     33
                      A                      A                      A
 Frequencies --    923.7493               940.5164               980.1902
 Red. masses --      1.3248                 2.5688                 1.4033
 Frc consts  --      0.6660                 1.3388                 0.7944
 IR Inten    --      0.9924                21.4796                 0.3189

                     34                     35                     36
                      A                      A                      A
 Frequencies --   1001.9614              1015.9271              1016.7270
 Red. masses --      1.7901                 1.2932                 7.0652
 Frc consts  --      1.0588                 0.7864                 4.3031
 IR Inten    --      7.4378                 0.1636                 3.3073

                     37                     38                     39
                      A                      A                      A
 Frequencies --   1039.5031              1048.7939              1071.7969
 Red. masses --      1.7874                 3.7294                 2.5429
 Frc consts  --      1.1379                 2.4169                 1.7211
 IR Inten    --     20.5684                35.8391                 3.2301

                     40                     41                     42
                      A                      A                      A
 Frequencies --   1079.1527              1103.2038              1126.0844
 Red. masses --      5.7558                 2.1640                 1.5876
 Frc consts  --      3.9493                 1.5517                 1.1861
 IR Inten    --      3.1327                10.6407                10.1017

                     43                     44                     45
                      A                      A                      A
 Frequencies --   1139.8039              1160.5716              1173.6912
 Red. masses --      2.0152                 1.2987                 1.3868
 Frc consts  --      1.5425                 1.0306                 1.1256
 IR Inten    --     11.1774                 0.0277                20.1358

                     46                     47                     48
                      A                      A                      A
 Frequencies --   1185.2103              1195.3014              1231.4805
 Red. masses --      1.1207                 1.7119                 1.6574
 Frc consts  --      0.9276                 1.4411                 1.4809
 IR Inten    --      2.3527                 9.3972                21.9260

                     49                     50                     51
                      A                      A                      A
 Frequencies --   1287.6981              1317.4453              1321.3295
 Red. masses --      3.5044                 3.7676                 1.7072
 Frc consts  --      3.4237                 3.8529                 1.7561
 IR Inten    --      8.1792                12.9517                 3.3885

                     52                     53                     54
                      A                      A                      A
 Frequencies --   1324.0684              1326.9209              1365.4939
 Red. masses --      1.6648                 5.0780                 1.4232
 Frc consts  --      1.7196                 5.2678                 1.5634
 IR Inten    --      4.6918                 2.9176                52.8022

                     55                     56                     57
                      A                      A                      A
 Frequencies --   1391.0031              1406.0383              1449.2699
 Red. masses --      1.6183                 2.1707                 2.2533
 Frc consts  --      1.8449                 2.5284                 2.7884
 IR Inten    --     30.8280                14.2616                13.4431

                     58                     59                     60
                      A                      A                      A
 Frequencies --   1473.5596              1476.2340              1486.1338
 Red. masses --      1.5049                 1.2914                 1.8554
 Frc consts  --      1.9252                 1.6581                 2.4144
 IR Inten    --      9.9942                 1.1040                14.2055

                     61                     62                     63
                      A                      A                      A
 Frequencies --   1502.1279              1505.5581              1506.6709
 Red. masses --      1.4759                 1.4291                 1.0429
 Frc consts  --      1.9621                 1.9086                 1.3948
 IR Inten    --     22.9994                 9.2145                 7.9657

                     64                     65                     66
                      A                      A                      A
 Frequencies --   1513.0038              1521.3975              1524.4729
 Red. masses --      1.3209                 1.0899                 1.2381
 Frc consts  --      1.7816                 1.4863                 1.6953
 IR Inten    --      2.2101                14.6805                37.6247

                     67                     68                     69
                      A                      A                      A
 Frequencies --   1528.8859              1536.9664              1556.6240
 Red. masses --      2.6184                 1.3494                 1.0862
 Frc consts  --      3.6061                 1.8781                 1.5507
 IR Inten    --    100.3530                15.8527                 9.4057

                     70                     71                     72
                      A                      A                      A
 Frequencies --   1573.8416              1628.7597              1650.3034
 Red. masses --      5.7977                 6.0293                 5.4456
 Frc consts  --      8.4611                 9.4239                 8.7383
 IR Inten    --      8.7424                 9.3215                63.0487

                     73                     74                     75
                      A                      A                      A
 Frequencies --   2976.6729              3042.6372              3065.7209
 Red. masses --      1.0564                 1.0596                 1.0677
 Frc consts  --      5.5148                 5.7798                 5.9126
 IR Inten    --     68.5967                49.6556                13.1087

                     76                     77                     78
                      A                      A                      A
 Frequencies --   3069.7885              3087.7211              3095.3119
 Red. masses --      1.0771                 1.0999                 1.0308
 Frc consts  --      5.9800                 6.1786                 5.8190
 IR Inten    --     65.9528                54.1426                19.3660

                     79                     80                     81
                      A                      A                      A
 Frequencies --   3113.5463              3117.9278              3170.4373
 Red. masses --      1.1021                 1.1019                 1.1057
 Frc consts  --      6.2951                 6.3115                 6.5484
 IR Inten    --     36.6846                14.3361                 7.9979

                     82                     83                     84
                      A                      A                      A
 Frequencies --   3175.6344              3193.0514              3200.2584
 Red. masses --      1.0894                 1.1071                 1.0892
 Frc consts  --      6.4726                 6.6506                 6.5722
 IR Inten    --     25.6418                 7.3832                11.3910

                     85                     86                     87
                      A                      A                      A
 Frequencies --   3219.3067              3243.3363              3490.8884
 Red. masses --      1.0960                 1.0937                 1.0730
 Frc consts  --      6.6924                 6.7786                 7.7042
 IR Inten    --     20.8522                 0.8066                 5.8950

 - Thermochemistry -
 -------------------
 Temperature   298.150 Kelvin.  Pressure   1.00000 Atm.
 Atom     1 has atomic number  6 and mass  12.00000

 Molecular mass:   217.13275 amu.
 Principal axes and moments of inertia in atomic units:
                           1         2         3
     Eigenvalues --  1204.333337219.000228134.82596
           X            1.00000  -0.00065   0.00247
           Y            0.00065   1.00000   0.00021
           Z           -0.00247  -0.00021   1.00000
 This molecule is an asymmetric top.
 Rotational symmetry number  1.
 Warning -- assumption of classical behavior for rotation
           may cause significant error
 Rotational temperatures (Kelvin)      0.07192     0.01200     0.01065
 Rotational constants (GHZ):           1.49854     0.25000     0.22185
 Zero-point vibrational energy     684908.7 (Joules/Mol)
                                  163.69712 (Kcal/Mol)
 Warning -- explicit consideration of  20 degrees of freedom as
           vibrations may cause significant error
 Vibrational temperatures:     23.68    58.74    70.57   122.63   147.63
          (Kelvin)            162.64   185.02   235.93   304.30   323.87
                              359.20   418.96   472.98   512.57   520.49
                              598.20   611.54   721.69   748.14   795.35
                              905.86   922.87  1019.73  1030.12  1095.11
                             1106.84  1129.96  1171.03  1178.05  1229.68
                             1329.07  1353.19  1410.28  1441.60  1461.69
                             1462.84  1495.61  1508.98  1542.08  1552.66
                             1587.26  1620.18  1639.92  1669.80  1688.68
                             1705.25  1719.77  1771.83  1852.71  1895.51
                             1901.10  1905.04  1909.14  1964.64  2001.34
                             2022.98  2085.18  2120.12  2123.97  2138.22
                             2161.23  2166.16  2167.76  2176.88  2188.95
                             2193.38  2199.73  2211.35  2239.63  2264.41
                             2343.42  2374.42  4282.77  4377.68  4410.89
                             4416.74  4442.54  4453.46  4479.70  4486.00
                             4561.55  4569.03  4594.09  4604.46  4631.86
                             4666.44  5022.61

 Zero-point correction=                           0.260868 (Hartree/Particle)
 Thermal correction to Energy=                    0.275708
 Thermal correction to Enthalpy=                  0.276653
 Thermal correction to Gibbs Free Energy=         0.216723
 Sum of electronic and zero-point Energies=           -701.751135
 Sum of electronic and thermal Energies=              -701.736294
 Sum of electronic and thermal Enthalpies=            -701.735350
 Sum of electronic and thermal Free Energies=         -701.795279

                     E (Thermal)             CV                S
                      KCal/Mol        Cal/Mol-Kelvin    Cal/Mol-Kelvin
 Total                  173.010             54.911            126.132
 Electronic               0.000              0.000              0.000
 Translational            0.889              2.981             42.029
 Rotational               0.889              2.981             32.625
 Vibrational            171.232             48.949             51.477
 Vibration     1          0.593              1.986              7.021
 Vibration     2          0.594              1.981              5.219
 Vibration     3          0.595              1.978              4.855
 Vibration     4          0.601              1.959              3.767
 Vibration     5          0.605              1.947              3.404
 Vibration     6          0.607              1.939              3.216
 Vibration     7          0.611              1.925              2.967
 Vibration     8          0.623              1.887              2.503
 Vibration     9          0.643              1.823              2.031
 Vibration    10          0.650              1.803              1.918
 Vibration    11          0.662              1.763              1.733
 Vibration    12          0.687              1.690              1.467
 Vibration    13          0.712              1.618              1.266
 Vibration    14          0.732              1.562              1.138
 Vibration    15          0.736              1.551              1.115
 Vibration    16          0.779              1.436              0.906
 Vibration    17          0.787              1.416              0.875
 Vibration    18          0.857              1.246              0.654
 Vibration    19          0.875              1.206              0.610
 Vibration    20          0.908              1.134              0.538

                           ! Non-Optimized Parameters !
 Normal termination of Gaussian 16 at Thu Dec 10 21:32:47 2020.

 ----------------------------------------------------------------------
 # B3LYP/6-311++G(d,p) empiricaldispersion=gd3bj scf=xqc pop=npa geom=c
 heck
 ----------------------------------------------------------------------

 --------------------------------------
 CID_84127132_JID_6199_Energie_neutraal
 --------------------------------------
 Structure from the checkpoint file:  "JID_6199.chk"
 Charge =  0 Multiplicity = 1

 SCF Done:  E(RB3LYP) =  -702.197044235     A.U. after   16 cycles
 Normal termination of Gaussian 16 at Thu Dec 10 21:37:58 2020.

 ----------------------------------------------------------------------
 # B3LYP/6-311++G(d,p) empiricaldispersion=gd3bj scf=xqc pop=npa geom=c
 heck
 ----------------------------------------------------------------------

 ------------------------------------
 CID_84127132_JID_6199_Energie_kation
 ------------------------------------
 Structure from the checkpoint file:  "JID_6199.chk"
 Charge =  1 Multiplicity = 2

 SCF Done:  E(UB3LYP) =  -701.909633691     A.U. after   24 cycles
 Normal termination of Gaussian 16 at Thu Dec 10 21:49:00 2020.
 Gaussian 16:  ES64L-G16RevA.03 25-Dec-2016

 ----------------------------------------------------------------------
 # B3LYP/6-311++G(d,p) empiricaldispersion=gd3bj scf=xqc pop=npa geom=c
 heck
 ----------------------------------------------------------------------

 -----------------------------------
 CID_84127132_JID_6199_Energie_anion
 -----------------------------------
 Structure from the checkpoint file:  "JID_6199.chk"
 Charge = -1 Multiplicity = 2

                         Standard orientation:
 ---------------------------------------------------------------------
 Center     Atomic      Atomic             Coordinates (Angstroms)
 Number     Number       Type             X           Y           Z
 ---------------------------------------------------------------------
      1          6           0        4.991926    0.650562    0.099702
      2          7           0        4.117097    0.122436   -0.940995
      3          6           0        3.601394   -1.211560   -0.665404
      4          6           0        2.676943   -1.355743    0.574194
      5          6           0        1.422226   -0.555344    0.444109
      6          7           0        1.427346    0.779243    0.374972
      7          7           0        0.113953    1.091309    0.212769
      8          6           0       -0.622605   -0.050358    0.189232
      9          7           0        0.184210   -1.104283    0.331077
     10          6           0       -2.076813   -0.142037    0.034692
     11          6           0       -2.681502   -1.408691    0.036613
     12          6           0       -4.060571   -1.483398   -0.112315
     13          6           0       -4.791117   -0.302443   -0.257357
     14          6           0       -4.097865    0.907024   -0.246207
     15          7           0       -2.772012    1.000094   -0.104528
     16          6           0       -0.274631    2.490315    0.104550
     17          1           0        5.855450   -0.015299    0.218034
     18          1           0        4.518684    0.772465    1.089544
     19          1           0        5.367866    1.630737   -0.212133
     20          1           0        3.325969    0.756099   -1.047341
     21          1           0        3.050931   -1.551967   -1.551014
     22          1           0        4.456785   -1.887695   -0.539611
     23          1           0        2.396204   -2.405633    0.702059
     24          1           0        3.221605   -1.049759    1.474676
     25          1           0       -2.060774   -2.288976    0.153239
     26          1           0       -4.560103   -2.447898   -0.115369
     27          1           0       -5.869785   -0.315673   -0.376262
     28          1           0       -4.630605    1.849631   -0.356443
     29          1           0        0.644263    3.070761    0.185450
     30          1           0       -0.765794    2.676381   -0.851719
     31          1           0       -0.969168    2.755274    0.902978
 ---------------------------------------------------------------------

 SCF Done:  E(UB3LYP) =  -702.203146590     A.U. after   28 cycles

 The electronic state is 2-A.
 Alpha  occ. eigenvalues --  -14.23445 -14.18719 -14.18094 -14.14477 -14.13872
 Alpha  occ. eigenvalues --  -10.08729 -10.08675 -10.07813 -10.07643 -10.07520
 Alpha  occ. eigenvalues --  -10.05706 -10.05538 -10.04073 -10.02903 -10.02330
 Alpha  occ. eigenvalues --  -10.01476  -0.92377  -0.79747  -0.78686  -0.75528
 Alpha  occ. eigenvalues --   -0.69753  -0.64838  -0.64231  -0.61258  -0.58498
 Alpha  occ. eigenvalues --   -0.56118  -0.50883  -0.49453  -0.47878  -0.44702
 Alpha  occ. eigenvalues --   -0.42500  -0.39105  -0.38267  -0.36010  -0.34606
 Alpha  occ. eigenvalues --   -0.34266  -0.32881  -0.32457  -0.31192  -0.30568
 Alpha  occ. eigenvalues --   -0.29197  -0.28762  -0.27545  -0.27097  -0.26422
 Alpha  occ. eigenvalues --   -0.25410  -0.25014  -0.24528  -0.23735  -0.21690
 Alpha  occ. eigenvalues --   -0.18755  -0.15971  -0.14455  -0.13472  -0.13197
 Alpha  occ. eigenvalues --   -0.11673  -0.10675  -0.09210   0.05232
 Alpha virt. eigenvalues --    0.07248   0.08857   0.09036   0.09768   0.10179
 Alpha virt. eigenvalues --    0.10470   0.11437   0.11859   0.12002   0.12543
 Alpha virt. eigenvalues --    0.12784   0.13494   0.13641   0.14439   0.15182

  Beta  occ. eigenvalues --  -14.23109 -14.18714 -14.17891 -14.14328 -14.13466
  Beta  occ. eigenvalues --  -10.08734 -10.08673 -10.07888 -10.07661 -10.07426
  Beta  occ. eigenvalues --  -10.05702 -10.05646 -10.03747 -10.02772 -10.02342
  Beta  occ. eigenvalues --  -10.01148  -0.91993  -0.79732  -0.78027  -0.75182
  Beta  occ. eigenvalues --   -0.69416  -0.64424  -0.64044  -0.60790  -0.58444
  Beta  occ. eigenvalues --   -0.56008  -0.50774  -0.48773  -0.47783  -0.44496
  Beta  occ. eigenvalues --   -0.42305  -0.39057  -0.38119  -0.35923  -0.34149
  Beta  occ. eigenvalues --   -0.33867  -0.32790  -0.32194  -0.31027  -0.30516
  Beta  occ. eigenvalues --   -0.29174  -0.28691  -0.27490  -0.26842  -0.26040
  Beta  occ. eigenvalues --   -0.25209  -0.24690  -0.23807  -0.23429  -0.21487
  Beta  occ. eigenvalues --   -0.18457  -0.14416  -0.13152  -0.12917  -0.12516
  Beta  occ. eigenvalues --   -0.11337  -0.10206  -0.07780
  Beta virt. eigenvalues --    0.07187   0.08812   0.08964   0.09711   0.10077
  Beta virt. eigenvalues --    0.10412   0.11248   0.11390   0.11925   0.12231
  Beta virt. eigenvalues --    0.12481   0.12872   0.13459   0.13596   0.14371

 Mulliken charges and spin densities:
               1          2
     1  C   -0.421766  -0.035681
     2  N   -0.130053  -0.003357
     3  C   -0.382786  -0.016981
     4  C   -0.094977   0.016461
     5  C   -0.023635  -0.039226
     6  N    0.009125   0.118659
     7  N   -0.139246   0.088902
     8  C   -0.304767   0.028161
     9  N   -0.042385   0.074276
    10  C   -0.318940   0.192857
    11  C    0.146532   0.011863
    12  C   -0.645559   0.112150
    13  C   -0.229973   0.284620
    14  C   -0.141456  -0.075507
    15  N   -0.121885   0.180564
    16  C   -0.285845  -0.007990
    17  H    0.110004   0.023064
    18  H    0.119237   0.012909
    19  H    0.115233   0.005762
    20  H    0.258662   0.003427
    21  H    0.150587   0.006674
    22  H    0.123425   0.004120
    23  H    0.157326   0.000393
    24  H    0.122950   0.020023
    25  H    0.178576   0.001231
    26  H    0.117490  -0.009488
    27  H    0.107641  -0.021052
    28  H    0.115673   0.005290
    29  H    0.123236  -0.000119
    30  H    0.166175   0.007605
    31  H    0.161401   0.010389
 Sum of Mulliken charges =  -1.00000   1.00000

 Dipole moment (field-independent basis, Debye):
    X=              4.0963    Y=              0.8358    Z=              0.4548  Tot=              4.2054
 Quadrupole moment (field-independent basis, Debye-Ang):
   XX=           -151.9352   YY=           -105.3642   ZZ=           -108.3368
   XY=             -3.0378   XZ=              4.0385   YZ=             -0.4688

 Summary of Natural Population Analysis:

                                       Natural Population
                Natural  -----------------------------------------------
    Atom  No    Charge         Core      Valence    Rydberg      Total
 -----------------------------------------------------------------------
      C    1   -0.18012      0.99967     2.17318    0.00727     3.18012
      N    2   -0.34847      0.99976     2.83490    0.01381     3.84847
      C    3   -0.08049      0.99964     2.07093    0.00992     3.08049
      C    4   -0.21571      0.99959     2.20898    0.00715     3.21571
      C    5    0.14372      0.99966     1.83710    0.01952     2.85628
      N    6   -0.16819      0.99969     2.65680    0.01170     3.66819
      N    7   -0.07020      0.99961     2.55540    0.01518     3.57020
      C    8    0.20254      0.99957     1.78292    0.01497     2.79746
      N    9   -0.25708      0.99968     2.74828    0.00911     3.75708
      C   10    0.12383      0.99942     1.86315    0.01360     2.87617
      C   11   -0.10709      0.99947     2.09785    0.00977     3.10709
      C   12   -0.06765      0.99944     2.05819    0.01002     3.06765
      C   13   -0.08810      0.99962     2.07602    0.01246     3.08810
      C   14    0.00544      0.99949     1.98029    0.01478     2.99456
      N   15   -0.19802      0.99970     2.68502    0.01330     3.69802
      C   16   -0.17388      0.99966     2.16750    0.00673     3.17388
      H   17    0.08338      0.00000     0.41526    0.00136     0.41662
      H   18    0.08135      0.00000     0.41603    0.00262     0.41865
      H   19    0.08999      0.00000     0.40915    0.00086     0.41001
      H   20    0.18651      0.00000     0.31126    0.00224     0.31349
      H   21    0.09412      0.00000     0.40486    0.00101     0.40588
      H   22    0.08234      0.00000     0.41647    0.00118     0.41766
      H   23    0.10697      0.00000     0.39185    0.00118     0.39303
      H   24    0.09653      0.00000     0.40167    0.00181     0.40347
      H   25    0.10782      0.00000     0.39141    0.00076     0.39218
      H   26    0.08684      0.00000     0.41153    0.00162     0.41316
      H   27    0.08690      0.00000     0.41183    0.00127     0.41310
      H   28    0.07624      0.00000     0.42214    0.00162     0.42376
      H   29    0.09487      0.00000     0.40419    0.00094     0.40513
      H   30    0.10255      0.00000     0.39639    0.00105     0.39745
      H   31    0.10310      0.00000     0.39586    0.00104     0.39690
 =======================================================================
   * Total *    0.00004     15.99366    41.79643    0.20987    57.99996

 Normal termination of Gaussian 16 at Thu Dec 10 22:01:48 2020.
