 Gaussian 16, Revision A.03,

 -----------------------------------------------------------
 # opt freq B3LYP/6-31G(d) empiricaldispersion=gd3bj scf=xqc
 -----------------------------------------------------------

 -------------------------------
 CID_140087018_JID_3373_neutraal
 -------------------------------
 Symbolic Z-matrix:
 Charge =  0 Multiplicity = 1

 SCF Done:  E(RB3LYP) =  -596.506132829     A.U. after   14 cycles
 SCF Done:  E(RB3LYP) =  -596.509122255     A.U. after   12 cycles
 SCF Done:  E(RB3LYP) =  -596.507832693     A.U. after   13 cycles
 SCF Done:  E(RB3LYP) =  -596.509286637     A.U. after   12 cycles
 SCF Done:  E(RB3LYP) =  -596.509810691     A.U. after   12 cycles
 SCF Done:  E(RB3LYP) =  -596.509811360     A.U. after   12 cycles
 SCF Done:  E(RB3LYP) =  -596.509860167     A.U. after   11 cycles
 SCF Done:  E(RB3LYP) =  -596.509893663     A.U. after   10 cycles
 SCF Done:  E(RB3LYP) =  -596.509896461     A.U. after    9 cycles
 SCF Done:  E(RB3LYP) =  -596.509897740     A.U. after    9 cycles
 SCF Done:  E(RB3LYP) =  -596.509898038     A.U. after    8 cycles
 SCF Done:  E(RB3LYP) =  -596.509898137     A.U. after    7 cycles
 SCF Done:  E(RB3LYP) =  -596.509898179     A.U. after    7 cycles
 SCF Done:  E(RB3LYP) =  -596.509898196     A.U. after    7 cycles
 Optimization completed.
    -- Stationary point found.
 Normal termination of Gaussian 16 at Wed Dec  9 23:03:55 2020.

 --------------------------------------------------------------------
 #N Geom=AllCheck Guess=TCheck SCRF=Check GenChk RB3LYP/6-31G(d) Freq
 --------------------------------------------------------------------

 Structure from the checkpoint file:  "JID_3373.chk"
 -------------------------------
 CID_140087018_JID_3373_neutraal
 -------------------------------
 Charge =  0 Multiplicity = 1

 SCF Done:  E(RB3LYP) =  -596.509898196     A.U. after    1 cycles

  Exact polarizability: 134.292  -0.611 127.143  -5.903  -5.861  90.115
 Approx polarizability: 174.602  -5.354 167.917 -10.294 -14.972 147.711

                      1                      2                      3
                      A                      A                      A
 Frequencies --     27.1138                38.9616                63.3861
 Red. masses --      4.2240                 6.5544                 3.0025
 Frc consts  --      0.0018                 0.0059                 0.0071
 IR Inten    --      0.2584                 1.1234                 0.2627

                      4                      5                      6
                      A                      A                      A
 Frequencies --     76.3980                89.5410               106.2967
 Red. masses --      3.1563                 3.2284                 3.3386
 Frc consts  --      0.0109                 0.0153                 0.0222
 IR Inten    --      0.3216                 0.6032                 0.6833

                      7                      8                      9
                      A                      A                      A
 Frequencies --    120.0696               162.9029               177.0135
 Red. masses --      2.9815                 2.9638                 3.0937
 Frc consts  --      0.0253                 0.0463                 0.0571
 IR Inten    --      0.9270                 2.5444                 0.7045

                     10                     11                     12
                      A                      A                      A
 Frequencies --    230.3859               240.4390               249.8190
 Red. masses --      2.2763                 1.3179                 2.2196
 Frc consts  --      0.0712                 0.0449                 0.0816
 IR Inten    --      0.9568                 0.3727                 0.0785

                     13                     14                     15
                      A                      A                      A
 Frequencies --    287.8138               307.3896               361.9992
 Red. masses --      2.9819                 3.1633                 2.8054
 Frc consts  --      0.1455                 0.1761                 0.2166
 IR Inten    --      3.0621                 6.6405                 0.3344

                     16                     17                     18
                      A                      A                      A
 Frequencies --    405.9342               434.6807               477.2005
 Red. masses --      2.3338                 2.2152                 2.5727
 Frc consts  --      0.2266                 0.2466                 0.3452
 IR Inten    --      0.8059                 2.6455                16.7332

                     19                     20                     21
                      A                      A                      A
 Frequencies --    527.8323               535.1332               636.6189
 Red. masses --      1.8684                 2.0803                 1.6382
 Frc consts  --      0.3067                 0.3510                 0.3912
 IR Inten    --     20.4675                 3.6382                31.9038

                     22                     23                     24
                      A                      A                      A
 Frequencies --    641.9396               656.4718               707.8215
 Red. masses --      2.1038                 1.6132                 1.8396
 Frc consts  --      0.5108                 0.4096                 0.5430
 IR Inten    --     37.1468                27.7273                38.8519

                     25                     26                     27
                      A                      A                      A
 Frequencies --    759.5307               781.1437               823.6816
 Red. masses --      2.5293                 3.7609                 2.7246
 Frc consts  --      0.8597                 1.3521                 1.0891
 IR Inten    --     85.7425                40.7331                 3.3199

                     28                     29                     30
                      A                      A                      A
 Frequencies --    884.6863               885.7961               893.9137
 Red. masses --      1.7173                 1.6755                 1.7938
 Frc consts  --      0.7919                 0.7746                 0.8445
 IR Inten    --     15.5134                 4.8645                 8.9435

                     31                     32                     33
                      A                      A                      A
 Frequencies --    934.8089               940.5641               949.4843
 Red. masses --      1.3583                 1.3548                 1.6630
 Frc consts  --      0.6994                 0.7062                 0.8833
 IR Inten    --     35.8593                36.1790                11.6920

                     34                     35                     36
                      A                      A                      A
 Frequencies --    966.3355              1005.2544              1045.2375
 Red. masses --      1.8753                 1.9169                 1.1477
 Frc consts  --      1.0317                 1.1413                 0.7388
 IR Inten    --      1.2662                 3.9191                10.3575

                     37                     38                     39
                      A                      A                      A
 Frequencies --   1047.2436              1063.1858              1068.4859
 Red. masses --      1.2348                 1.9749                 1.6484
 Frc consts  --      0.7979                 1.3152                 1.1088
 IR Inten    --      5.3456                16.1498                 4.9162

                     40                     41                     42
                      A                      A                      A
 Frequencies --   1099.5607              1116.5939              1160.7658
 Red. masses --      1.6539                 2.0689                 3.0042
 Frc consts  --      1.1781                 1.5198                 2.3849
 IR Inten    --     31.5302                 2.9049               180.3143

                     43                     44                     45
                      A                      A                      A
 Frequencies --   1169.4379              1182.0591              1217.1867
 Red. masses --      2.2696                 2.3119                 2.1336
 Frc consts  --      1.8288                 1.9032                 1.8624
 IR Inten    --    135.3734                34.7566                 5.1595

                     46                     47                     48
                      A                      A                      A
 Frequencies --   1243.1721              1276.7764              1296.7218
 Red. masses --      1.3952                 1.3217                 1.3305
 Frc consts  --      1.2705                 1.2695                 1.3182
 IR Inten    --      4.9951                 2.7288                 3.9793

                     49                     50                     51
                      A                      A                      A
 Frequencies --   1311.4199              1322.0363              1340.2567
 Red. masses --      1.3610                 1.2905                 1.2307
 Frc consts  --      1.3791                 1.3289                 1.3025
 IR Inten    --      3.1106                 3.0872                 1.7833

                     52                     53                     54
                      A                      A                      A
 Frequencies --   1345.0751              1360.5573              1389.5856
 Red. masses --      1.2774                 1.4156                 1.7307
 Frc consts  --      1.3617                 1.5440                 1.9690
 IR Inten    --     11.8583                 5.6504                16.9750

                     55                     56                     57
                      A                      A                      A
 Frequencies --   1399.6868              1419.7431              1436.3369
 Red. masses --      1.4099                 1.2413                 1.4089
 Frc consts  --      1.6274                 1.4742                 1.7126
 IR Inten    --      5.6512                 9.5186                18.9212

                     58                     59                     60
                      A                      A                      A
 Frequencies --   1474.7172              1477.9557              1499.8020
 Red. masses --      1.1776                 1.1869                 1.1484
 Frc consts  --      1.5089                 1.5275                 1.5220
 IR Inten    --      1.4051                 2.0129                21.8970

                     61                     62                     63
                      A                      A                      A
 Frequencies --   1514.2833              1518.6457              1521.6004
 Red. masses --      1.0812                 1.1098                 1.0615
 Frc consts  --      1.4607                 1.5080                 1.4480
 IR Inten    --      7.5623                14.5972                14.5149

                     64                     65                     66
                      A                      A                      A
 Frequencies --   1540.2641              1731.1599              1733.9609
 Red. masses --      1.1828                 4.4001                 4.5507
 Frc consts  --      1.6532                 7.7695                 8.0613
 IR Inten    --     17.7925                 2.9606                 8.1331

                     67                     68                     69
                      A                      A                      A
 Frequencies --   1832.5412              3021.9135              3027.7064
 Red. masses --      9.4927                 1.0664                 1.0644
 Frc consts  --     18.7822                 5.7377                 5.7491
 IR Inten    --    226.0856                14.7610                12.6028

                     70                     71                     72
                      A                      A                      A
 Frequencies --   3042.5952              3059.3344              3068.5042
 Red. masses --      1.0810                 1.0347                 1.0996
 Frc consts  --      5.8958                 5.7056                 6.1001
 IR Inten    --     50.6488                21.0339                17.3307

                     73                     74                     75
                      A                      A                      A
 Frequencies --   3081.3836              3093.4707              3131.2164
 Red. masses --      1.0963                 1.0856                 1.1026
 Frc consts  --      6.1330                 6.1208                 6.3692
 IR Inten    --     36.0512                 8.1615                26.5833

                     76                     77                     78
                      A                      A                      A
 Frequencies --   3150.4709              3151.6065              3151.6738
 Red. masses --      1.0594                 1.0973                 1.0646
 Frc consts  --      6.1952                 6.4218                 6.2303
 IR Inten    --     15.5372                11.8917                15.0403

                     79                     80                     81
                      A                      A                      A
 Frequencies --   3176.2316              3177.1119              3230.9543
 Red. masses --      1.0911                 1.0912                 1.1148
 Frc consts  --      6.4853                 6.4895                 6.8566
 IR Inten    --      1.6081                 6.5760                25.3020

                     82                     83                     84
                      A                      A                      A
 Frequencies --   3232.7994              3493.1631              3665.8912
 Red. masses --      1.1150                 1.0729                 1.0639
 Frc consts  --      6.8658                 7.7132                 8.4238
 IR Inten    --     20.1897                 2.4891                39.1402

 - Thermochemistry -
 -------------------
 Temperature   298.150 Kelvin.  Pressure   1.00000 Atm.
 Atom     1 has atomic number  6 and mass  12.00000

 Molecular mass:   183.12593 amu.
 Principal axes and moments of inertia in atomic units:
                           1         2         3
     Eigenvalues --  1931.215133398.225914801.40836
           X            0.99986  -0.01659  -0.00365
           Y            0.01661   0.99984   0.00611
           Z            0.00355  -0.00617   0.99997
 This molecule is an asymmetric top.
 Rotational symmetry number  1.
 Warning -- assumption of classical behavior for rotation
           may cause significant error
 Rotational temperatures (Kelvin)      0.04485     0.02549     0.01804
 Rotational constants (GHZ):           0.93451     0.53108     0.37588
 Zero-point vibrational energy     684864.7 (Joules/Mol)
                                  163.68660 (Kcal/Mol)
 Warning -- explicit consideration of  20 degrees of freedom as
           vibrations may cause significant error
 Vibrational temperatures:     39.01    56.06    91.20   109.92   128.83
          (Kelvin)            152.94   172.75   234.38   254.68   331.47
                              345.94   359.43   414.10   442.27   520.84
                              584.05   625.41   686.59   759.43   769.94
                              915.95   923.61   944.52  1018.40  1092.80
                             1123.89  1185.09  1272.87  1274.46  1286.14
                             1344.98  1353.26  1366.10  1390.34  1446.34
                             1503.86  1506.75  1529.69  1537.31  1582.02
                             1606.53  1670.08  1682.56  1700.72  1751.26
                             1788.65  1837.00  1865.69  1886.84  1902.12
                             1928.33  1935.26  1957.54  1999.30  2013.84
                             2042.69  2066.57  2121.79  2126.45  2157.88
                             2178.72  2184.99  2189.24  2216.10  2490.75
                             2494.78  2636.62  4347.86  4356.19  4377.62
                             4401.70  4414.89  4433.42  4450.81  4505.12
                             4532.82  4534.46  4534.56  4569.89  4571.16
                             4648.62  4651.28  5025.88  5274.40

 Zero-point correction=                           0.260851 (Hartree/Particle)
 Thermal correction to Energy=                    0.275874
 Thermal correction to Enthalpy=                  0.276818
 Thermal correction to Gibbs Free Energy=         0.217380
 Sum of electronic and zero-point Energies=           -596.249047
 Sum of electronic and thermal Energies=              -596.234024
 Sum of electronic and thermal Enthalpies=            -596.233080
 Sum of electronic and thermal Free Energies=         -596.292518

                     E (Thermal)             CV                S
                      KCal/Mol        Cal/Mol-Kelvin    Cal/Mol-Kelvin
 Total                  173.114             54.380            125.098
 Electronic               0.000              0.000              0.000
 Translational            0.889              2.981             41.521
 Rotational               0.889              2.981             31.822
 Vibrational            171.336             48.418             51.755
 Vibration     1          0.593              1.984              6.030
 Vibration     2          0.594              1.981              5.311
 Vibration     3          0.597              1.972              4.349
 Vibration     4          0.599              1.965              3.981
 Vibration     5          0.602              1.957              3.670
 Vibration     6          0.605              1.944              3.335
 Vibration     7          0.609              1.933              3.099
 Vibration     8          0.623              1.888              2.516
 Vibration     9          0.628              1.871              2.360
 Vibration    10          0.652              1.795              1.876
 Vibration    11          0.658              1.779              1.800
 Vibration    12          0.663              1.763              1.732
 Vibration    13          0.685              1.696              1.487
 Vibration    14          0.697              1.660              1.376
 Vibration    15          0.736              1.551              1.114
 Vibration    16          0.771              1.457              0.941
 Vibration    17          0.795              1.395              0.843
 Vibration    18          0.834              1.301              0.718
 Vibration    19          0.883              1.188              0.592
 Vibration    20          0.890              1.172              0.576

 Optimization completed.
    -- Stationary point found.
 Normal termination of Gaussian 16 at Wed Dec  9 23:11:49 2020.

 ----------------------------------------------------------------------
 # B3LYP/6-311++G(d,p) empiricaldispersion=gd3bj scf=xqc pop=npa geom=c
 heck
 ----------------------------------------------------------------------

 ---------------------------------------
 CID_140087018_JID_3373_Energie_neutraal
 ---------------------------------------
 Structure from the checkpoint file:  "JID_3373.chk"
 Charge =  0 Multiplicity = 1

 SCF Done:  E(RB3LYP) =  -596.696361760     A.U. after   14 cycles
 Normal termination of Gaussian 16 at Wed Dec  9 23:15:18 2020.

 ----------------------------------------------------------------------
 # B3LYP/6-311++G(d,p) empiricaldispersion=gd3bj scf=xqc pop=npa geom=c
 heck
 ----------------------------------------------------------------------

 -------------------------------------
 CID_140087018_JID_3373_Energie_kation
 -------------------------------------
 Structure from the checkpoint file:  "JID_3373.chk"
 Charge =  1 Multiplicity = 2

 SCF Done:  E(UB3LYP) =  -596.396344260     A.U. after   21 cycles
 Normal termination of Gaussian 16 at Wed Dec  9 23:22:45 2020.
 Gaussian 16:  ES64L-G16RevA.03 25-Dec-2016

 ----------------------------------------------------------------------
 # B3LYP/6-311++G(d,p) empiricaldispersion=gd3bj scf=xqc pop=npa geom=c
 heck
 ----------------------------------------------------------------------

 ------------------------------------
 CID_140087018_JID_3373_Energie_anion
 ------------------------------------
 Structure from the checkpoint file:  "JID_3373.chk"
 Charge = -1 Multiplicity = 2

                         Standard orientation:
 ---------------------------------------------------------------------
 Center     Atomic      Atomic             Coordinates (Angstroms)
 Number     Number       Type             X           Y           Z
 ---------------------------------------------------------------------
      1          6           0        1.813709   -2.468757   -0.541778
      2          6           0        1.304997   -1.203875    0.171528
      3          6           0        2.373329   -0.124215    0.015465
      4          8           0        2.469738    0.613084   -0.943574
      5          8           0        3.251230   -0.102506    1.044645
      6          7           0        0.015651   -0.806514   -0.369625
      7          6           0       -0.854013   -0.018737    0.511343
      8          6           0       -0.338615    1.396978    0.892852
      9          6           0       -0.217679    2.344126   -0.267695
     10          6           0       -0.979351    3.425220   -0.441501
     11          6           0       -2.255845    0.051648   -0.122736
     12          6           0       -2.904187   -1.295950   -0.255584
     13          6           0       -4.100471   -1.613946    0.239279
     14          1           0        1.941498   -2.270388   -1.611273
     15          1           0        1.076071   -3.266133   -0.422280
     16          1           0        2.774557   -2.798148   -0.132084
     17          1           0        1.183937   -1.419023    1.237600
     18          1           0        3.916208    0.578610    0.825510
     19          1           0        0.159511   -0.324128   -1.255936
     20          1           0       -0.937207   -0.591471    1.444736
     21          1           0       -1.022624    1.816110    1.641914
     22          1           0        0.636104    1.290087    1.390444
     23          1           0        0.548795    2.105642   -1.003237
     24          1           0       -0.860002    4.077753   -1.302318
     25          1           0       -1.749634    3.703272    0.275615
     26          1           0       -2.888872    0.718451    0.475222
     27          1           0       -2.159051    0.527594   -1.109785
     28          1           0       -2.316453   -2.045237   -0.782833
     29          1           0       -4.524342   -2.607656    0.120687
     30          1           0       -4.707048   -0.889311    0.779787
 ---------------------------------------------------------------------

 SCF Done:  E(UB3LYP) =  -596.682130472     A.U. after   33 cycles
 SCF Done:  E(UB3LYP) =  -596.682130472     a.u. after    1 cycles

 The electronic state is 2-A.
 Alpha  occ. eigenvalues --  -19.06945 -19.01989 -14.20588 -10.20639 -10.11969
 Alpha  occ. eigenvalues --  -10.11038 -10.08171 -10.07768 -10.07724 -10.07346
 Alpha  occ. eigenvalues --  -10.07239 -10.07137 -10.06926  -1.01140  -0.92396
 Alpha  occ. eigenvalues --   -0.82528  -0.72006  -0.69279  -0.66916  -0.62481
 Alpha  occ. eigenvalues --   -0.58893  -0.57028  -0.51309  -0.49220  -0.46726
 Alpha  occ. eigenvalues --   -0.45654  -0.42142  -0.39734  -0.38786  -0.38146
 Alpha  occ. eigenvalues --   -0.36904  -0.35680  -0.35142  -0.33872  -0.32928
 Alpha  occ. eigenvalues --   -0.31724  -0.31119  -0.29667  -0.29059  -0.28226
 Alpha  occ. eigenvalues --   -0.26972  -0.26699  -0.25326  -0.24712  -0.23766
 Alpha  occ. eigenvalues --   -0.22654  -0.19084  -0.17829  -0.16597  -0.13579
 Alpha  occ. eigenvalues --    0.04557
 Alpha virt. eigenvalues --    0.06381   0.06986   0.07795   0.07917   0.08307
 Alpha virt. eigenvalues --    0.08782   0.08907   0.09770   0.09899   0.10080
 Alpha virt. eigenvalues --    0.11201   0.11443   0.12134   0.12471   0.12839

  Beta  occ. eigenvalues --  -19.06874 -19.01972 -14.20581 -10.20639 -10.11947
  Beta  occ. eigenvalues --  -10.11027 -10.08170 -10.07757 -10.07717 -10.07329
  Beta  occ. eigenvalues --  -10.07212 -10.07119 -10.06910  -1.01059  -0.92322
  Beta  occ. eigenvalues --   -0.82509  -0.71980  -0.69256  -0.66880  -0.62447
  Beta  occ. eigenvalues --   -0.58859  -0.56931  -0.51270  -0.49119  -0.46692
  Beta  occ. eigenvalues --   -0.45605  -0.42092  -0.39700  -0.38760  -0.38108
  Beta  occ. eigenvalues --   -0.36880  -0.35639  -0.35105  -0.33836  -0.32890
  Beta  occ. eigenvalues --   -0.31676  -0.31086  -0.29634  -0.29034  -0.28180
  Beta  occ. eigenvalues --   -0.26941  -0.26663  -0.25301  -0.24690  -0.23732
  Beta  occ. eigenvalues --   -0.22604  -0.19034  -0.17792  -0.16564  -0.13552
  Beta virt. eigenvalues --    0.06580   0.07390   0.07565   0.08017   0.08382
  Beta virt. eigenvalues --    0.08817   0.08984   0.09046   0.09969   0.10261
  Beta virt. eigenvalues --    0.10296   0.11450   0.11890   0.12407   0.12837

 Mulliken charges and spin densities:
               1          2
     1  C    0.786853  -1.307980
     2  C   -0.416727   0.113585
     3  C    0.524010  -0.736228
     4  O   -0.270930   0.043505
     5  O   -0.173184   0.123577
     6  N    0.176635   0.003348
     7  C   -0.057140  -0.208296
     8  C    0.582522  -0.837749
     9  C   -0.269490   0.469779
    10  C    0.003853  -0.686167
    11  C    0.052165  -0.758697
    12  C   -0.235220   0.816006
    13  C   -0.153784  -0.575977
    14  H    0.041796   0.099095
    15  H   -0.043026   0.208525
    16  H   -0.266559   0.415870
    17  H   -0.103857   0.346582
    18  H   -0.703069   0.999799
    19  H    0.293015  -0.051205
    20  H   -0.065102   0.257089
    21  H   -0.573090   0.781272
    22  H   -0.034274   0.230314
    23  H   -0.014163   0.222064
    24  H    0.017098   0.090497
    25  H   -0.063907   0.172672
    26  H    0.172684  -0.047543
    27  H    0.102523   0.059681
    28  H    0.001257   0.205592
    29  H   -0.032718   0.152894
    30  H   -0.278170   0.398096
 Sum of Mulliken charges =  -1.00000   1.00000

 Dipole moment (field-independent basis, Debye):
    X=             -4.5487    Y=             -0.6641    Z=             -3.8812  Tot=              6.0163
 Quadrupole moment (field-independent basis, Debye-Ang):
   XX=           -161.7128   YY=           -124.3501   ZZ=           -112.9575
   XY=             -5.6225   XZ=             -3.7079   YZ=             -2.4921

 Summary of Natural Population Analysis:

                                       Natural Population
                Natural  -----------------------------------------------
    Atom  No    Charge         Core      Valence    Rydberg      Total
 -----------------------------------------------------------------------
      C    1   -0.27998      0.99964     2.27432    0.00602     3.27998
      C    2   -0.05474      0.99955     2.04152    0.01367     3.05474
      C    3    0.40285      0.99968     1.57053    0.02694     2.59715
      O    4   -0.31651      0.99987     3.30984    0.00680     4.31651
      O    5   -0.34021      0.99988     3.33295    0.00738     4.34021
      N    6   -0.34524      0.99973     2.83402    0.01150     3.84524
      C    7    0.00164      0.99958     1.98632    0.01245     2.99836
      C    8   -0.21899      0.99959     2.20800    0.01141     3.21899
      C    9   -0.08523      0.99955     2.07442    0.01125     3.08523
      C   10   -0.19374      0.99956     2.18809    0.00609     3.19374
      C   11   -0.21204      0.99959     2.20182    0.01063     3.21204
      C   12   -0.07628      0.99956     2.06712    0.00959     3.07628
      C   13   -0.19728      0.99956     2.19131    0.00640     3.19728
      H   14    0.09958      0.00000     0.39943    0.00099     0.40042
      H   15    0.10445      0.00000     0.39439    0.00116     0.39555
      H   16    0.10439      0.00000     0.39451    0.00110     0.39561
      H   17    0.10730      0.00000     0.39043    0.00226     0.39270
      H   18    0.24699      0.00000     0.21852    0.03449     0.25301
      H   19    0.17908      0.00000     0.31817    0.00276     0.32092
      H   20    0.09500      0.00000     0.40291    0.00209     0.40500
      H   21    0.10241      0.00000     0.39597    0.00162     0.39759
      H   22    0.10783      0.00000     0.39021    0.00196     0.39217
      H   23    0.10353      0.00000     0.39505    0.00142     0.39647
      H   24    0.09102      0.00000     0.40809    0.00089     0.40898
      H   25    0.08875      0.00000     0.41004    0.00120     0.41125
      H   26    0.10108      0.00000     0.39711    0.00181     0.39892
      H   27    0.10435      0.00000     0.39435    0.00130     0.39565
      H   28    0.09933      0.00000     0.39924    0.00144     0.40067
      H   29    0.09176      0.00000     0.40721    0.00103     0.40824
      H   30    0.08891      0.00000     0.40981    0.00128     0.41109
 =======================================================================
   * Total *   -0.00000     12.99534    36.80572    0.19894    50.00000

 Normal termination of Gaussian 16 at Wed Dec  9 23:34:33 2020.
