 Gaussian 16, Revision A.03,

 -----------------------------------------------------------
 # opt freq B3LYP/6-31G(d) empiricaldispersion=gd3bj scf=xqc
 -----------------------------------------------------------

 ------------------------------
 CID_12890926_JID_1892_neutraal
 ------------------------------
 Symbolic Z-matrix:
 Charge =  0 Multiplicity = 1

 SCF Done:  E(RB3LYP) =  -465.740683040     A.U. after   12 cycles
 SCF Done:  E(RB3LYP) =  -465.743710815     A.U. after   11 cycles
 SCF Done:  E(RB3LYP) =  -465.743229821     A.U. after   11 cycles
 SCF Done:  E(RB3LYP) =  -465.744849256     A.U. after   11 cycles
 SCF Done:  E(RB3LYP) =  -465.746091009     A.U. after   11 cycles
 SCF Done:  E(RB3LYP) =  -465.746560170     A.U. after   10 cycles
 SCF Done:  E(RB3LYP) =  -465.746911178     A.U. after   10 cycles
 SCF Done:  E(RB3LYP) =  -465.747213282     A.U. after   11 cycles
 SCF Done:  E(RB3LYP) =  -465.747500645     A.U. after   11 cycles
 SCF Done:  E(RB3LYP) =  -465.747785301     A.U. after   10 cycles
 SCF Done:  E(RB3LYP) =  -465.748396051     A.U. after   10 cycles
 SCF Done:  E(RB3LYP) =  -465.748389374     A.U. after    9 cycles
 SCF Done:  E(RB3LYP) =  -465.748399583     A.U. after    9 cycles
 SCF Done:  E(RB3LYP) =  -465.748399871     A.U. after    7 cycles
 SCF Done:  E(RB3LYP) =  -465.748399186     A.U. after    7 cycles
 SCF Done:  E(RB3LYP) =  -465.748400554     A.U. after    8 cycles
 Optimization completed.
    -- Stationary point found.

 1\1\GINC-NODE125\FOpt\RB3LYP\6-31G(d)\C9H22N2\VSC10255\08-Dec-2020\0\\
 # opt freq B3LYP/6-31G(d) empiricaldispersion=gd3bj scf=xqc\\CID_12890
 926_JID_1892_neutraal\\0,1\C,1.034295345,-0.1024394192,-0.1018855144\C
 ,0.5973847755,0.6216783547,-1.3825827995\C,0.4570527492,-0.3911469713,
 -2.5401752031\C,-0.7809094488,1.2629597608,-1.1323831907\N,1.490166248
 3,1.7597065123,-1.7041025798\C,2.9677380031,1.7285898412,-1.7473928489
 \C,3.6014597941,0.5328932537,-2.4813884574\C,3.3660165179,3.0213041375
 ,-2.4825953156\C,3.5359288575,1.7834119179,-0.2980898102\N,2.816290047

 Normal termination of Gaussian 16 at Tue Dec  8 21:40:07 2020.

 --------------------------------------------------------------------
 #N Geom=AllCheck Guess=TCheck SCRF=Check GenChk RB3LYP/6-31G(d) Freq
 --------------------------------------------------------------------

 Structure from the checkpoint file:  "JID_1892.chk"
 ------------------------------
 CID_12890926_JID_1892_neutraal
 ------------------------------
 Charge =  0 Multiplicity = 1

 SCF Done:  E(RB3LYP) =  -465.748400554     A.U. after    1 cycles

  Exact polarizability: 124.308   1.108 107.577   0.621  -0.943  98.795
 Approx polarizability: 156.372   2.733 147.204  -0.126  -1.418 146.536

                      1                      2                      3
                      A                      A                      A
 Frequencies --     60.0440                68.5803               113.0025
 Red. masses --      2.8065                 2.8090                 2.5517
 Frc consts  --      0.0060                 0.0078                 0.0192
 IR Inten    --      1.7115                 0.0896                 0.8648

                      4                      5                      6
                      A                      A                      A
 Frequencies --    155.5136               194.4647               214.5102
 Red. masses --      2.3283                 1.2571                 2.7913
 Frc consts  --      0.0332                 0.0280                 0.0757
 IR Inten    --      0.9868                 1.4554                 1.0864

                      7                      8                      9
                      A                      A                      A
 Frequencies --    231.5931               254.2224               258.0123
 Red. masses --      1.1495                 1.5860                 1.4523
 Frc consts  --      0.0363                 0.0604                 0.0570
 IR Inten    --      0.3461                 0.7189                 0.4722

                     10                     11                     12
                      A                      A                      A
 Frequencies --    274.5085               290.8768               311.5029
 Red. masses --      1.4125                 1.4145                 1.6550
 Frc consts  --      0.0627                 0.0705                 0.0946
 IR Inten    --      0.1575                 0.3686                 0.2579

                     13                     14                     15
                      A                      A                      A
 Frequencies --    316.9863               326.8635               335.6140
 Red. masses --      1.5303                 1.5757                 1.2608
 Frc consts  --      0.0906                 0.0992                 0.0837
 IR Inten    --      0.5778                 0.2878                 0.2262

                     16                     17                     18
                      A                      A                      A
 Frequencies --    369.9220               378.4060               395.1509
 Red. masses --      2.4622                 2.3199                 2.2656
 Frc consts  --      0.1985                 0.1957                 0.2084
 IR Inten    --      0.4508                 1.4066                 0.5854

                     19                     20                     21
                      A                      A                      A
 Frequencies --    437.5418               456.6076               478.9922
 Red. masses --      2.0105                 1.9510                 2.1779
 Frc consts  --      0.2268                 0.2397                 0.2944
 IR Inten    --      5.8738                 2.1842                 3.7822

                     22                     23                     24
                      A                      A                      A
 Frequencies --    540.4375               562.2530               667.3687
 Red. masses --      2.2894                 2.5038                 2.5940
 Frc consts  --      0.3940                 0.4663                 0.6807
 IR Inten    --     11.3935                 1.2855                49.9253

                     25                     26                     27
                      A                      A                      A
 Frequencies --    769.1346               779.5663               846.2508
 Red. masses --      2.1409                 2.7858                 1.9470
 Frc consts  --      0.7462                 0.9975                 0.8215
 IR Inten    --     10.4540                12.7558                48.6938

                     28                     29                     30
                      A                      A                      A
 Frequencies --    894.3318               918.1936               921.2930
 Red. masses --      2.2467                 1.7233                 1.7438
 Frc consts  --      1.0587                 0.8560                 0.8721
 IR Inten    --      0.4783                 9.6305                 0.3099

                     31                     32                     33
                      A                      A                      A
 Frequencies --    936.7619               951.4907               973.0298
 Red. masses --      1.6883                 1.4793                 1.5075
 Frc consts  --      0.8729                 0.7891                 0.8409
 IR Inten    --      0.0397                 2.3607                 1.9239

                     34                     35                     36
                      A                      A                      A
 Frequencies --    976.2536              1025.4221              1039.2886
 Red. masses --      1.2090                 1.6880                 1.5716
 Frc consts  --      0.6789                 1.0458                 1.0001
 IR Inten    --      0.0900                 3.2778                 2.2334

                     37                     38                     39
                      A                      A                      A
 Frequencies --   1058.8820              1063.4316              1070.9454
 Red. masses --      1.7265                 1.3902                 1.3951
 Frc consts  --      1.1406                 0.9263                 0.9427
 IR Inten    --      7.5787                 3.0109                 0.3709

                     40                     41                     42
                      A                      A                      A
 Frequencies --   1135.4074              1171.3310              1200.7079
 Red. masses --      1.8481                 1.3961                 2.3832
 Frc consts  --      1.4037                 1.1285                 2.0244
 IR Inten    --     36.5605                24.8101                15.2548

                     43                     44                     45
                      A                      A                      A
 Frequencies --   1217.4864              1225.6558              1252.5744
 Red. masses --      2.5461                 2.4570                 2.4790
 Frc consts  --      2.2236                 2.1746                 2.2916
 IR Inten    --      6.0440                 3.4471                34.6928

                     46                     47                     48
                      A                      A                      A
 Frequencies --   1266.0835              1269.2472              1305.4767
 Red. masses --      2.5093                 2.8334                 2.4781
 Frc consts  --      2.3699                 2.6893                 2.4883
 IR Inten    --      7.3543               103.7204                 5.5279

                     49                     50                     51
                      A                      A                      A
 Frequencies --   1332.7533              1389.5871              1421.4651
 Red. masses --      1.4460                 1.2651                 1.2588
 Frc consts  --      1.5133                 1.4393                 1.4986
 IR Inten    --      2.0336                 0.7262                 1.6855

                     52                     53                     54
                      A                      A                      A
 Frequencies --   1426.1303              1431.7757              1441.1151
 Red. masses --      1.2436                 1.2477                 1.2369
 Frc consts  --      1.4902                 1.5070                 1.5134
 IR Inten    --     10.2822                10.4434                13.7328

                     55                     56                     57
                      A                      A                      A
 Frequencies --   1458.7258              1483.6082              1506.3256
 Red. masses --      1.2199                 1.1607                 1.1574
 Frc consts  --      1.5294                 1.5053                 1.5473
 IR Inten    --     12.0004                13.1447                22.0480

                     58                     59                     60
                      A                      A                      A
 Frequencies --   1508.4464              1510.4733              1511.5855
 Red. masses --      1.0684                 1.0851                 1.0646
 Frc consts  --      1.4324                 1.4586                 1.4332
 IR Inten    --      3.5378                 2.3897                 4.9771

                     61                     62                     63
                      A                      A                      A
 Frequencies --   1515.4407              1517.1422              1520.4136
 Red. masses --      1.0706                 1.0569                 1.0488
 Frc consts  --      1.4486                 1.4334                 1.4285
 IR Inten    --      4.5957                14.1957                 0.8509

                     64                     65                     66
                      A                      A                      A
 Frequencies --   1525.7981              1532.8928              1537.1318
 Red. masses --      1.0570                 1.0601                 1.0540
 Frc consts  --      1.4498                 1.4676                 1.4673
 IR Inten    --      6.2887                 7.4288                 3.7260

                     67                     68                     69
                      A                      A                      A
 Frequencies --   1545.3063              1546.8335              1549.9670
 Red. masses --      1.0608                 1.0575                 1.0513
 Frc consts  --      1.4925                 1.4908                 1.4881
 IR Inten    --      7.0766                10.0688                18.1333

                     70                     71                     72
                      A                      A                      A
 Frequencies --   1562.8264              1565.5523              2948.5013
 Red. masses --      1.0806                 1.1648                 1.0607
 Frc consts  --      1.5550                 1.6821                 5.4330
 IR Inten    --      5.9672                 7.6507               104.0049

                     73                     74                     75
                      A                      A                      A
 Frequencies --   3036.6003              3039.8589              3043.0732
 Red. masses --      1.0569                 1.0383                 1.0390
 Frc consts  --      5.7417                 5.6529                 5.6688
 IR Inten    --     21.0897                12.7177                20.8077

                     76                     77                     78
                      A                      A                      A
 Frequencies --   3045.8655              3049.8785              3058.9244
 Red. masses --      1.0392                 1.0408                 1.0605
 Frc consts  --      5.6805                 5.7038                 5.8468
 IR Inten    --     43.5925                37.9028                 5.1477

                     79                     80                     81
                      A                      A                      A
 Frequencies --   3063.7473              3065.4578              3098.6253
 Red. masses --      1.0678                 1.0846                 1.1013
 Frc consts  --      5.9052                 6.0051                 6.2300
 IR Inten    --     61.2328                60.6447                 6.6909

                     82                     83                     84
                      A                      A                      A
 Frequencies --   3107.0710              3108.2228              3109.2851
 Red. masses --      1.0993                 1.0996                 1.1017
 Frc consts  --      6.2528                 6.2588                 6.2752
 IR Inten    --     12.5696                56.8031                30.9649

                     85                     86                     87
                      A                      A                      A
 Frequencies --   3113.9961              3123.5064              3131.6010
 Red. masses --      1.0970                 1.1006                 1.1026
 Frc consts  --      6.2675                 6.3267                 6.3710
 IR Inten    --     68.0800                39.5707                35.5908

                     88                     89                     90
                      A                      A                      A
 Frequencies --   3134.2315              3138.2540              3143.2077
 Red. masses --      1.1010                 1.1028                 1.1033
 Frc consts  --      6.3722                 6.3989                 6.4223
 IR Inten    --     21.4018                26.5036                14.9889

                     91                     92                     93
                      A                      A                      A
 Frequencies --   3153.1368              3474.7904              3506.0433
 Red. masses --      1.0960                 1.0735                 1.0740
 Frc consts  --      6.4202                 7.6369                 7.7784
 IR Inten    --     31.1221                38.7946                 0.6779

 - Thermochemistry -
 -------------------
 Temperature   298.150 Kelvin.  Pressure   1.00000 Atm.
 Atom     1 has atomic number  6 and mass  12.00000

 Molecular mass:   158.17830 amu.
 Principal axes and moments of inertia in atomic units:
                           1         2         3
     Eigenvalues --  1263.710542363.148762831.68797
           X            0.99996   0.00533   0.00659
           Y           -0.00525   0.99992  -0.01169
           Z           -0.00665   0.01166   0.99991
 This molecule is an asymmetric top.
 Rotational symmetry number  1.
 Warning -- assumption of classical behavior for rotation
           may cause significant error
 Rotational temperatures (Kelvin)      0.06854     0.03665     0.03059
 Rotational constants (GHZ):           1.42813     0.76370     0.63734
 Zero-point vibrational energy     813439.1 (Joules/Mol)
                                  194.41661 (Kcal/Mol)
 Warning -- explicit consideration of  23 degrees of freedom as
           vibrations may cause significant error
 Vibrational temperatures:     86.39    98.67   162.59   223.75   279.79
          (Kelvin)            308.63   333.21   365.77   371.22   394.96
                              418.51   448.18   456.07   470.28   482.87
                              532.24   544.44   568.53   629.53   656.96
                              689.16   777.57   808.96   960.19  1106.61
                             1121.62  1217.57  1286.74  1321.08  1325.54
                             1347.79  1368.98  1399.97  1404.61  1475.35
                             1495.30  1523.50  1530.04  1540.85  1633.60
                             1685.28  1727.55  1751.69  1763.45  1802.18
                             1821.61  1826.16  1878.29  1917.53  1999.31
                             2045.17  2051.88  2060.01  2073.44  2098.78
                             2134.58  2167.27  2170.32  2173.23  2174.83
                             2180.38  2182.83  2187.54  2195.28  2205.49
                             2211.59  2223.35  2225.55  2230.06  2248.56
                             2252.48  4242.24  4368.99  4373.68  4378.30
                             4382.32  4388.09  4401.11  4408.05  4410.51
                             4458.23  4470.38  4472.04  4473.57  4480.35
                             4494.03  4505.68  4509.46  4515.25  4522.37
                             4536.66  4999.45  5044.41

 Zero-point correction=                           0.309823 (Hartree/Particle)
 Thermal correction to Energy=                    0.323879
 Thermal correction to Enthalpy=                  0.324823
 Thermal correction to Gibbs Free Energy=         0.271100
 Sum of electronic and zero-point Energies=           -465.438578
 Sum of electronic and thermal Energies=              -465.424522
 Sum of electronic and thermal Enthalpies=            -465.423578
 Sum of electronic and thermal Free Energies=         -465.477301

                     E (Thermal)             CV                S
                      KCal/Mol        Cal/Mol-Kelvin    Cal/Mol-Kelvin
 Total                  203.237             54.617            113.070
 Electronic               0.000              0.000              0.000
 Translational            0.889              2.981             41.085
 Rotational               0.889              2.981             30.515
 Vibrational            201.460             48.655             41.470
 Vibration     1          0.597              1.973              4.456
 Vibration     2          0.598              1.969              4.194
 Vibration     3          0.607              1.939              3.217
 Vibration     4          0.620              1.897              2.604
 Vibration     5          0.635              1.848              2.185
 Vibration     6          0.644              1.819              2.005
 Vibration     7          0.653              1.793              1.867
 Vibration     8          0.665              1.756              1.701
 Vibration     9          0.667              1.749              1.675
 Vibration    10          0.677              1.720              1.568
 Vibration    11          0.687              1.691              1.469
 Vibration    12          0.700              1.652              1.354
 Vibration    13          0.704              1.641              1.326
 Vibration    14          0.711              1.622              1.276
 Vibration    15          0.717              1.604              1.233
 Vibration    16          0.742              1.534              1.080
 Vibration    17          0.749              1.516              1.046
 Vibration    18          0.762              1.481              0.981
 Vibration    19          0.798              1.388              0.834
 Vibration    20          0.815              1.346              0.776
 Vibration    21          0.835              1.297              0.713
 Vibration    22          0.896              1.161              0.564
 Vibration    23          0.918              1.113              0.519

 Optimization completed.
    -- Stationary point found.

 1\1\GINC-NODE125\Freq\RB3LYP\6-31G(d)\C9H22N2\VSC10255\08-Dec-2020\0\\
 #N Geom=AllCheck Guess=TCheck SCRF=Check GenChk RB3LYP/6-31G(d) Freq\\
 CID_12890926_JID_1892_neutraal\\0,1\C,1.034295345,-0.1024394192,-0.101
 8855144\C,0.5973847755,0.6216783547,-1.3825827995\C,0.4570527492,-0.39
 11469713,-2.5401752031\C,-0.7809094488,1.2629597608,-1.1323831907\N,1.
 4901662483,1.7597065123,-1.7041025798\C,2.9677380031,1.7285898412,-1.7
 473928489\C,3.6014597941,0.5328932537,-2.4813884574\C,3.3660165179,3.0
 213041375,-2.4825953156\C,3.5359288575,1.7834119179,-0.2980898102\N,2.

 Normal termination of Gaussian 16 at Tue Dec  8 21:49:35 2020.

 ----------------------------------------------------------------------
 # B3LYP/6-311++G(d,p) empiricaldispersion=gd3bj scf=xqc pop=npa geom=c
 heck
 ----------------------------------------------------------------------

 --------------------------------------
 CID_12890926_JID_1892_Energie_neutraal
 --------------------------------------
 Structure from the checkpoint file:  "JID_1892.chk"
 Charge =  0 Multiplicity = 1

 SCF Done:  E(RB3LYP) =  -465.887605969     A.U. after   13 cycles
 Normal termination of Gaussian 16 at Tue Dec  8 21:53:52 2020.

 ----------------------------------------------------------------------
 # B3LYP/6-311++G(d,p) empiricaldispersion=gd3bj scf=xqc pop=npa geom=c
 heck
 ----------------------------------------------------------------------

 ------------------------------------
 CID_12890926_JID_1892_Energie_kation
 ------------------------------------
 Structure from the checkpoint file:  "JID_1892.chk"
 Charge =  1 Multiplicity = 2

 SCF Done:  E(UB3LYP) =  -465.602817401     A.U. after   20 cycles
 Normal termination of Gaussian 16 at Tue Dec  8 22:02:26 2020.
 Gaussian 16:  ES64L-G16RevA.03 25-Dec-2016

 -----------------------------------
 CID_12890926_JID_1892_Energie_anion
 -----------------------------------
 Structure from the checkpoint file:  "JID_1892.chk"
 Charge = -1 Multiplicity = 2

                         Standard orientation:
 ---------------------------------------------------------------------
 Center     Atomic      Atomic             Coordinates (Angstroms)
 Number     Number       Type             X           Y           Z
 ---------------------------------------------------------------------
      1          6           0       -1.404710   -1.064255   -1.299905
      2          6           0       -1.690391   -0.427608    0.067022
      3          6           0       -2.806714    0.631396   -0.066629
      4          6           0       -2.183003   -1.530337    1.023506
      5          7           0       -0.457188    0.096871    0.699219
      6          6           0        0.554691    0.963956    0.058651
      7          6           0        0.013664    2.152697   -0.756351
      8          6           0        1.396199    1.512764    1.225241
      9          6           0        1.474604    0.105789   -0.859846
     10          7           0        1.831537   -1.186726   -0.281790
     11          6           0        3.225103   -1.333853    0.110283
     12          1           0       -2.290135   -1.615926   -1.633899
     13          1           0       -0.562177   -1.759400   -1.239863
     14          1           0       -1.182091   -0.313943   -2.063946
     15          1           0       -3.738510    0.168558   -0.413028
     16          1           0       -3.010165    1.100788    0.904193
     17          1           0       -2.543235    1.419992   -0.774583
     18          1           0       -1.433497   -2.322975    1.108759
     19          1           0       -2.364301   -1.124991    2.027140
     20          1           0       -3.121515   -1.968659    0.666329
     21          1           0       -0.722589    0.511185    1.588950
     22          1           0       -0.628724    2.792738   -0.141828
     23          1           0        0.845738    2.765291   -1.124807
     24          1           0       -0.560306    1.823685   -1.626954
     25          1           0        1.813757    0.694074    1.819138
     26          1           0        2.220734    2.128482    0.853208
     27          1           0        0.783611    2.137852    1.887730
     28          1           0        0.980230   -0.039187   -1.828072
     29          1           0        2.380470    0.690511   -1.067655
     30          1           0        1.206505   -1.339772    0.508761
     31          1           0        3.605686   -0.547480    0.789063
     32          1           0        3.358407   -2.300723    0.607999
     33          1           0        3.865015   -1.334397   -0.780472
 ---------------------------------------------------------------------

 SCF Done:  E(UB3LYP) =  -465.871947055     A.U. after   27 cycles

 The electronic state is 2-A.
 Alpha  occ. eigenvalues --  -14.18686 -14.18048 -10.10507 -10.10463 -10.08206
 Alpha  occ. eigenvalues --  -10.07834 -10.05245 -10.05211 -10.05070 -10.05061
 Alpha  occ. eigenvalues --  -10.04850  -0.81443  -0.78117  -0.70051  -0.64138
 Alpha  occ. eigenvalues --   -0.59439  -0.58592  -0.58070  -0.57711  -0.52340
 Alpha  occ. eigenvalues --   -0.47441  -0.43619  -0.38548  -0.37274  -0.35871
 Alpha  occ. eigenvalues --   -0.35064  -0.34019  -0.33061  -0.31796  -0.30696
 Alpha  occ. eigenvalues --   -0.30153  -0.29342  -0.29000  -0.27954  -0.27171
 Alpha  occ. eigenvalues --   -0.26344  -0.25962  -0.25774  -0.24913  -0.24158
 Alpha  occ. eigenvalues --   -0.22770  -0.22469  -0.20964  -0.12011  -0.11174
 Alpha  occ. eigenvalues --    0.04635
 Alpha virt. eigenvalues --    0.06972   0.07641   0.08006   0.09204   0.09431
 Alpha virt. eigenvalues --    0.09553   0.09845   0.10542   0.11671   0.12072
 Alpha virt. eigenvalues --    0.12075   0.12494   0.12882   0.13411   0.14204

  Beta  occ. eigenvalues --  -14.18668 -14.18039 -10.10505 -10.10460 -10.08185
  Beta  occ. eigenvalues --  -10.07821 -10.05206 -10.05180 -10.05048 -10.05031
  Beta  occ. eigenvalues --  -10.04816  -0.81423  -0.78097  -0.70030  -0.64098
  Beta  occ. eigenvalues --   -0.59395  -0.58531  -0.58022  -0.57648  -0.52285
  Beta  occ. eigenvalues --   -0.47388  -0.43567  -0.38507  -0.37243  -0.35833
  Beta  occ. eigenvalues --   -0.35030  -0.33982  -0.33027  -0.31766  -0.30665
  Beta  occ. eigenvalues --   -0.30117  -0.29306  -0.28970  -0.27922  -0.27135
  Beta  occ. eigenvalues --   -0.26311  -0.25930  -0.25742  -0.24882  -0.24131
  Beta  occ. eigenvalues --   -0.22738  -0.22433  -0.20935  -0.11992  -0.11147
  Beta virt. eigenvalues --    0.06776   0.07614   0.08302   0.08804   0.09693
  Beta virt. eigenvalues --    0.09820   0.10028   0.10332   0.11115   0.11991
  Beta virt. eigenvalues --    0.12326   0.12523   0.12805   0.13281   0.13740

 Mulliken charges and spin densities:
               1          2
     1  C    0.605808  -1.062141
     2  C   -1.758374   1.682875
     3  C    0.667766  -1.208768
     4  C    0.720181  -1.117863
     5  N    0.184101  -0.139076
     6  C   -1.534819   1.737255
     7  C    0.451286  -0.941582
     8  C    1.192412  -1.703022
     9  C    0.246182  -1.048697
    10  N   -0.186230   0.143092
    11  C    0.190538  -0.556700
    12  H   -0.059109   0.216158
    13  H    0.053995   0.117535
    14  H   -0.018292   0.158689
    15  H   -0.115450   0.256159
    16  H   -0.394743   0.544621
    17  H   -0.080943   0.210924
    18  H   -0.098049   0.237197
    19  H   -0.399393   0.537519
    20  H   -0.046819   0.177162
    21  H    0.491423  -0.237057
    22  H   -0.139945   0.317079
    23  H   -0.155973   0.296757
    24  H   -0.101209   0.245503
    25  H   -0.222338   0.385275
    26  H   -0.099094   0.243116
    27  H   -0.558122   0.713824
    28  H    0.155085   0.014003
    29  H   -0.062507   0.195789
    30  H    0.354340  -0.074659
    31  H    0.021422   0.110109
    32  H   -0.248624   0.369802
    33  H   -0.054505   0.179120
 Sum of Mulliken charges =  -1.00000   1.00000

 Dipole moment (field-independent basis, Debye):
    X=              1.2101    Y=             -1.6584    Z=             -2.2809  Tot=              3.0687
 Quadrupole moment (field-independent basis, Debye-Ang):
   XX=           -130.7210   YY=           -120.0764   ZZ=           -113.4391
   XY=              1.1500   XZ=              1.9533   YZ=             -3.2990

 Summary of Natural Population Analysis:

                                       Natural Population
                Natural  -----------------------------------------------
    Atom  No    Charge         Core      Valence    Rydberg      Total
 -----------------------------------------------------------------------
      C    1   -0.29370      0.99961     2.28730    0.00679     3.29370
      C    2    0.05576      0.99959     1.93121    0.01343     2.94424
      C    3   -0.29204      0.99962     2.28535    0.00707     3.29204
      C    4   -0.28140      0.99962     2.27424    0.00754     3.28140
      N    5   -0.36512      0.99969     2.85057    0.01486     3.86512
      C    6    0.05350      0.99957     1.93191    0.01501     2.94650
      C    7   -0.29510      0.99961     2.28803    0.00745     3.29510
      C    8   -0.28644      0.99962     2.27908    0.00774     3.28644
      C    9   -0.08755      0.99956     2.07519    0.01280     3.08755
      N   10   -0.35393      0.99975     2.84227    0.01192     3.85393
      C   11   -0.17296      0.99966     2.16652    0.00679     3.17296
      H   12    0.10027      0.00000     0.39890    0.00083     0.39973
      H   13    0.10936      0.00000     0.38889    0.00175     0.39064
      H   14    0.09851      0.00000     0.40043    0.00107     0.40149
      H   15    0.09834      0.00000     0.40057    0.00109     0.40166
      H   16    0.10037      0.00000     0.39800    0.00163     0.39963
      H   17    0.10097      0.00000     0.39777    0.00125     0.39903
      H   18    0.10158      0.00000     0.39726    0.00116     0.39842
      H   19    0.09959      0.00000     0.39923    0.00118     0.40041
      H   20    0.09717      0.00000     0.40183    0.00100     0.40283
      H   21    0.18031      0.00000     0.31571    0.00397     0.31969
      H   22    0.10388      0.00000     0.39486    0.00126     0.39612
      H   23    0.10097      0.00000     0.39798    0.00105     0.39903
      H   24    0.09916      0.00000     0.39963    0.00121     0.40084
      H   25    0.10292      0.00000     0.39548    0.00161     0.39708
      H   26    0.10106      0.00000     0.39752    0.00142     0.39894
      H   27    0.10087      0.00000     0.39759    0.00154     0.39913
      H   28    0.09061      0.00000     0.40775    0.00164     0.40939
      H   29    0.09152      0.00000     0.40719    0.00129     0.40848
      H   30    0.18578      0.00000     0.31000    0.00422     0.31422
      H   31    0.07706      0.00000     0.42122    0.00172     0.42294
      H   32    0.09209      0.00000     0.40692    0.00099     0.40791
      H   33    0.08659      0.00000     0.41204    0.00138     0.41341
 =======================================================================
   * Total *    0.00000     10.99590    33.85844    0.14566    45.00000

 Normal termination of Gaussian 16 at Tue Dec  8 22:13:53 2020.
