 Gaussian 16, Revision A.03,

 -----------------------------------------------------------
 # opt freq B3LYP/6-31G(d) empiricaldispersion=gd3bj scf=xqc
 -----------------------------------------------------------

 ------------------------------
 CID_59097728_JID_3044_neutraal
 ------------------------------
 Symbolic Z-matrix:
 Charge =  0 Multiplicity = 1

 SCF Done:  E(RB3LYP) =  -573.070880745     A.U. after   15 cycles
 SCF Done:  E(RB3LYP) =  -573.073350858     A.U. after   11 cycles
 SCF Done:  E(RB3LYP) =  -573.073568970     A.U. after   11 cycles
 SCF Done:  E(RB3LYP) =  -573.073590280     A.U. after    9 cycles
 SCF Done:  E(RB3LYP) =  -573.073593203     A.U. after    8 cycles
 SCF Done:  E(RB3LYP) =  -573.073594356     A.U. after    8 cycles
 SCF Done:  E(RB3LYP) =  -573.073595001     A.U. after    7 cycles
 SCF Done:  E(RB3LYP) =  -573.073596909     A.U. after    8 cycles
 SCF Done:  E(RB3LYP) =  -573.073610262     A.U. after   10 cycles
 SCF Done:  E(RB3LYP) =  -573.073582967     A.U. after   13 cycles
 SCF Done:  E(RB3LYP) =  -573.074821548     A.U. after    9 cycles
 SCF Done:  E(RB3LYP) =  -573.074823166     A.U. after    9 cycles
 SCF Done:  E(RB3LYP) =  -573.074826335     A.U. after   10 cycles
 SCF Done:  E(RB3LYP) =  -573.074829789     A.U. after   10 cycles
 SCF Done:  E(RB3LYP) =  -573.074830507     A.U. after    9 cycles
 SCF Done:  E(RB3LYP) =  -573.074831218     A.U. after    8 cycles
 Optimization completed.
    -- Stationary point found.
 Normal termination of Gaussian 16 at Wed Dec  9 22:25:14 2020.

 --------------------------------------------------------------------
 #N Geom=AllCheck Guess=TCheck SCRF=Check GenChk RB3LYP/6-31G(d) Freq
 --------------------------------------------------------------------

 Structure from the checkpoint file:  "JID_3044.chk"
 ------------------------------
 CID_59097728_JID_3044_neutraal
 ------------------------------
 Charge =  0 Multiplicity = 1

 SCF Done:  E(RB3LYP) =  -573.074831218     A.U. after    1 cycles

  Exact polarizability: 174.443   1.163 109.482   0.002   0.006  69.834
 Approx polarizability: 240.868   0.729 198.886   0.006   0.022 100.106

                      1                      2                      3
                      A                      A                      A
 Frequencies --     22.1072                72.8393               110.4237
 Red. masses --      3.0825                 3.0941                 1.0924
 Frc consts  --      0.0009                 0.0097                 0.0078
 IR Inten    --      0.0231                 1.0392                 0.2105

                      4                      5                      6
                      A                      A                      A
 Frequencies --    155.8868               161.0593               234.2433
 Red. masses --      3.5145                 3.1479                 1.2768
 Frc consts  --      0.0503                 0.0481                 0.0413
 IR Inten    --      0.0880                 1.3315                 0.1156

                      7                      8                      9
                      A                      A                      A
 Frequencies --    246.6014               252.9355               267.1788
 Red. masses --      2.9002                 1.6524                 1.5162
 Frc consts  --      0.1039                 0.0623                 0.0638
 IR Inten    --      1.0964                 1.1875                 0.3640

                     10                     11                     12
                      A                      A                      A
 Frequencies --    308.9762               314.8364               406.4064
 Red. masses --      4.4135                 2.7848                 3.9221
 Frc consts  --      0.2482                 0.1626                 0.3817
 IR Inten    --      3.6616                 0.0194                 0.0549

                     13                     14                     15
                      A                      A                      A
 Frequencies --    448.4367               477.4017               477.5894
 Red. masses --      3.2429                 4.4350                 3.6258
 Frc consts  --      0.3842                 0.5955                 0.4873
 IR Inten    --      0.3486                 0.9588                 8.6752

                     16                     17                     18
                      A                      A                      A
 Frequencies --    539.1114               596.4353               658.8034
 Red. masses --      3.1602                 5.1751                 4.8688
 Frc consts  --      0.5412                 1.0847                 1.2450
 IR Inten    --      0.3036                 3.9245                 1.8114

                     19                     20                     21
                      A                      A                      A
 Frequencies --    705.5619               721.0141               769.2462
 Red. masses --      5.3502                 8.1103                 4.4811
 Frc consts  --      1.5692                 2.4841                 1.5623
 IR Inten    --      0.1418                 1.1735                 6.4055

                     22                     23                     24
                      A                      A                      A
 Frequencies --    790.1470               868.9907               898.3791
 Red. masses --      4.6887                 6.5860                 1.5512
 Frc consts  --      1.7247                 2.9302                 0.7376
 IR Inten    --      0.0744                20.7064                19.0414

                     25                     26                     27
                      A                      A                      A
 Frequencies --    900.6244               925.1712               942.5672
 Red. masses --      2.7466                 1.3362                 5.3353
 Frc consts  --      1.3126                 0.6738                 2.7928
 IR Inten    --     11.8293                 1.6812                26.4678

                     28                     29                     30
                      A                      A                      A
 Frequencies --    945.5447               955.1111               976.6757
 Red. masses --      1.1804                 3.1881                 1.4855
 Frc consts  --      0.6218                 1.7135                 0.8349
 IR Inten    --      1.0148                40.7344                 0.0965

                     31                     32                     33
                      A                      A                      A
 Frequencies --   1047.6134              1079.7758              1081.4888
 Red. masses --      1.9316                 1.5462                 1.4955
 Frc consts  --      1.2490                 1.0621                 1.0306
 IR Inten    --      0.6428                 3.8833                16.6352

                     34                     35                     36
                      A                      A                      A
 Frequencies --   1134.2385              1162.2532              1185.7360
 Red. masses --      2.3684                 3.1575                 3.0852
 Frc consts  --      1.7952                 2.5130                 2.5557
 IR Inten    --      0.8537                10.9785                37.7201

                     37                     38                     39
                      A                      A                      A
 Frequencies --   1215.4762              1272.8461              1302.9065
 Red. masses --      1.8760                 1.8484                 3.2436
 Frc consts  --      1.6330                 1.7644                 3.2441
 IR Inten    --     16.3355                 7.1612                34.4404

                     40                     41                     42
                      A                      A                      A
 Frequencies --   1307.0409              1331.8017              1371.5386
 Red. masses --      3.9855                 3.5735                 1.3101
 Frc consts  --      4.0115                 3.7344                 1.4520
 IR Inten    --     36.5299                10.2381                 2.2846

                     43                     44                     45
                      A                      A                      A
 Frequencies --   1390.9476              1426.5701              1437.1533
 Red. masses --      2.1013                 1.2305                 1.3237
 Frc consts  --      2.3953                 1.4754                 1.6108
 IR Inten    --     13.6294                 2.6282                 4.3227

                     46                     47                     48
                      A                      A                      A
 Frequencies --   1442.8197              1455.6802              1498.9523
 Red. masses --      1.6378                 2.3997                 1.6655
 Frc consts  --      2.0088                 2.9960                 2.2048
 IR Inten    --      4.5008                 8.4187                81.5127

                     49                     50                     51
                      A                      A                      A
 Frequencies --   1502.4982              1507.5391              1517.2497
 Red. masses --      1.0433                 1.4328                 1.0459
 Frc consts  --      1.3877                 1.9185                 1.4185
 IR Inten    --      8.9339                13.0898                 0.0179

                     52                     53                     54
                      A                      A                      A
 Frequencies --   1522.0140              1533.6197              1540.0763
 Red. masses --      1.0465                 1.0485                 1.0927
 Frc consts  --      1.4283                 1.4530                 1.5269
 IR Inten    --      2.3979                 7.5411                15.2057

                     55                     56                     57
                      A                      A                      A
 Frequencies --   1625.5165              1648.8546              1677.7902
 Red. masses --      8.3541                 8.7439                 8.0256
 Frc consts  --     13.0057                14.0061                13.3108
 IR Inten    --    151.3822                32.7255                 5.6165

                     58                     59                     60
                      A                      A                      A
 Frequencies --   3043.6470              3047.5147              3065.3597
 Red. masses --      1.0348                 1.0359                 1.0382
 Frc consts  --      5.6480                 5.6682                 5.7479
 IR Inten    --     25.1867                27.2917                 9.5345

                     61                     62                     63
                      A                      A                      A
 Frequencies --   3074.5444              3107.2218              3116.2254
 Red. masses --      1.0856                 1.1023                 1.1004
 Frc consts  --      6.0460                 6.2706                 6.2957
 IR Inten    --      2.0911                 0.8473                88.3315

                     64                     65                     66
                      A                      A                      A
 Frequencies --   3121.0652              3121.3473              3122.9525
 Red. masses --      1.1028                 1.1011                 1.1022
 Frc consts  --      6.3294                 6.3204                 6.3337
 IR Inten    --     20.9890                 7.7184                33.5965

                     67                     68                     69
                      A                      A                      A
 Frequencies --   3179.0991              3193.9911              3223.0405
 Red. masses --      1.1009                 1.0920                 1.0916
 Frc consts  --      6.5554                 6.5635                 6.6811
 IR Inten    --      2.6822                17.2570                 5.1705

 - Thermochemistry -
 -------------------
 Temperature   298.150 Kelvin.  Pressure   1.00000 Atm.
 Atom     1 has atomic number  6 and mass  12.00000

 Molecular mass:   176.09496 amu.
 Principal axes and moments of inertia in atomic units:
                           1         2         3
     Eigenvalues --   832.042264141.085714569.52022
           X            0.99998  -0.00685  -0.00001
           Y            0.00685   0.99998  -0.00004
           Z            0.00001   0.00004   1.00000
 This molecule is an asymmetric top.
 Rotational symmetry number  1.
 Warning -- assumption of classical behavior for rotation
           may cause significant error
 Rotational temperatures (Kelvin)      0.10410     0.02092     0.01895
 Rotational constants (GHZ):           2.16905     0.43581     0.39495
 Zero-point vibrational energy     543022.7 (Joules/Mol)
                                  129.78555 (Kcal/Mol)
 Warning -- explicit consideration of  17 degrees of freedom as
           vibrations may cause significant error
 Vibrational temperatures:     31.81   104.80   158.88   224.29   231.73
          (Kelvin)            337.02   354.80   363.92   384.41   444.55
                              452.98   584.73   645.20   686.87   687.14
                              775.66   858.14   947.87  1015.15  1037.38
                             1106.77  1136.85  1250.28  1292.57  1295.80
                             1331.11  1356.14  1360.43  1374.19  1405.22
                             1507.28  1553.56  1556.02  1631.92  1672.22
                             1706.01  1748.80  1831.34  1874.59  1880.54
                             1916.17  1973.34  2001.26  2052.52  2067.74
                             2075.90  2094.40  2156.66  2161.76  2169.01
                             2182.98  2189.84  2206.54  2215.83  2338.76
                             2372.33  2413.97  4379.13  4384.69  4410.37
                             4423.58  4470.60  4483.55  4490.52  4490.92
                             4493.23  4574.01  4595.44  4637.24

 Zero-point correction=                           0.206826 (Hartree/Particle)
 Thermal correction to Energy=                    0.218672
 Thermal correction to Enthalpy=                  0.219617
 Thermal correction to Gibbs Free Energy=         0.168124
 Sum of electronic and zero-point Energies=           -572.868005
 Sum of electronic and thermal Energies=              -572.856159
 Sum of electronic and thermal Enthalpies=            -572.855215
 Sum of electronic and thermal Free Energies=         -572.906707

                     E (Thermal)             CV                S
                      KCal/Mol        Cal/Mol-Kelvin    Cal/Mol-Kelvin
 Total                  137.219             44.854            108.375
 Electronic               0.000              0.000              0.000
 Translational            0.889              2.981             41.405
 Rotational               0.889              2.981             31.132
 Vibrational            135.442             38.892             35.838
 Vibration     1          0.593              1.985              6.435
 Vibration     2          0.599              1.967              4.075
 Vibration     3          0.606              1.941              3.261
 Vibration     4          0.620              1.896              2.599
 Vibration     5          0.622              1.890              2.537
 Vibration     6          0.654              1.788              1.846
 Vibration     7          0.661              1.768              1.755
 Vibration     8          0.664              1.758              1.710
 Vibration     9          0.672              1.733              1.614
 Vibration    10          0.698              1.657              1.368
 Vibration    11          0.702              1.645              1.337
 Vibration    12          0.771              1.456              0.939
 Vibration    13          0.807              1.364              0.801
 Vibration    14          0.834              1.300              0.717
 Vibration    15          0.834              1.300              0.717
 Vibration    16          0.894              1.164              0.567
 Vibration    17          0.954              1.039              0.456

 Optimization completed.
    -- Stationary point found.
 Normal termination of Gaussian 16 at Wed Dec  9 22:30:33 2020.

 ----------------------------------------------------------------------
 # B3LYP/6-311++G(d,p) empiricaldispersion=gd3bj scf=xqc pop=npa geom=c
 heck
 ----------------------------------------------------------------------

 --------------------------------------
 CID_59097728_JID_3044_Energie_neutraal
 --------------------------------------
 Structure from the checkpoint file:  "JID_3044.chk"
 Charge =  0 Multiplicity = 1

 SCF Done:  E(RB3LYP) =  -573.224360492     A.U. after   15 cycles
 Normal termination of Gaussian 16 at Wed Dec  9 22:32:30 2020.

 ----------------------------------------------------------------------
 # B3LYP/6-311++G(d,p) empiricaldispersion=gd3bj scf=xqc pop=npa geom=c
 heck
 ----------------------------------------------------------------------

 ------------------------------------
 CID_59097728_JID_3044_Energie_kation
 ------------------------------------
 Structure from the checkpoint file:  "JID_3044.chk"
 Charge =  1 Multiplicity = 2

 SCF Done:  E(UB3LYP) =  -572.901108805     A.U. after   24 cycles
 Normal termination of Gaussian 16 at Wed Dec  9 22:36:39 2020.
 Gaussian 16:  ES64L-G16RevA.03 25-Dec-2016

 ----------------------------------------------------------------------
 # B3LYP/6-311++G(d,p) empiricaldispersion=gd3bj scf=xqc pop=npa geom=c
 heck
 ----------------------------------------------------------------------

 -----------------------------------
 CID_59097728_JID_3044_Energie_anion
 -----------------------------------
 Structure from the checkpoint file:  "JID_3044.chk"
 Charge = -1 Multiplicity = 2

                         Standard orientation:
 ---------------------------------------------------------------------
 Center     Atomic      Atomic             Coordinates (Angstroms)
 Number     Number       Type             X           Y           Z
 ---------------------------------------------------------------------
      1          6           0       -4.352985   -0.736362   -0.000060
      2          6           0       -2.897191   -0.446201   -0.000188
      3          7           0       -1.912488   -1.290268   -0.000446
      4          6           0       -0.767141   -0.487706   -0.000121
      5          6           0        0.591058   -0.786330   -0.000114
      6          6           0        1.477349    0.300893    0.000208
      7          7           0        1.071317    1.589574    0.000415
      8          6           0       -0.235107    1.883489    0.000357
      9          6           0       -1.160481    0.855732    0.000123
     10          8           0       -2.536910    0.885714    0.000071
     11          6           0        2.980306    0.079641    0.000248
     12          6           0        3.442432   -0.656724    1.268267
     13          6           0        3.442728   -0.655009   -1.268699
     14          1           0       -4.832771   -0.302297    0.884046
     15          1           0       -4.502107   -1.816783    0.000301
     16          1           0       -4.833188   -0.302654   -0.884083
     17          1           0        0.944083   -1.811663   -0.000300
     18          1           0       -0.520024    2.932606    0.000578
     19          1           0        3.422670    1.081395    0.000940
     20          1           0        3.022804   -1.668789    1.316326
     21          1           0        4.534512   -0.748716    1.283050
     22          1           0        3.131641   -0.120732    2.171293
     23          1           0        3.132002   -0.117848   -2.171048
     24          1           0        4.534818   -0.746860   -1.283436
     25          1           0        3.023229   -1.667049   -1.318143
 ---------------------------------------------------------------------

 SCF Done:  E(UB3LYP) =  -573.214104282     A.U. after   32 cycles

 The electronic state is 2-A.
 Alpha  occ. eigenvalues --  -19.02867 -14.14464 -14.12702 -10.08419 -10.06556
 Alpha  occ. eigenvalues --  -10.04861 -10.04760 -10.04736 -10.04491 -10.04490
 Alpha  occ. eigenvalues --  -10.03239 -10.02776 -10.00273  -0.96287  -0.77445
 Alpha  occ. eigenvalues --   -0.75795  -0.67637  -0.64712  -0.59835  -0.58080
 Alpha  occ. eigenvalues --   -0.56964  -0.49688  -0.46764  -0.44030  -0.43059
 Alpha  occ. eigenvalues --   -0.36946  -0.35709  -0.33305  -0.32603  -0.31314
 Alpha  occ. eigenvalues --   -0.29901  -0.29693  -0.29035  -0.27876  -0.27578
 Alpha  occ. eigenvalues --   -0.27321  -0.26051  -0.23368  -0.22845  -0.20946
 Alpha  occ. eigenvalues --   -0.20611  -0.19720  -0.17790  -0.13435  -0.10198
 Alpha  occ. eigenvalues --   -0.09573  -0.09068   0.07043
 Alpha virt. eigenvalues --    0.08131   0.08578   0.10223   0.10990   0.11218
 Alpha virt. eigenvalues --    0.11706   0.12465   0.12829   0.13501   0.13948
 Alpha virt. eigenvalues --    0.14285   0.14754   0.15431   0.16761   0.17112

  Beta  occ. eigenvalues --  -19.02764 -14.14523 -14.12318 -10.07815 -10.06657
  Beta  occ. eigenvalues --  -10.04915 -10.04848 -10.04746 -10.04492 -10.04491
  Beta  occ. eigenvalues --  -10.03021 -10.02467 -10.00005  -0.95998  -0.76935
  Beta  occ. eigenvalues --   -0.75449  -0.67570  -0.64154  -0.59440  -0.57833
  Beta  occ. eigenvalues --   -0.56963  -0.49593  -0.46126  -0.43845  -0.42711
  Beta  occ. eigenvalues --   -0.36792  -0.35467  -0.32533  -0.32273  -0.31104
  Beta  occ. eigenvalues --   -0.29696  -0.29623  -0.28812  -0.27525  -0.27470
  Beta  occ. eigenvalues --   -0.27257  -0.25818  -0.23179  -0.22747  -0.20554
  Beta  occ. eigenvalues --   -0.19828  -0.19628  -0.16715  -0.13418  -0.09115
  Beta  occ. eigenvalues --   -0.08246  -0.07836
  Beta virt. eigenvalues --    0.08088   0.08645   0.10191   0.10940   0.11166
  Beta virt. eigenvalues --    0.11830   0.12371   0.12756   0.13432   0.13452
  Beta virt. eigenvalues --    0.14039   0.14463   0.14596   0.15703   0.16623

 Mulliken charges and spin densities:
               1          2
     1  C   -0.176034  -0.054039
     2  C    0.321646   0.330344
     3  N   -0.130121  -0.046083
     4  C    0.065241   0.111226
     5  C   -0.438565   0.285726
     6  C   -0.415345  -0.103945
     7  N   -0.043053   0.162167
     8  C   -0.493010   0.262537
     9  C   -0.094934  -0.081911
    10  O   -0.144488   0.019118
    11  C    0.170540   0.008476
    12  C   -0.549134  -0.010738
    13  C   -0.549058  -0.010731
    14  H    0.081956   0.071135
    15  H    0.141778   0.000664
    16  H    0.081913   0.071173
    17  H    0.137003  -0.016439
    18  H    0.140024  -0.020226
    19  H    0.171137  -0.003164
    20  H    0.117033   0.009987
    21  H    0.109075   0.004701
    22  H    0.135110  -0.002313
    23  H    0.135144  -0.002327
    24  H    0.109096   0.004673
    25  H    0.117046   0.009989
 Sum of Mulliken charges =  -1.00000   1.00000

 Dipole moment (field-independent basis, Debye):
    X=              2.1629    Y=             -1.1460    Z=              0.0004  Tot=              2.4478
 Quadrupole moment (field-independent basis, Debye-Ang):
   XX=           -110.3151   YY=            -96.6733   ZZ=            -87.4372
   XY=             -4.9350   XZ=             -0.0040   YZ=             -0.0025

 Summary of Natural Population Analysis:

                                       Natural Population
                Natural  -----------------------------------------------
    Atom  No    Charge         Core      Valence    Rydberg      Total
 -----------------------------------------------------------------------
      C    1   -0.31688      0.99963     2.31338    0.00386     3.31688
      C    2    0.37294      0.99963     1.60993    0.01751     2.62706
      N    3   -0.29103      0.99967     2.77994    0.01142     3.79103
      C    4    0.08816      0.99944     1.89952    0.01287     2.91184
      C    5   -0.08807      0.99946     2.08081    0.00779     3.08807
      C    6    0.07455      0.99953     1.90819    0.01773     2.92545
      N    7   -0.20725      0.99968     2.69571    0.01186     3.70725
      C    8    0.04961      0.99955     1.93707    0.01377     2.95039
      C    9    0.09769      0.99932     1.89029    0.01270     2.90231
      O   10   -0.25007      0.99986     3.24322    0.00699     4.25007
      C   11   -0.12321      0.99957     2.11457    0.00907     3.12321
      C   12   -0.28026      0.99966     2.27611    0.00450     3.28026
      C   13   -0.28026      0.99966     2.27610    0.00450     3.28026
      H   14    0.10594      0.00000     0.39277    0.00129     0.39406
      H   15    0.10595      0.00000     0.39329    0.00076     0.39405
      H   16    0.10594      0.00000     0.39277    0.00129     0.39406
      H   17    0.09218      0.00000     0.40622    0.00160     0.40782
      H   18    0.07911      0.00000     0.41935    0.00154     0.42089
      H   19    0.09935      0.00000     0.39822    0.00242     0.40065
      H   20    0.09523      0.00000     0.40376    0.00101     0.40477
      H   21    0.08703      0.00000     0.41196    0.00101     0.41297
      H   22    0.10055      0.00000     0.39865    0.00080     0.39945
      H   23    0.10055      0.00000     0.39865    0.00080     0.39945
      H   24    0.08703      0.00000     0.41196    0.00101     0.41297
      H   25    0.09523      0.00000     0.40376    0.00101     0.40477
 =======================================================================
   * Total *   -0.00000     12.99466    33.85621    0.14914    47.00000

 Normal termination of Gaussian 16 at Wed Dec  9 22:42:17 2020.
