 Gaussian 16, Revision A.03,

 -----------------------------------------------------------
 # opt freq B3LYP/6-31G(d) empiricaldispersion=gd3bj scf=xqc
 -----------------------------------------------------------

 -----------------------------
 CID_50986546_JID_280_neutraal
 -----------------------------
 Symbolic Z-matrix:
 Charge =  0 Multiplicity = 1

 SCF Done:  E(RB3LYP) =  -454.902510277     A.U. after   14 cycles
 SCF Done:  E(RB3LYP) =  -454.906262161     A.U. after   11 cycles
 SCF Done:  E(RB3LYP) =  -454.907154249     A.U. after   11 cycles
 SCF Done:  E(RB3LYP) =  -454.907406077     A.U. after   11 cycles
 SCF Done:  E(RB3LYP) =  -454.907491906     A.U. after   11 cycles
 SCF Done:  E(RB3LYP) =  -454.907571551     A.U. after   10 cycles
 SCF Done:  E(RB3LYP) =  -454.907645506     A.U. after   11 cycles
 SCF Done:  E(RB3LYP) =  -454.907659406     A.U. after   10 cycles
 SCF Done:  E(RB3LYP) =  -454.907667081     A.U. after    9 cycles
 SCF Done:  E(RB3LYP) =  -454.907669549     A.U. after    8 cycles
 SCF Done:  E(RB3LYP) =  -454.907670261     A.U. after    8 cycles
 SCF Done:  E(RB3LYP) =  -454.907671331     A.U. after    8 cycles
 SCF Done:  E(RB3LYP) =  -454.907672970     A.U. after    9 cycles
 SCF Done:  E(RB3LYP) =  -454.907674271     A.U. after    9 cycles
 SCF Done:  E(RB3LYP) =  -454.907674724     A.U. after    8 cycles
 Optimization completed.
    -- Stationary point found.

 1\1\GINC-NODE110\FOpt\RB3LYP\6-31G(d)\C6H12N4\VSC10255\08-Dec-2020\0\\
 # opt freq B3LYP/6-31G(d) empiricaldispersion=gd3bj scf=xqc\\CID_50986
 546_JID_280_neutraal\\0,1\C,0.9355691334,-0.0455071585,0.015037284\C,0
 .3223589089,-0.5177538401,1.3436175467\C,0.9221006396,0.2497087514,2.5
 333790849\C,-1.1705330873,-0.3683179206,1.3197328793\N,-1.9928548383,-
 1.398933999,1.4378773893\N,-3.2312328977,-0.7995394223,1.3806459427\C,
 -3.0735106186,0.5337754238,1.2061428151\N,-1.7879066199,0.8487689907,1
 .1675802307\N,-4.1387878135,1.4235657834,1.1622961365\C,-4.4479960962,

 Normal termination of Gaussian 16 at Tue Dec  8 10:23:07 2020.

 --------------------------------------------------------------------
 #N Geom=AllCheck Guess=TCheck SCRF=Check GenChk RB3LYP/6-31G(d) Freq
 --------------------------------------------------------------------

 Structure from the checkpoint file:  "JID_280.chk"
 -----------------------------
 CID_50986546_JID_280_neutraal
 -----------------------------
 Charge =  0 Multiplicity = 1

 SCF Done:  E(RB3LYP) =  -454.907674724     A.U. after    1 cycles

  Exact polarizability: 113.468   0.585  84.581   1.619  -0.696  61.963
 Approx polarizability: 147.267  -0.110 137.352   1.783  -2.385  85.649

                      1                      2                      3
                      A                      A                      A
 Frequencies --     38.3439               101.9451               107.1047
 Red. masses --      3.0168                 1.1588                 2.4367
 Frc consts  --      0.0026                 0.0071                 0.0165
 IR Inten    --      0.4121                 2.4174                 5.0034

                      4                      5                      6
                      A                      A                      A
 Frequencies --    166.5734               170.5076               230.5271
 Red. masses --      2.8384                 3.2762                 1.0344
 Frc consts  --      0.0464                 0.0561                 0.0324
 IR Inten    --      2.2902                 3.8481                 0.0815

                      7                      8                      9
                      A                      A                      A
 Frequencies --    254.0672               264.5211               279.7310
 Red. masses --      1.8586                 1.1418                 3.5774
 Frc consts  --      0.0707                 0.0471                 0.1649
 IR Inten    --     18.6751                 0.2840                 6.2317

                     10                     11                     12
                      A                      A                      A
 Frequencies --    281.2285               313.5151               426.2053
 Red. masses --      1.4385                 2.6406                 2.8941
 Frc consts  --      0.0670                 0.1529                 0.3097
 IR Inten    --     24.5115                 2.3962                 0.8151

                     13                     14                     15
                      A                      A                      A
 Frequencies --    437.3815               535.6438               638.9439
 Red. masses --      4.7025                 3.6020                 2.8731
 Frc consts  --      0.5300                 0.6089                 0.6911
 IR Inten    --      3.0294                 1.3967                12.7371

                     16                     17                     18
                      A                      A                      A
 Frequencies --    662.2816               680.2300               776.4297
 Red. masses --      3.1607                 5.2390                 3.5514
 Frc consts  --      0.8168                 1.4283                 1.2614
 IR Inten    --     61.5292                22.5708                57.4454

                     19                     20                     21
                      A                      A                      A
 Frequencies --    793.2602               819.8863               907.5295
 Red. masses --      2.4596                 4.0481                 2.5918
 Frc consts  --      0.9119                 1.6033                 1.2577
 IR Inten    --    160.1366                 0.4832                 0.9351

                     22                     23                     24
                      A                      A                      A
 Frequencies --    946.7411               978.2208              1038.4599
 Red. masses --      1.1642                 1.5402                 3.3290
 Frc consts  --      0.6148                 0.8684                 2.1151
 IR Inten    --      1.8217                 0.0083                 4.7794

                     25                     26                     27
                      A                      A                      A
 Frequencies --   1042.6304              1093.4160              1135.2026
 Red. masses --      3.2775                 1.4811                 2.2861
 Frc consts  --      2.0992                 1.0433                 1.7357
 IR Inten    --      3.8320                31.5121                 0.8727

                     28                     29                     30
                      A                      A                      A
 Frequencies --   1142.4603              1163.2020              1206.5303
 Red. masses --      1.7329                 1.3434                 1.8679
 Frc consts  --      1.3326                 1.0710                 1.6020
 IR Inten    --     37.3842                 0.3872                 2.3614

                     31                     32                     33
                      A                      A                      A
 Frequencies --   1272.2887              1315.1758              1352.6737
 Red. masses --      2.4389                 5.0853                 1.6640
 Frc consts  --      2.3260                 5.1825                 1.7939
 IR Inten    --      9.0967                13.9904                13.8479

                     34                     35                     36
                      A                      A                      A
 Frequencies --   1361.5739              1403.1443              1421.4802
 Red. masses --      1.3216                 5.5550                 1.2355
 Frc consts  --      1.4435                 6.4438                 1.4708
 IR Inten    --      2.1978                79.7274                 3.1466

                     37                     38                     39
                      A                      A                      A
 Frequencies --   1443.2026              1461.6695              1508.4358
 Red. masses --      1.3041                 1.3173                 1.9539
 Frc consts  --      1.6003                 1.6582                 2.6195
 IR Inten    --     12.3247                10.8948                16.3289

                     40                     41                     42
                      A                      A                      A
 Frequencies --   1517.0638              1518.8676              1522.8637
 Red. masses --      1.0428                 1.1663                 1.0490
 Frc consts  --      1.4140                 1.5853                 1.4334
 IR Inten    --      0.8646                 7.2092                 0.7517

                     43                     44                     45
                      A                      A                      A
 Frequencies --   1530.4479              1534.9693              1549.4409
 Red. masses --      1.0497                 1.1151                 1.2902
 Frc consts  --      1.4486                 1.5480                 1.8249
 IR Inten    --      6.4853                 2.4467                13.0618

                     46                     47                     48
                      A                      A                      A
 Frequencies --   1587.6252              1603.0128              1686.5374
 Red. masses --      4.6458                 3.9188                 1.3228
 Frc consts  --      6.8993                 5.9330                 2.2168
 IR Inten    --    114.4308                98.8652               120.0864

                     49                     50                     51
                      A                      A                      A
 Frequencies --   3047.7373              3051.0277              3051.9231
 Red. masses --      1.0344                 1.0398                 1.0367
 Frc consts  --      5.6613                 5.7031                 5.6891
 IR Inten    --     30.3244                80.7777                 3.9096

                     52                     53                     54
                      A                      A                      A
 Frequencies --   3064.4549              3115.4465              3118.6909
 Red. masses --      1.0845                 1.1028                 1.1025
 Frc consts  --      6.0005                 6.3064                 6.3178
 IR Inten    --      9.5110                15.1638                57.0555

                     55                     56                     57
                      A                      A                      A
 Frequencies --   3123.7640              3126.2856              3131.7164
 Red. masses --      1.0967                 1.1032                 1.1018
 Frc consts  --      6.3051                 6.3526                 6.3667
 IR Inten    --     15.2502                10.5083                46.0597

                     58                     59                     60
                      A                      A                      A
 Frequencies --   3170.6702              3529.6935              3628.8041
 Red. masses --      1.1032                 1.0493                 1.0955
 Frc consts  --      6.5343                 7.7025                 8.4995
 IR Inten    --      4.3821                13.8607                22.4907

 - Thermochemistry -
 -------------------
 Temperature   298.150 Kelvin.  Pressure   1.00000 Atm.
 Atom     1 has atomic number  6 and mass  12.00000

 Molecular mass:   140.10620 amu.
 Principal axes and moments of inertia in atomic units:
                           1         2         3
     Eigenvalues --   682.794302153.093822429.68579
           X            0.99994  -0.01068   0.00313
           Y            0.01063   0.99984   0.01405
           Z           -0.00328  -0.01402   0.99990
 This molecule is an asymmetric top.
 Rotational symmetry number  1.
 Warning -- assumption of classical behavior for rotation
           may cause significant error
 Rotational temperatures (Kelvin)      0.12685     0.04023     0.03565
 Rotational constants (GHZ):           2.64317     0.83821     0.74279
 Zero-point vibrational energy     498743.5 (Joules/Mol)
                                  119.20256 (Kcal/Mol)
 Warning -- explicit consideration of  14 degrees of freedom as
           vibrations may cause significant error
 Vibrational temperatures:     55.17   146.68   154.10   239.66   245.32
          (Kelvin)            331.68   365.55   380.59   402.47   404.63
                              451.08   613.21   629.29   770.67   919.30
                              952.88   978.70  1117.11  1141.32  1179.63
                             1305.73  1362.15  1407.44  1494.11  1500.11
                             1573.18  1633.30  1643.75  1673.59  1735.93
                             1830.54  1892.24  1946.20  1959.00  2018.81
                             2045.19  2076.45  2103.02  2170.30  2182.72
                             2185.31  2191.06  2201.97  2208.48  2229.30
                             2284.24  2306.38  2426.55  4385.01  4389.75
                             4391.04  4409.07  4482.43  4487.10  4494.40
                             4498.03  4505.84  4561.89  5078.44  5221.04

 Zero-point correction=                           0.189961 (Hartree/Particle)
 Thermal correction to Energy=                    0.200882
 Thermal correction to Enthalpy=                  0.201827
 Thermal correction to Gibbs Free Energy=         0.153367
 Sum of electronic and zero-point Energies=           -454.717713
 Sum of electronic and thermal Energies=              -454.706792
 Sum of electronic and thermal Enthalpies=            -454.705848
 Sum of electronic and thermal Free Energies=         -454.754308

                     E (Thermal)             CV                S
                      KCal/Mol        Cal/Mol-Kelvin    Cal/Mol-Kelvin
 Total                  126.056             39.385            101.993
 Electronic               0.000              0.000              0.000
 Translational            0.889              2.981             40.723
 Rotational               0.889              2.981             29.659
 Vibrational            124.278             33.423             31.611
 Vibration     1          0.594              1.982              5.343
 Vibration     2          0.604              1.948              3.417
 Vibration     3          0.606              1.944              3.321
 Vibration     4          0.624              1.884              2.474
 Vibration     5          0.626              1.879              2.430
 Vibration     6          0.652              1.794              1.875
 Vibration     7          0.665              1.756              1.702
 Vibration     8          0.671              1.738              1.632
 Vibration     9          0.680              1.711              1.535
 Vibration    10          0.681              1.708              1.526
 Vibration    11          0.701              1.648              1.344
 Vibration    12          0.788              1.413              0.871
 Vibration    13          0.798              1.389              0.835
 Vibration    14          0.891              1.171              0.575

 Optimization completed.
    -- Stationary point found.

 1\1\GINC-NODE110\Freq\RB3LYP\6-31G(d)\C6H12N4\VSC10255\08-Dec-2020\0\\
 #N Geom=AllCheck Guess=TCheck SCRF=Check GenChk RB3LYP/6-31G(d) Freq\\
 CID_50986546_JID_280_neutraal\\0,1\C,0.9355691334,-0.0455071585,0.0150
 37284\C,0.3223589089,-0.5177538401,1.3436175467\C,0.9221006396,0.24970
 87514,2.5333790849\C,-1.1705330873,-0.3683179206,1.3197328793\N,-1.992
 8548383,-1.398933999,1.4378773893\N,-3.2312328977,-0.7995394223,1.3806
 459427\C,-3.0735106186,0.5337754238,1.2061428151\N,-1.7879066199,0.848
 7689907,1.1675802307\N,-4.1387878135,1.4235657834,1.1622961365\C,-4.44

 Normal termination of Gaussian 16 at Tue Dec  8 10:26:50 2020.

 ----------------------------------------------------------------------
 # B3LYP/6-311++G(d,p) empiricaldispersion=gd3bj scf=xqc pop=npa geom=c
 heck
 ----------------------------------------------------------------------

 -------------------------------------
 CID_50986546_JID_280_Energie_neutraal
 -------------------------------------
 Structure from the checkpoint file:  "JID_280.chk"
 Charge =  0 Multiplicity = 1

 SCF Done:  E(RB3LYP) =  -455.039813783     A.U. after   14 cycles
 Normal termination of Gaussian 16 at Tue Dec  8 10:28:28 2020.

 ----------------------------------------------------------------------
 # B3LYP/6-311++G(d,p) empiricaldispersion=gd3bj scf=xqc pop=npa geom=c
 heck
 ----------------------------------------------------------------------

 -----------------------------------
 CID_50986546_JID_280_Energie_kation
 -----------------------------------
 Structure from the checkpoint file:  "JID_280.chk"
 Charge =  1 Multiplicity = 2

 SCF Done:  E(UB3LYP) =  -454.732349829     A.U. after   20 cycles
 Normal termination of Gaussian 16 at Tue Dec  8 10:31:45 2020.
 Gaussian 16:  ES64L-G16RevA.03 25-Dec-2016

 ----------------------------------
 CID_50986546_JID_280_Energie_anion
 ----------------------------------
 Structure from the checkpoint file:  "JID_280.chk"
 Charge = -1 Multiplicity = 2

                         Standard orientation:
 ---------------------------------------------------------------------
 Center     Atomic      Atomic             Coordinates (Angstroms)
 Number     Number       Type             X           Y           Z
 ---------------------------------------------------------------------
      1          6           0       -2.692908    0.172345    1.261737
      2          6           0       -2.055450   -0.456177    0.011627
      3          6           0       -2.683007    0.109427   -1.273085
      4          6           0       -0.570350   -0.241457    0.010492
      5          7           0        0.295434   -1.242485    0.037005
      6          7           0        1.507015   -0.588850    0.005985
      7          6           0        1.292165    0.747813   -0.009109
      8          7           0       -0.005791    1.010085   -0.012232
      9          7           0        2.318512    1.679413   -0.093951
     10          6           0        2.755766   -1.314353   -0.005778
     11          1           0       -2.504747    1.250912    1.282033
     12          1           0       -2.276856   -0.262063    2.177216
     13          1           0       -3.776824    0.009571    1.265670
     14          1           0       -2.213162   -1.540807    0.038161
     15          1           0       -2.493440    1.185456   -1.345994
     16          1           0       -2.260400   -0.370218   -2.162471
     17          1           0       -3.767029   -0.052680   -1.276741
     18          1           0        3.053320    1.556127    0.595105
     19          1           0        1.939899    2.619090   -0.045506
     20          1           0        3.109717   -1.532319    1.009328
     21          1           0        2.599666   -2.255572   -0.535075
     22          1           0        3.506370   -0.720238   -0.534676
 ---------------------------------------------------------------------

 SCF Done:  E(UB3LYP) =  -455.028755940     A.U. after   30 cycles

 The electronic state is 2-A.
 Alpha  occ. eigenvalues --  -14.27321 -14.21519 -14.21245 -14.18105 -10.15556
 Alpha  occ. eigenvalues --  -10.10704 -10.09708 -10.08357 -10.06599 -10.06446
 Alpha  occ. eigenvalues --   -0.95990  -0.81551  -0.78779  -0.71490  -0.69065
 Alpha  occ. eigenvalues --   -0.60295  -0.59077  -0.53397  -0.48177  -0.46714
 Alpha  occ. eigenvalues --   -0.41536  -0.38483  -0.37483  -0.36788  -0.34288
 Alpha  occ. eigenvalues --   -0.33622  -0.32198  -0.30440  -0.29552  -0.28765
 Alpha  occ. eigenvalues --   -0.25488  -0.25157  -0.24189  -0.21915  -0.21390
 Alpha  occ. eigenvalues --   -0.16629  -0.16235  -0.11751   0.04786
 Alpha virt. eigenvalues --    0.06690   0.08223   0.08834   0.10022   0.10056
 Alpha virt. eigenvalues --    0.10280   0.11401   0.12132   0.12993   0.13043
 Alpha virt. eigenvalues --    0.13473   0.13897   0.14299   0.16287   0.16500

  Beta  occ. eigenvalues --  -14.27319 -14.21513 -14.21147 -14.18090 -10.15552
  Beta  occ. eigenvalues --  -10.10700 -10.09640 -10.08355 -10.06593 -10.06438
  Beta  occ. eigenvalues --   -0.95975  -0.81449  -0.78754  -0.71444  -0.69040
  Beta  occ. eigenvalues --   -0.60214  -0.59062  -0.53378  -0.48081  -0.46674
  Beta  occ. eigenvalues --   -0.41440  -0.38405  -0.37441  -0.36733  -0.34269
  Beta  occ. eigenvalues --   -0.33586  -0.32176  -0.30376  -0.29531  -0.28737
  Beta  occ. eigenvalues --   -0.25468  -0.25143  -0.24180  -0.21867  -0.21344
  Beta  occ. eigenvalues --   -0.16593  -0.16215  -0.11707
  Beta virt. eigenvalues --    0.06620   0.08236   0.08733   0.09216   0.10216
  Beta virt. eigenvalues --    0.10440   0.10975   0.12093   0.12800   0.13135
  Beta virt. eigenvalues --    0.13274   0.13340   0.14175   0.14953   0.16294

 Mulliken charges and spin densities:
               1          2
     1  C   -0.263156  -0.333247
     2  C    0.325656   0.018747
     3  C   -0.336960  -0.248692
     4  C    0.439412  -1.011946
     5  N   -0.406202   0.345828
     6  N    0.053366  -0.125742
     7  C    0.003860   0.254087
     8  N   -0.145753   0.026248
     9  N   -0.484717   0.102216
    10  C    1.899543  -2.228476
    11  H    0.102111   0.056251
    12  H    0.026720   0.111363
    13  H    0.042458   0.092975
    14  H    0.117217   0.051531
    15  H    0.102236   0.053749
    16  H    0.086425   0.049580
    17  H    0.060514   0.074559
    18  H   -0.773659   1.054325
    19  H   -0.365400   0.646043
    20  H   -0.694253   0.890240
    21  H   -0.232729   0.393945
    22  H   -0.556688   0.726417
 Sum of Mulliken charges =  -1.00000   1.00000

 Dipole moment (field-independent basis, Debye):
    X=            -10.1380    Y=             -2.1367    Z=             -2.1847  Tot=             10.5886
 Quadrupole moment (field-independent basis, Debye-Ang):
   XX=           -131.8547   YY=            -99.0883   ZZ=            -87.5826
   XY=             -5.8808   XZ=             -7.3694   YZ=             -1.2287

 Summary of Natural Population Analysis:

                                       Natural Population
                Natural  -----------------------------------------------
    Atom  No    Charge         Core      Valence    Rydberg      Total
 -----------------------------------------------------------------------
      C    1   -0.27998      0.99965     2.27584    0.00449     3.27998
      C    2   -0.13046      0.99957     2.12144    0.00946     3.13046
      C    3   -0.28003      0.99965     2.27591    0.00446     3.28003
      C    4    0.17996      0.99962     1.79878    0.02164     2.82004
      N    5   -0.17463      0.99969     2.66442    0.01052     3.67463
      N    6   -0.13189      0.99962     2.61841    0.01387     3.63189
      C    7    0.28916      0.99958     1.69436    0.01690     2.71084
      N    8   -0.29771      0.99967     2.78799    0.01004     3.79771
      N    9   -0.40306      0.99972     2.89335    0.01000     3.90306
      C   10   -0.17613      0.99964     2.16784    0.00865     3.17613
      H   11    0.10394      0.00000     0.39493    0.00113     0.39606
      H   12    0.10121      0.00000     0.39790    0.00089     0.39879
      H   13    0.09195      0.00000     0.40721    0.00084     0.40805
      H   14    0.10147      0.00000     0.39689    0.00164     0.39853
      H   15    0.10375      0.00000     0.39519    0.00107     0.39625
      H   16    0.10018      0.00000     0.39901    0.00081     0.39982
      H   17    0.09224      0.00000     0.40692    0.00084     0.40776
      H   18    0.20128      0.00000     0.26726    0.03146     0.29872
      H   19    0.19459      0.00000     0.30159    0.00382     0.30541
      H   20    0.10148      0.00000     0.39555    0.00296     0.39852
      H   21    0.10452      0.00000     0.39378    0.00170     0.39548
      H   22    0.10818      0.00000     0.38921    0.00261     0.39182
 =======================================================================
   * Total *   -0.00000      9.99640    27.84378    0.15982    38.00000

 Normal termination of Gaussian 16 at Tue Dec  8 10:38:01 2020.
