 Gaussian 16, Revision A.03,

 -----------------------------------------------------------
 # opt freq B3LYP/6-31G(d) empiricaldispersion=gd3bj scf=xqc
 -----------------------------------------------------------

 -------------------------------
 CID_131162166_JID_1337_neutraal
 -------------------------------
 Symbolic Z-matrix:
 Charge =  0 Multiplicity = 1

 SCF Done:  E(RB3LYP) =  -460.902672154     A.U. after   15 cycles
 SCF Done:  E(RB3LYP) =  -460.923313219     A.U. after   12 cycles
 SCF Done:  E(RB3LYP) =  -460.923902442     A.U. after   11 cycles
 SCF Done:  E(RB3LYP) =  -460.924010943     A.U. after   11 cycles
 SCF Done:  E(RB3LYP) =  -460.924033981     A.U. after   10 cycles
 SCF Done:  E(RB3LYP) =  -460.924043200     A.U. after    9 cycles
 SCF Done:  E(RB3LYP) =  -460.924056626     A.U. after   10 cycles
 SCF Done:  E(RB3LYP) =  -460.924081553     A.U. after   11 cycles
 SCF Done:  E(RB3LYP) =  -460.924094495     A.U. after   10 cycles
 SCF Done:  E(RB3LYP) =  -460.924127290     A.U. after   10 cycles
 SCF Done:  E(RB3LYP) =  -460.924114210     A.U. after   12 cycles
 SCF Done:  E(RB3LYP) =  -460.924163715     A.U. after    9 cycles
 SCF Done:  E(RB3LYP) =  -460.907688184     A.U. after   13 cycles
 SCF Done:  E(RB3LYP) =  -460.924172153     A.U. after    9 cycles
 SCF Done:  E(RB3LYP) =  -460.924172827     A.U. after    8 cycles
 SCF Done:  E(RB3LYP) =  -460.924172980     A.U. after    8 cycles
 Optimization completed.
    -- Stationary point found.

 1\1\GINC-NODE309\FOpt\RB3LYP\6-31G(d)\C9H14N2\VSC10255\08-Dec-2020\0\\
 # opt freq B3LYP/6-31G(d) empiricaldispersion=gd3bj scf=xqc\\CID_13116
 2166_JID_1337_neutraal\\0,1\C,0.7581346267,1.440687976,-0.2233863005\C
 ,-0.7837668001,1.3722516944,-0.4074292003\C,-1.280749727,-0.0417404421
 ,-0.0565875861\C,-0.7145095114,-1.0487713583,-1.0722935995\C,0.8288648
 668,-0.8877709182,-1.1600745437\C,1.3115353528,0.0192042156,-0.0140146
 728\C,0.7837011537,-0.5374353886,1.3185457713\C,-0.7775564462,-0.43505
 44511,1.362781794\C,-1.1851075578,0.6111308728,2.3333386614\N,-1.53133

 Normal termination of Gaussian 16 at Tue Dec  8 19:47:35 2020.

 --------------------------------------------------------------------
 #N Geom=AllCheck Guess=TCheck SCRF=Check GenChk RB3LYP/6-31G(d) Freq
 --------------------------------------------------------------------

 Structure from the checkpoint file:  "JID_1337.chk"
 -------------------------------
 CID_131162166_JID_1337_neutraal
 -------------------------------
 Charge =  0 Multiplicity = 1

 SCF Done:  E(RB3LYP) =  -460.924172980     A.U. after    1 cycles

  Exact polarizability: 104.887  -4.218  94.108  -0.065   0.267  86.327
 Approx polarizability: 148.954 -14.394 141.543   0.175   1.132 126.208

                      1                      2                      3
                      A                      A                      A
 Frequencies --     55.1029               141.7380               166.5237
 Red. masses --      2.9781                 5.4554                 3.6023
 Frc consts  --      0.0053                 0.0646                 0.0589
 IR Inten    --      0.8746                 6.1522                 5.3672

                      4                      5                      6
                      A                      A                      A
 Frequencies --    246.9042               272.7411               304.1863
 Red. masses --      2.3375                 1.7741                 1.6394
 Frc consts  --      0.0840                 0.0778                 0.0894
 IR Inten    --      2.7728                 2.7730                 8.0941

                      7                      8                      9
                      A                      A                      A
 Frequencies --    324.1925               370.6155               401.6167
 Red. masses --      1.8329                 2.4624                 3.8661
 Frc consts  --      0.1135                 0.1993                 0.3674
 IR Inten    --     21.7421                 0.1079                 7.0313

                     10                     11                     12
                      A                      A                      A
 Frequencies --    417.6836               438.6417               529.6588
 Red. masses --      2.2121                 3.4046                 3.7540
 Frc consts  --      0.2274                 0.3860                 0.6205
 IR Inten    --      8.2844                 0.3570                 1.8059

                     13                     14                     15
                      A                      A                      A
 Frequencies --    574.9140               606.4217               634.2779
 Red. masses --      5.6161                 4.7689                 5.6993
 Frc consts  --      1.0937                 1.0333                 1.3509
 IR Inten    --      0.9036                 1.2484                 1.0259

                     16                     17                     18
                      A                      A                      A
 Frequencies --    695.6354               801.5965               814.5906
 Red. masses --      4.8244                 1.3227                 3.0081
 Frc consts  --      1.3755                 0.5008                 1.1760
 IR Inten    --      0.5494                 1.8608                 0.6952

                     19                     20                     21
                      A                      A                      A
 Frequencies --    839.1071               865.1127               879.2253
 Red. masses --      1.6120                 2.2412                 2.5374
 Frc consts  --      0.6687                 0.9883                 1.1557
 IR Inten    --      4.2932                 8.4178                 5.8919

                     22                     23                     24
                      A                      A                      A
 Frequencies --    903.2989               908.7593               955.0608
 Red. masses --      1.8003                 2.0297                 2.1738
 Frc consts  --      0.8655                 0.9876                 1.1682
 IR Inten    --     78.9426                11.7577                26.6062

                     25                     26                     27
                      A                      A                      A
 Frequencies --    960.8053               996.9689              1009.8769
 Red. masses --      1.7550                 3.1305                 2.1783
 Frc consts  --      0.9546                 1.8333                 1.3089
 IR Inten    --      0.1190                 6.2832                 6.1345

                     28                     29                     30
                      A                      A                      A
 Frequencies --   1035.9633              1064.6130              1097.9003
 Red. masses --      2.1949                 2.2864                 2.1372
 Frc consts  --      1.3879                 1.5268                 1.5178
 IR Inten    --      1.6852                 0.0559                 0.0409

                     31                     32                     33
                      A                      A                      A
 Frequencies --   1126.8651              1136.9544              1158.2548
 Red. masses --      1.7285                 1.7839                 2.4728
 Frc consts  --      1.2932                 1.3587                 1.9546
 IR Inten    --     12.7336                13.7044                15.5485

                     34                     35                     36
                      A                      A                      A
 Frequencies --   1173.0810              1190.5773              1221.1191
 Red. masses --      1.0334                 1.0971                 1.4478
 Frc consts  --      0.8379                 0.9162                 1.2719
 IR Inten    --      0.2053                 1.6344                 4.7821

                     37                     38                     39
                      A                      A                      A
 Frequencies --   1278.5797              1280.7944              1309.5715
 Red. masses --      1.1700                 1.1840                 1.6077
 Frc consts  --      1.1269                 1.1443                 1.6245
 IR Inten    --      0.9946                 0.9882                 2.2401

                     40                     41                     42
                      A                      A                      A
 Frequencies --   1324.3175              1345.4809              1357.4339
 Red. masses --      1.5854                 1.5387                 1.4226
 Frc consts  --      1.6383                 1.6412                 1.5444
 IR Inten    --      4.8105                 0.8899                 0.0271

                     43                     44                     45
                      A                      A                      A
 Frequencies --   1359.8271              1370.7691              1380.7367
 Red. masses --      1.5160                 1.5025                 1.5845
 Frc consts  --      1.6516                 1.6634                 1.7798
 IR Inten    --      0.5656                 0.5543                 0.3885

                     46                     47                     48
                      A                      A                      A
 Frequencies --   1393.8629              1402.2296              1405.5348
 Red. masses --      1.4909                 1.4046                 1.4360
 Frc consts  --      1.7066                 1.6272                 1.6714
 IR Inten    --      0.3320                 0.2349                 0.4395

                     49                     50                     51
                      A                      A                      A
 Frequencies --   1512.7528              1513.7915              1524.1704
 Red. masses --      1.0837                 1.0761                 1.0787
 Frc consts  --      1.4611                 1.4529                 1.4764
 IR Inten    --      2.2704                 0.9007                 5.1685

                     52                     53                     54
                      A                      A                      A
 Frequencies --   1531.6609              1548.2590              1695.9880
 Red. masses --      1.0956                 1.0932                 1.0922
 Frc consts  --      1.5143                 1.5439                 1.8510
 IR Inten    --      7.1534                 4.6865                34.1590

                     55                     56                     57
                      A                      A                      A
 Frequencies --   2339.8055              3047.5286              3051.1846
 Red. masses --     12.7141                 1.0637                 1.0622
 Frc consts  --     41.0107                 5.8207                 5.8265
 IR Inten    --      8.9575                14.5624                14.7317

                     58                     59                     60
                      A                      A                      A
 Frequencies --   3053.9941              3060.8568              3065.0455
 Red. masses --      1.0793                 1.0648                 1.0686
 Frc consts  --      5.9311                 5.8775                 5.9147
 IR Inten    --     21.3743                28.7058                32.3120

                     61                     62                     63
                      A                      A                      A
 Frequencies --   3070.4091              3076.9576              3085.6572
 Red. masses --      1.0753                 1.0768                 1.1028
 Frc consts  --      5.9726                 6.0065                 6.1865
 IR Inten    --    103.7624                13.4048                21.2214

                     64                     65                     66
                      A                      A                      A
 Frequencies --   3090.0458              3111.2587              3113.4378
 Red. masses --      1.0991                 1.1052                 1.1036
 Frc consts  --      6.1833                 6.3034                 6.3028
 IR Inten    --     29.6560                 6.6291                48.4597

                     67                     68                     69
                      A                      A                      A
 Frequencies --   3126.6413              3462.7142              3548.8599
 Red. masses --      1.1003                 1.0497                 1.0930
 Frc consts  --      6.3376                 7.4157                 8.1104
 IR Inten    --     24.3934                 0.0698                 0.5826

 - Thermochemistry -
 -------------------
 Temperature   298.150 Kelvin.  Pressure   1.00000 Atm.
 Atom     1 has atomic number  6 and mass  12.00000

 Molecular mass:   150.11570 amu.
 Principal axes and moments of inertia in atomic units:
                           1         2         3
     Eigenvalues --  1041.337591663.942751917.64056
           X            0.99918   0.04058   0.00145
           Y           -0.04058   0.99917   0.00451
           Z           -0.00127  -0.00457   0.99999
 This molecule is an asymmetric top.
 Rotational symmetry number  1.
 Warning -- assumption of classical behavior for rotation
           may cause significant error
 Rotational temperatures (Kelvin)      0.08318     0.05205     0.04517
 Rotational constants (GHZ):           1.73310     1.08462     0.94113
 Zero-point vibrational energy     587131.6 (Joules/Mol)
                                  140.32783 (Kcal/Mol)
 Warning -- explicit consideration of  14 degrees of freedom as
           vibrations may cause significant error
 Vibrational temperatures:     79.28   203.93   239.59   355.24   392.41
          (Kelvin)            437.66   466.44   533.23   577.84   600.95
                              631.11   762.06   827.17   872.51   912.58
                             1000.86  1153.32  1172.01  1207.29  1244.70
                             1265.01  1299.65  1307.50  1374.12  1382.38
                             1434.42  1452.99  1490.52  1531.74  1579.63
                             1621.31  1635.82  1666.47  1687.80  1712.98
                             1756.92  1839.59  1842.78  1884.18  1905.40
                             1935.85  1953.04  1956.49  1972.23  1986.57
                             2005.46  2017.50  2022.25  2176.51  2178.01
                             2192.94  2203.72  2227.60  2440.15  3366.46
                             4384.71  4389.97  4394.02  4403.89  4409.92
                             4417.63  4427.06  4439.57  4445.89  4476.41
                             4479.54  4498.54  4982.07  5106.02

 Zero-point correction=                           0.223627 (Hartree/Particle)
 Thermal correction to Energy=                    0.233253
 Thermal correction to Enthalpy=                  0.234197
 Thermal correction to Gibbs Free Energy=         0.189154
 Sum of electronic and zero-point Energies=           -460.700546
 Sum of electronic and thermal Energies=              -460.690920
 Sum of electronic and thermal Enthalpies=            -460.689976
 Sum of electronic and thermal Free Energies=         -460.735019

                     E (Thermal)             CV                S
                      KCal/Mol        Cal/Mol-Kelvin    Cal/Mol-Kelvin
 Total                  146.368             39.142             94.801
 Electronic               0.000              0.000              0.000
 Translational            0.889              2.981             40.929
 Rotational               0.889              2.981             29.587
 Vibrational            144.591             33.180             24.285
 Vibration     1          0.596              1.976              4.625
 Vibration     2          0.615              1.912              2.780
 Vibration     3          0.624              1.884              2.474
 Vibration     4          0.661              1.768              1.753
 Vibration     5          0.676              1.724              1.579
 Vibration     6          0.695              1.666              1.394
 Vibration     7          0.709              1.627              1.289
 Vibration     8          0.743              1.533              1.077
 Vibration     9          0.767              1.467              0.957
 Vibration    10          0.781              1.432              0.900
 Vibration    11          0.799              1.386              0.831
 Vibration    12          0.885              1.184              0.588
 Vibration    13          0.931              1.086              0.495
 Vibration    14          0.965              1.018              0.439

 Optimization completed.
    -- Stationary point found.

 1\1\GINC-NODE309\Freq\RB3LYP\6-31G(d)\C9H14N2\VSC10255\08-Dec-2020\0\\
 #N Geom=AllCheck Guess=TCheck SCRF=Check GenChk RB3LYP/6-31G(d) Freq\\
 CID_131162166_JID_1337_neutraal\\0,1\C,0.7581346267,1.440687976,-0.223
 3863005\C,-0.7837668001,1.3722516944,-0.4074292003\C,-1.280749727,-0.0
 417404421,-0.0565875861\C,-0.7145095114,-1.0487713583,-1.0722935995\C,
 0.8288648668,-0.8877709182,-1.1600745437\C,1.3115353528,0.0192042156,-
 0.0140146728\C,0.7837011537,-0.5374353886,1.3185457713\C,-0.7775564462
 ,-0.4350544511,1.362781794\C,-1.1851075578,0.6111308728,2.3333386614\N

 Normal termination of Gaussian 16 at Tue Dec  8 19:53:48 2020.

 ----------------------------------------------------------------------
 # B3LYP/6-311++G(d,p) empiricaldispersion=gd3bj scf=xqc pop=npa geom=c
 heck
 ----------------------------------------------------------------------

 ---------------------------------------
 CID_131162166_JID_1337_Energie_neutraal
 ---------------------------------------
 Structure from the checkpoint file:  "JID_1337.chk"
 Charge =  0 Multiplicity = 1

 SCF Done:  E(RB3LYP) =  -461.054047842     A.U. after   13 cycles
 Normal termination of Gaussian 16 at Tue Dec  8 19:55:42 2020.

 ----------------------------------------------------------------------
 # B3LYP/6-311++G(d,p) empiricaldispersion=gd3bj scf=xqc pop=npa geom=c
 heck
 ----------------------------------------------------------------------

 -------------------------------------
 CID_131162166_JID_1337_Energie_kation
 -------------------------------------
 Structure from the checkpoint file:  "JID_1337.chk"
 Charge =  1 Multiplicity = 2

 SCF Done:  E(UB3LYP) =  -460.700770327     A.U. after   27 cycles
 Normal termination of Gaussian 16 at Tue Dec  8 20:00:41 2020.
 Gaussian 16:  ES64L-G16RevA.03 25-Dec-2016

 ------------------------------------
 CID_131162166_JID_1337_Energie_anion
 ------------------------------------
 Structure from the checkpoint file:  "JID_1337.chk"
 Charge = -1 Multiplicity = 2

                         Standard orientation:
 ---------------------------------------------------------------------
 Center     Atomic      Atomic             Coordinates (Angstroms)
 Number     Number       Type             X           Y           Z
 ---------------------------------------------------------------------
      1          6           0       -1.057593   -1.671582    0.262188
      2          6           0       -0.472163   -1.279824   -1.123385
      3          6           0       -0.083265    0.209515   -1.114266
      4          6           0       -1.350971    1.067472   -0.961842
      5          6           0       -2.162150    0.583183    0.272290
      6          6           0       -1.304548   -0.397950    1.091392
      7          6           0        0.044728    0.266290    1.411414
      8          6           0        0.856244    0.496660    0.092954
      9          6           0        2.011785   -0.433411    0.045280
     10          7           0        2.949372   -1.118962    0.005493
     11          7           0        1.320391    1.890341    0.040064
     12          1           0       -1.994932   -2.226112    0.142979
     13          1           0       -0.364723   -2.330593    0.798552
     14          1           0        0.392139   -1.902885   -1.371910
     15          1           0       -1.213139   -1.434399   -1.915656
     16          1           0        0.445831    0.470141   -2.038981
     17          1           0       -1.061597    2.115136   -0.850015
     18          1           0       -1.946533    0.986275   -1.877679
     19          1           0       -3.087127    0.082932   -0.038520
     20          1           0       -2.457031    1.434963    0.895569
     21          1           0       -1.811244   -0.652290    2.029282
     22          1           0        0.620331   -0.343393    2.114769
     23          1           0       -0.119114    1.246730    1.872143
     24          1           0        1.910595    2.084624    0.848164
     25          1           0        1.905807    2.027100   -0.783739
 ---------------------------------------------------------------------

 SCF Done:  E(UB3LYP) =  -461.041959612     A.U. after   29 cycles

 The electronic state is 2-A.
 Alpha  occ. eigenvalues --  -14.20659 -14.20613 -10.14244 -10.10237 -10.07812
 Alpha  occ. eigenvalues --  -10.07098 -10.06932 -10.06276 -10.06088 -10.05708
 Alpha  occ. eigenvalues --  -10.05614  -0.82560  -0.79190  -0.74562  -0.65769
 Alpha  occ. eigenvalues --   -0.64000  -0.63434  -0.53482  -0.50881  -0.50062
 Alpha  occ. eigenvalues --   -0.43549  -0.40620  -0.39641  -0.39027  -0.36698
 Alpha  occ. eigenvalues --   -0.33530  -0.30846  -0.30016  -0.28434  -0.28066
 Alpha  occ. eigenvalues --   -0.27640  -0.27103  -0.26677  -0.25882  -0.23936
 Alpha  occ. eigenvalues --   -0.23253  -0.22414  -0.19720  -0.19363  -0.18998
 Alpha  occ. eigenvalues --   -0.16201   0.04454
 Alpha virt. eigenvalues --    0.06958   0.07440   0.08864   0.09519   0.09772
 Alpha virt. eigenvalues --    0.10496   0.10673   0.11354   0.12203   0.12647
 Alpha virt. eigenvalues --    0.13051   0.13140   0.13722   0.14233   0.14531

  Beta  occ. eigenvalues --  -14.20644 -14.20563 -10.14237 -10.10239 -10.07798
  Beta  occ. eigenvalues --  -10.07069 -10.06920 -10.06262 -10.06072 -10.05685
  Beta  occ. eigenvalues --  -10.05594  -0.82515  -0.79153  -0.74509  -0.65727
  Beta  occ. eigenvalues --   -0.63944  -0.63382  -0.53425  -0.50829  -0.50015
  Beta  occ. eigenvalues --   -0.43495  -0.40542  -0.39580  -0.38968  -0.36656
  Beta  occ. eigenvalues --   -0.33491  -0.30803  -0.29977  -0.28388  -0.28029
  Beta  occ. eigenvalues --   -0.27607  -0.27065  -0.26650  -0.25846  -0.23900
  Beta  occ. eigenvalues --   -0.23224  -0.22388  -0.19672  -0.19327  -0.18958
  Beta  occ. eigenvalues --   -0.16154
  Beta virt. eigenvalues --    0.06906   0.08061   0.08492   0.09323   0.10318
  Beta virt. eigenvalues --    0.10620   0.10903   0.10997   0.11653   0.12393
  Beta virt. eigenvalues --    0.13046   0.13421   0.13731   0.14133   0.14552

 Mulliken charges and spin densities:
               1          2
     1  C    0.774323  -1.209240
     2  C   -0.011047  -0.639836
     3  C   -0.093548   0.572187
     4  C   -0.916148   0.376353
     5  C    1.136604  -1.675058
     6  C   -1.345848   1.629536
     7  C    0.537308  -1.122379
     8  C    0.445952   0.182378
     9  C    1.948088  -2.722980
    10  N   -0.333693   0.080306
    11  N   -0.504077   0.265893
    12  H   -0.237646   0.390075
    13  H    0.091660   0.069589
    14  H    0.125492   0.043277
    15  H   -0.065829   0.225602
    16  H   -0.293894   0.548706
    17  H    0.102613   0.080502
    18  H   -0.578984   0.743544
    19  H   -0.157570   0.314844
    20  H   -0.136923   0.278007
    21  H   -0.640062   0.876760
    22  H   -0.359012   0.568390
    23  H   -0.186988   0.343521
    24  H   -0.077488   0.316645
    25  H   -0.223283   0.463378
 Sum of Mulliken charges =  -1.00000   1.00000

 Dipole moment (field-independent basis, Debye):
    X=              0.0562    Y=             -0.5568    Z=             -0.3941  Tot=              0.6845
 Quadrupole moment (field-independent basis, Debye-Ang):
   XX=           -123.1223   YY=           -105.2372   ZZ=           -108.0782
   XY=             -0.1461   XZ=              0.8363   YZ=              1.9832

 Summary of Natural Population Analysis:

                                       Natural Population
                Natural  -----------------------------------------------
    Atom  No    Charge         Core      Valence    Rydberg      Total
 -----------------------------------------------------------------------
      C    1   -0.19184      0.99962     2.18306    0.00916     3.19184
      C    2   -0.19697      0.99961     2.18816    0.00919     3.19697
      C    3   -0.10173      0.99957     2.08900    0.01315     3.10173
      C    4   -0.19537      0.99961     2.18630    0.00946     3.19537
      C    5   -0.19024      0.99962     2.18172    0.00890     3.19024
      C    6   -0.11099      0.99959     2.09964    0.01176     3.11099
      C    7   -0.18316      0.99958     2.17217    0.01141     3.18316
      C    8    0.00445      0.99946     1.97935    0.01674     2.99555
      C    9    0.16077      0.99961     1.81913    0.02049     2.83923
      N   10   -0.19123      0.99979     2.67928    0.01216     3.69123
      N   11   -0.40494      0.99976     2.89458    0.01059     3.90494
      H   12    0.10155      0.00000     0.39720    0.00125     0.39845
      H   13    0.09850      0.00000     0.40015    0.00136     0.40150
      H   14    0.10443      0.00000     0.39450    0.00106     0.39557
      H   15    0.10171      0.00000     0.39706    0.00123     0.39829
      H   16    0.10692      0.00000     0.39093    0.00215     0.39308
      H   17    0.10887      0.00000     0.38916    0.00196     0.39113
      H   18    0.10136      0.00000     0.39715    0.00150     0.39864
      H   19    0.09914      0.00000     0.39923    0.00163     0.40086
      H   20    0.09979      0.00000     0.39899    0.00122     0.40021
      H   21    0.10484      0.00000     0.39281    0.00235     0.39516
      H   22    0.10640      0.00000     0.39175    0.00186     0.39360
      H   23    0.10825      0.00000     0.38987    0.00188     0.39175
      H   24    0.17965      0.00000     0.31770    0.00265     0.32035
      H   25    0.17983      0.00000     0.31702    0.00315     0.32017
 =======================================================================
   * Total *   -0.00000     10.99583    29.84590    0.15827    41.00000

 Normal termination of Gaussian 16 at Tue Dec  8 20:06:14 2020.
