 Gaussian 16, Revision A.03,

 -----------------------------------------------------------
 # opt freq B3LYP/6-31G(d) empiricaldispersion=gd3bj scf=xqc
 -----------------------------------------------------------

 -------------------------------
 CID_152518493_JID_1124_neutraal
 -------------------------------
 Symbolic Z-matrix:
 Charge =  0 Multiplicity = 1

 SCF Done:  E(RB3LYP) =  -506.506424237     A.U. after   16 cycles
 SCF Done:  E(RB3LYP) =  -506.511506465     A.U. after   15 cycles
 SCF Done:  E(RB3LYP) =  -506.511994990     A.U. after   13 cycles
 SCF Done:  E(RB3LYP) =  -506.512342370     A.U. after   13 cycles
 SCF Done:  E(RB3LYP) =  -506.512375721     A.U. after   11 cycles
 SCF Done:  E(RB3LYP) =  -506.512385017     A.U. after   10 cycles
 SCF Done:  E(RB3LYP) =  -506.512389351     A.U. after   10 cycles
 SCF Done:  E(RB3LYP) =  -506.512393613     A.U. after   10 cycles
 SCF Done:  E(RB3LYP) =  -506.512400777     A.U. after   11 cycles
 SCF Done:  E(RB3LYP) =  -506.512406974     A.U. after   11 cycles
 SCF Done:  E(RB3LYP) =  -506.512409106     A.U. after   10 cycles
 SCF Done:  E(RB3LYP) =  -506.512409383     A.U. after    8 cycles
 SCF Done:  E(RB3LYP) =  -506.512409427     A.U. after    7 cycles
 Optimization completed.
    -- Stationary point found.
 Normal termination of Gaussian 16 at Tue Dec  8 19:13:15 2020.

 --------------------------------------------------------------------
 #N Geom=AllCheck Guess=TCheck SCRF=Check GenChk RB3LYP/6-31G(d) Freq
 --------------------------------------------------------------------

 Structure from the checkpoint file:  "JID_1124.chk"
 -------------------------------
 CID_152518493_JID_1124_neutraal
 -------------------------------
 Charge =  0 Multiplicity = 1

 SCF Done:  E(RB3LYP) =  -506.512409427     A.U. after    2 cycles

  Exact polarizability: 141.188 -10.062 112.076   7.341   2.187  48.053
 Approx polarizability: 253.311 -20.133 179.585  21.855   5.963  72.807

                      1                      2                      3
                      A                      A                      A
 Frequencies --     32.8531                79.8535                91.8388
 Red. masses --      2.7450                 4.6350                 8.6011
 Frc consts  --      0.0017                 0.0174                 0.0427
 IR Inten    --      0.2896                 3.2010                 0.0255

                      4                      5                      6
                      A                      A                      A
 Frequencies --    119.0585               183.6938               210.8787
 Red. masses --      5.0036                 2.7182                 2.5777
 Frc consts  --      0.0418                 0.0540                 0.0675
 IR Inten    --      0.7826                 0.8508                 2.2648

                      7                      8                      9
                      A                      A                      A
 Frequencies --    247.2757               335.4244               361.5974
 Red. masses --      1.6567                 8.7320                 3.9487
 Frc consts  --      0.0597                 0.5788                 0.3042
 IR Inten    --      0.7136                 0.8870                 6.7269

                     10                     11                     12
                      A                      A                      A
 Frequencies --    394.9073               459.6546               548.6272
 Red. masses --      2.9030                 5.0222                13.4671
 Frc consts  --      0.2667                 0.6252                 2.3883
 IR Inten    --      0.5240                 2.1826                 9.7669

                     13                     14                     15
                      A                      A                      A
 Frequencies --    562.6865               591.0405               687.3279
 Red. masses --      7.0537                 6.0110                 3.6647
 Frc consts  --      1.3158                 1.2372                 1.0200
 IR Inten    --      5.6233                 2.1042                 1.9596

                     16                     17                     18
                      A                      A                      A
 Frequencies --    726.8865               791.9546               839.5570
 Red. masses --      4.3764                 2.6620                 1.8203
 Frc consts  --      1.3624                 0.9837                 0.7559
 IR Inten    --      8.0333                17.5819                 0.3228

                     19                     20                     21
                      A                      A                      A
 Frequencies --    857.8770               891.9107               933.5044
 Red. masses --      1.4018                 8.7102                 2.2108
 Frc consts  --      0.6078                 4.0825                 1.1351
 IR Inten    --      2.1058                17.1385                 4.3175

                     22                     23                     24
                      A                      A                      A
 Frequencies --    947.6586               969.5531              1031.2591
 Red. masses --      1.3413                 7.6916                 2.3926
 Frc consts  --      0.7097                 4.2600                 1.4992
 IR Inten    --     12.7895                12.7232                29.5650

                     25                     26                     27
                      A                      A                      A
 Frequencies --   1095.8676              1131.2164              1181.8580
 Red. masses --      1.7180                 2.4237                 3.1840
 Frc consts  --      1.2156                 1.8273                 2.6203
 IR Inten    --      1.0331                 9.8311                 1.0815

                     28                     29                     30
                      A                      A                      A
 Frequencies --   1244.4290              1285.3881              1312.8186
 Red. masses --      2.1069                 1.5093                 1.7520
 Frc consts  --      1.9224                 1.4692                 1.7791
 IR Inten    --     13.5294                 3.6325                 7.8303

                     31                     32                     33
                      A                      A                      A
 Frequencies --   1343.0992              1385.4685              1435.1453
 Red. masses --      1.7485                 1.7691                 1.2304
 Frc consts  --      1.8584                 2.0007                 1.4931
 IR Inten    --     67.6320                76.5529                 7.3759

                     34                     35                     36
                      A                      A                      A
 Frequencies --   1457.6882              1513.0787              1527.4867
 Red. masses --      3.0840                 1.0847                 1.0430
 Frc consts  --      3.8609                 1.4632                 1.4338
 IR Inten    --    183.1247                 4.6816                 5.5543

                     37                     38                     39
                      A                      A                      A
 Frequencies --   1535.6710              1548.6683              1577.7845
 Red. masses --      1.0857                 9.5195                 6.9846
 Frc consts  --      1.5086                13.4518                10.2444
 IR Inten    --     13.7611               127.3616                42.5256

                     40                     41                     42
                      A                      A                      A
 Frequencies --   1735.1037              2290.7538              3034.2713
 Red. masses --      7.8545                13.9891                 1.0705
 Frc consts  --     13.9321                43.2510                 5.8068
 IR Inten    --    169.2251               670.5673                13.4486

                     43                     44                     45
                      A                      A                      A
 Frequencies --   3056.9249              3121.1815              3136.5681
 Red. masses --      1.0351                 1.0996                 1.0963
 Frc consts  --      5.6990                 6.3115                 6.3548
 IR Inten    --     32.2186                17.3484                14.3615

                     46                     47                     48
                      A                      A                      A
 Frequencies --   3137.8144              3154.6840              3227.6586
 Red. masses --      1.0976                 1.0925                 1.0954
 Frc consts  --      6.3672                 6.4058                 6.7233
 IR Inten    --     10.1831                17.7832                 7.0639

 - Thermochemistry -
 -------------------
 Temperature   298.150 Kelvin.  Pressure   1.00000 Atm.
 Atom     1 has atomic number  6 and mass  12.00000

 Molecular mass:   149.07015 amu.
 Principal axes and moments of inertia in atomic units:
                           1         2         3
     Eigenvalues --  1300.964201997.868453175.94308
           X            0.99756   0.06962  -0.00574
           Y           -0.06965   0.99756  -0.00519
           Z            0.00536   0.00557   0.99997
 This molecule is an asymmetric top.
 Rotational symmetry number  1.
 Warning -- assumption of classical behavior for rotation
           may cause significant error
 Rotational temperatures (Kelvin)      0.06658     0.04335     0.02727
 Rotational constants (GHZ):           1.38723     0.90333     0.56825
 Zero-point vibrational energy     355096.5 (Joules/Mol)
                                   84.87011 (Kcal/Mol)
 Warning -- explicit consideration of  14 degrees of freedom as
           vibrations may cause significant error
 Vibrational temperatures:     47.27   114.89   132.14   171.30   264.29
          (Kelvin)            303.41   355.77   482.60   520.26   568.18
                              661.34   789.35   809.58   850.38   988.91
                             1045.83  1139.45  1207.94  1234.29  1283.26
                             1343.10  1363.47  1394.97  1483.75  1576.71
                             1627.57  1700.43  1790.46  1849.39  1888.85
                             1932.42  1993.38  2064.85  2097.29  2176.98
                             2197.71  2209.49  2228.19  2270.08  2496.43
                             3295.88  4365.64  4398.23  4490.68  4512.82
                             4514.62  4538.89  4643.88

 Zero-point correction=                           0.135249 (Hartree/Particle)
 Thermal correction to Energy=                    0.145439
 Thermal correction to Enthalpy=                  0.146383
 Thermal correction to Gibbs Free Energy=         0.098164
 Sum of electronic and zero-point Energies=           -506.377160
 Sum of electronic and thermal Energies=              -506.366970
 Sum of electronic and thermal Enthalpies=            -506.366026
 Sum of electronic and thermal Free Energies=         -506.414245

                     E (Thermal)             CV                S
                      KCal/Mol        Cal/Mol-Kelvin    Cal/Mol-Kelvin
 Total                   91.264             36.150            101.486
 Electronic               0.000              0.000              0.000
 Translational            0.889              2.981             40.908
 Rotational               0.889              2.981             30.491
 Vibrational             89.487             30.188             30.087
 Vibration     1          0.594              1.983              5.649
 Vibration     2          0.600              1.963              3.894
 Vibration     3          0.602              1.955              3.621
 Vibration     4          0.609              1.933              3.116
 Vibration     5          0.631              1.862              2.291
 Vibration     6          0.643              1.824              2.036
 Vibration     7          0.661              1.767              1.750
 Vibration     8          0.717              1.605              1.234
 Vibration     9          0.736              1.551              1.115
 Vibration    10          0.762              1.481              0.982
 Vibration    11          0.818              1.340              0.767
 Vibration    12          0.904              1.143              0.547
 Vibration    13          0.918              1.112              0.518
 Vibration    14          0.948              1.051              0.465

 Optimization completed.
    -- Stationary point found.
 Normal termination of Gaussian 16 at Tue Dec  8 19:16:23 2020.

 ----------------------------------------------------------------------
 # B3LYP/6-311++G(d,p) empiricaldispersion=gd3bj scf=xqc pop=npa geom=c
 heck
 ----------------------------------------------------------------------

 ---------------------------------------
 CID_152518493_JID_1124_Energie_neutraal
 ---------------------------------------
 Structure from the checkpoint file:  "JID_1124.chk"
 Charge =  0 Multiplicity = 1

 SCF Done:  E(RB3LYP) =  -506.647232277     A.U. after   18 cycles
 Normal termination of Gaussian 16 at Tue Dec  8 19:17:40 2020.

 ----------------------------------------------------------------------
 # B3LYP/6-311++G(d,p) empiricaldispersion=gd3bj scf=xqc pop=npa geom=c
 heck
 ----------------------------------------------------------------------

 -------------------------------------
 CID_152518493_JID_1124_Energie_kation
 -------------------------------------
 Structure from the checkpoint file:  "JID_1124.chk"
 Charge =  1 Multiplicity = 2

 SCF Done:  E(UB3LYP) =  -506.322759071     A.U. after   26 cycles
 Normal termination of Gaussian 16 at Tue Dec  8 19:20:55 2020.
 Gaussian 16:  ES64L-G16RevA.03 25-Dec-2016

 ----------------------------------------------------------------------
 # B3LYP/6-311++G(d,p) empiricaldispersion=gd3bj scf=xqc pop=npa geom=c
 heck
 ----------------------------------------------------------------------

 ------------------------------------
 CID_152518493_JID_1124_Energie_anion
 ------------------------------------
 Structure from the checkpoint file:  "JID_1124.chk"
 Charge = -1 Multiplicity = 2

                         Standard orientation:
 ---------------------------------------------------------------------
 Center     Atomic      Atomic             Coordinates (Angstroms)
 Number     Number       Type             X           Y           Z
 ---------------------------------------------------------------------
      1          6           0       -3.211233   -1.290723    0.635730
      2          6           0       -2.280221   -0.874119   -0.520089
      3          6           0       -1.814372    0.534987   -0.353840
      4          6           0       -0.555021    0.968831   -0.148359
      5          6           0       -0.098942    2.345339    0.037454
      6          7           0        1.182996    2.408488    0.214905
      7          7           0        1.716137    1.079592    0.168696
      8          6           0        0.728184    0.260991   -0.039355
      9          7           0        0.854289   -1.125692   -0.142239
     10          7           0        2.011296   -1.580172   -0.024165
     11          7           0        2.993706   -2.140737    0.061069
     12          1           0       -2.675155   -1.273449    1.589788
     13          1           0       -3.586176   -2.305620    0.471179
     14          1           0       -4.073315   -0.619209    0.717785
     15          1           0       -1.430817   -1.556225   -0.588124
     16          1           0       -2.838439   -0.939317   -1.465182
     17          1           0       -2.597123    1.295578   -0.376010
     18          1           0       -0.718316    3.236052    0.033465
 ---------------------------------------------------------------------

 SCF Done:  E(UB3LYP) =  -506.693149385     A.U. after   24 cycles

 The electronic state is 2-A.
 Alpha  occ. eigenvalues --  -14.34977 -14.25309 -14.23455 -14.15191 -14.14469
 Alpha  occ. eigenvalues --  -10.06895 -10.04860 -10.04251 -10.02544 -10.01813
 Alpha  occ. eigenvalues --  -10.01638  -1.01374  -0.86424  -0.82346  -0.67242
 Alpha  occ. eigenvalues --   -0.64623  -0.61426  -0.54233  -0.50691  -0.44842
 Alpha  occ. eigenvalues --   -0.42324  -0.38522  -0.37012  -0.35202  -0.33736
 Alpha  occ. eigenvalues --   -0.32864  -0.30702  -0.28985  -0.26758  -0.25436
 Alpha  occ. eigenvalues --   -0.24961  -0.23181  -0.21070  -0.18642  -0.17466
 Alpha  occ. eigenvalues --   -0.13268  -0.12847  -0.09407  -0.08098   0.01828
 Alpha virt. eigenvalues --    0.08094   0.09234   0.10254   0.10660   0.11909
 Alpha virt. eigenvalues --    0.11962   0.12885   0.14085   0.14677   0.15672
 Alpha virt. eigenvalues --    0.16590   0.17414   0.17828   0.18873   0.19398

  Beta  occ. eigenvalues --  -14.34867 -14.25106 -14.23567 -14.15106 -14.14292
  Beta  occ. eigenvalues --  -10.06651 -10.04786 -10.04305 -10.02324 -10.01908
  Beta  occ. eigenvalues --  -10.00868  -1.01147  -0.86260  -0.82031  -0.66580
  Beta  occ. eigenvalues --   -0.64274  -0.61051  -0.53559  -0.50569  -0.44185
  Beta  occ. eigenvalues --   -0.42010  -0.37893  -0.36825  -0.34883  -0.33449
  Beta  occ. eigenvalues --   -0.32495  -0.30406  -0.28734  -0.25869  -0.24802
  Beta  occ. eigenvalues --   -0.24609  -0.23016  -0.20743  -0.18605  -0.16846
  Beta  occ. eigenvalues --   -0.13085  -0.10503  -0.09166  -0.06965
  Beta virt. eigenvalues --    0.07708   0.09220   0.09422   0.10266   0.10637
  Beta virt. eigenvalues --    0.11878   0.12847   0.13324   0.14089   0.14661
  Beta virt. eigenvalues --    0.15718   0.16653   0.17411   0.17863   0.18921

 Mulliken charges and spin densities:
               1          2
     1  C   -0.534585  -0.030688
     2  C   -0.315029  -0.042320
     3  C   -0.177072   0.614829
     4  C    0.690247  -0.104830
     5  C   -0.589699   0.173603
     6  N   -0.155746   0.033324
     7  N   -0.253080   0.096268
     8  C   -0.556852   0.116650
     9  N   -0.475685  -0.052221
    10  N    0.776142   0.031956
    11  N   -0.186084   0.105197
    12  H    0.130088   0.001464
    13  H    0.054582   0.056508
    14  H    0.098525   0.015865
    15  H    0.178501   0.003547
    16  H    0.084635   0.032163
    17  H    0.136634  -0.041421
    18  H    0.094478  -0.009894
 Sum of Mulliken charges =  -1.00000   1.00000

 Dipole moment (field-independent basis, Debye):
    X=             -5.1107    Y=             -3.3015    Z=             -0.5515  Tot=              6.1093
 Quadrupole moment (field-independent basis, Debye-Ang):
   XX=            -95.8285   YY=            -88.3236   ZZ=            -71.0705
   XY=             -5.9733   XZ=             -1.3825   YZ=             -1.1272

 Summary of Natural Population Analysis:

                                       Natural Population
                Natural  -----------------------------------------------
    Atom  No    Charge         Core      Valence    Rydberg      Total
 -----------------------------------------------------------------------
      C    1   -0.27091      0.99967     2.26675    0.00450     3.27091
      C    2   -0.22008      0.99963     2.21332    0.00712     3.22008
      C    3    0.14128      0.99952     1.85054    0.00866     2.85872
      C    4   -0.12265      0.99948     2.11347    0.00970     3.12265
      C    5    0.05168      0.99961     1.93285    0.01586     2.94832
      N    6   -0.15567      0.99971     2.63963    0.01634     3.65567
      N    7   -0.16719      0.99965     2.65317    0.01437     3.66719
      C    8    0.19623      0.99949     1.78284    0.02144     2.80377
      N    9   -0.20240      0.99964     2.68792    0.01483     3.70240
      N   10    0.13974      0.99971     2.34362    0.01693     3.36026
      N   11   -0.02144      0.99981     2.50790    0.01373     3.52144
      H   12    0.09671      0.00000     0.40201    0.00128     0.40329
      H   13    0.08980      0.00000     0.40886    0.00135     0.41020
      H   14    0.08936      0.00000     0.40920    0.00144     0.41064
      H   15    0.10801      0.00000     0.39021    0.00179     0.39199
      H   16    0.09589      0.00000     0.40241    0.00170     0.40411
      H   17    0.07132      0.00000     0.42720    0.00148     0.42868
      H   18    0.08032      0.00000     0.41839    0.00128     0.41968
 =======================================================================
   * Total *    0.00000     10.99591    27.85029    0.15380    39.00000

 Normal termination of Gaussian 16 at Tue Dec  8 19:23:50 2020.
