 Gaussian 16, Revision A.03,

 -----------------------------------------------------------
 # opt freq B3LYP/6-31G(d) empiricaldispersion=gd3bj scf=xqc
 -----------------------------------------------------------

 -------------------------------
 CID_116096477_JID_5842_neutraal
 -------------------------------
 Symbolic Z-matrix:
 Charge =  0 Multiplicity = 1

 SCF Done:  E(RB3LYP) =  -1355.81569917     A.U. after   14 cycles
 SCF Done:  E(RB3LYP) =  -1355.81539133     A.U. after   14 cycles
 SCF Done:  E(RB3LYP) =  -1355.81917874     A.U. after   12 cycles
 SCF Done:  E(RB3LYP) =  -1355.81964555     A.U. after   12 cycles
 SCF Done:  E(RB3LYP) =  -1355.81961555     A.U. after   12 cycles
 SCF Done:  E(RB3LYP) =  -1355.82012746     A.U. after   12 cycles
 SCF Done:  E(RB3LYP) =  -1355.82015780     A.U. after   12 cycles
 SCF Done:  E(RB3LYP) =  -1355.82028279     A.U. after   11 cycles
 SCF Done:  E(RB3LYP) =  -1355.82030238     A.U. after   10 cycles
 SCF Done:  E(RB3LYP) =  -1355.82030433     A.U. after    9 cycles
 SCF Done:  E(RB3LYP) =  -1355.82030610     A.U. after    8 cycles
 SCF Done:  E(RB3LYP) =  -1355.82030668     A.U. after    8 cycles
 SCF Done:  E(RB3LYP) =  -1355.82030689     A.U. after    7 cycles
 SCF Done:  E(RB3LYP) =  -1355.82030694     A.U. after    7 cycles
 SCF Done:  E(RB3LYP) =  -1355.82030696     A.U. after    7 cycles
 Optimization completed.
    -- Stationary point found.
 Normal termination of Gaussian 16 at Thu Dec 10 17:19:52 2020.

 --------------------------------------------------------------------
 #N Geom=AllCheck Guess=TCheck SCRF=Check GenChk RB3LYP/6-31G(d) Freq
 --------------------------------------------------------------------

 Structure from the checkpoint file:  "JID_5842.chk"
 -------------------------------
 CID_116096477_JID_5842_neutraal
 -------------------------------
 Charge =  0 Multiplicity = 1

 SCF Done:  E(RB3LYP) =  -1355.82030696     A.U. after    1 cycles

  Exact polarizability: 167.069  22.199 158.951 -13.199   8.105 147.648
 Approx polarizability: 247.636  48.717 249.441 -25.401  17.983 244.830

                      1                      2                      3
                      A                      A                      A
 Frequencies --     17.3729                30.8174                61.0517
 Red. masses --      4.7588                 3.4004                 4.3361
 Frc consts  --      0.0008                 0.0019                 0.0095
 IR Inten    --      0.1414                 0.4326                 1.1157

                      4                      5                      6
                      A                      A                      A
 Frequencies --     66.9586                82.1822                95.1832
 Red. masses --      3.0079                 3.4729                 2.6941
 Frc consts  --      0.0079                 0.0138                 0.0144
 IR Inten    --      0.1326                 4.0426                 0.6465

                      7                      8                      9
                      A                      A                      A
 Frequencies --    152.3764               163.0106               182.0828
 Red. masses --      4.1548                 1.9905                 3.3015
 Frc consts  --      0.0568                 0.0312                 0.0645
 IR Inten    --      0.4861                 1.4264                 1.0002

                     10                     11                     12
                      A                      A                      A
 Frequencies --    209.2871               241.9884               248.9010
 Red. masses --      3.9215                 2.2225                 1.3671
 Frc consts  --      0.1012                 0.0767                 0.0499
 IR Inten    --      3.0962                 0.2585                 0.3730

                     13                     14                     15
                      A                      A                      A
 Frequencies --    265.9140               284.4119               300.5049
 Red. masses --      1.9248                 1.8773                 3.6335
 Frc consts  --      0.0802                 0.0895                 0.1933
 IR Inten    --      1.0322                 2.9022                 3.2944

                     16                     17                     18
                      A                      A                      A
 Frequencies --    329.2223               333.6570               359.8691
 Red. masses --      2.4696                 1.5111                 3.4159
 Frc consts  --      0.1577                 0.0991                 0.2606
 IR Inten    --     19.9955                26.4594                 1.4026

                     19                     20                     21
                      A                      A                      A
 Frequencies --    370.6643               380.0881               438.1658
 Red. masses --      4.4641                 3.8254                 6.7549
 Frc consts  --      0.3614                 0.3256                 0.7641
 IR Inten    --      0.5915                 5.3590                 1.9015

                     22                     23                     24
                      A                      A                      A
 Frequencies --    473.4059               480.3409               549.0495
 Red. masses --      3.7237                 3.7732                 3.7971
 Frc consts  --      0.4917                 0.5129                 0.6744
 IR Inten    --     11.5791                 4.4814                 4.3721

                     25                     26                     27
                      A                      A                      A
 Frequencies --    589.0161               644.7953               646.7781
 Red. masses --      3.3699                 2.3288                 1.9714
 Frc consts  --      0.6888                 0.5705                 0.4859
 IR Inten    --     11.6617                75.5904               180.2076

                     28                     29                     30
                      A                      A                      A
 Frequencies --    681.7015               699.2698               711.8847
 Red. masses --      3.3043                 6.5811                 2.9639
 Frc consts  --      0.9047                 1.8960                 0.8850
 IR Inten    --     12.0044                 4.2642                18.1522

                     31                     32                     33
                      A                      A                      A
 Frequencies --    728.3539               765.1927               793.8979
 Red. masses --      3.7738                 1.4243                 3.7464
 Frc consts  --      1.1795                 0.4913                 1.3912
 IR Inten    --      9.8978                 3.2573                12.9660

                     34                     35                     36
                      A                      A                      A
 Frequencies --    797.0488               831.1211               868.4219
 Red. masses --      1.5944                 1.5499                 1.4392
 Frc consts  --      0.5968                 0.6308                 0.6395
 IR Inten    --      4.8589                33.7913                21.6934

                     37                     38                     39
                      A                      A                      A
 Frequencies --    912.2057               941.7745               964.7497
 Red. masses --      5.8818                 1.2841                 1.5430
 Frc consts  --      2.8837                 0.6710                 0.8462
 IR Inten    --      8.9772                 0.0608                 3.5298

                     40                     41                     42
                      A                      A                      A
 Frequencies --    992.5789              1034.1638              1064.3677
 Red. masses --      1.9108                 3.9495                 2.5203
 Frc consts  --      1.1092                 2.4887                 1.6822
 IR Inten    --      5.3058                 0.8056                 1.5333

                     43                     44                     45
                      A                      A                      A
 Frequencies --   1075.0353              1084.8814              1087.8230
 Red. masses --      1.4340                 1.8132                 4.2463
 Frc consts  --      0.9764                 1.2573                 2.9606
 IR Inten    --      1.1896                 4.3226                53.8192

                     46                     47                     48
                      A                      A                      A
 Frequencies --   1119.6255              1175.6504              1181.5236
 Red. masses --      1.7163                 1.1274                 1.1665
 Frc consts  --      1.2676                 0.9181                 0.9595
 IR Inten    --      5.7727                 4.3081                12.2863

                     49                     50                     51
                      A                      A                      A
 Frequencies --   1187.6164              1221.9614              1259.0971
 Red. masses --      1.2726                 1.3941                 1.1869
 Frc consts  --      1.0575                 1.2265                 1.1086
 IR Inten    --      0.8115                 3.6962                25.3547

                     52                     53                     54
                      A                      A                      A
 Frequencies --   1279.7457              1292.6340              1302.0521
 Red. masses --      2.1677                 1.1954                 4.1843
 Frc consts  --      2.0916                 1.1768                 4.1796
 IR Inten    --    146.3402                 1.4184                67.3991

                     55                     56                     57
                      A                      A                      A
 Frequencies --   1319.4732              1326.0792              1335.7819
 Red. masses --      1.1191                 1.2683                 1.7071
 Frc consts  --      1.1479                 1.3140                 1.7946
 IR Inten    --      0.7957                19.8054                 7.0094

                     58                     59                     60
                      A                      A                      A
 Frequencies --   1346.7433              1383.1086              1441.5181
 Red. masses --      1.2452                 4.6085                 1.2261
 Frc consts  --      1.3307                 5.1942                 1.5011
 IR Inten    --      4.8794                43.2819                 1.6606

                     61                     62                     63
                      A                      A                      A
 Frequencies --   1456.3569              1489.9007              1493.4391
 Red. masses --      3.7051                 1.0911                 1.0936
 Frc consts  --      4.6301                 1.4270                 1.4371
 IR Inten    --     21.9649                 1.5173                 2.4322

                     64                     65                     66
                      A                      A                      A
 Frequencies --   1499.3671              1506.6155              1519.6621
 Red. masses --      1.2163                 1.0887                 1.0485
 Frc consts  --      1.6111                 1.4560                 1.4266
 IR Inten    --     29.0578                 7.5227                 5.3529

                     67                     68                     69
                      A                      A                      A
 Frequencies --   1523.2512              1533.8395              1535.7597
 Red. masses --      1.0484                 1.0514                 1.1084
 Frc consts  --      1.4333                 1.4574                 1.5402
 IR Inten    --      8.7105                12.2978                72.6743

                     70                     71                     72
                      A                      A                      A
 Frequencies --   1553.5128              1624.8359              1660.6924
 Red. masses --      2.2643                 6.4476                 1.6606
 Frc consts  --      3.2196                10.0292                 2.6984
 IR Inten    --    149.4127                 1.1539                98.9806

                     73                     74                     75
                      A                      A                      A
 Frequencies --   1684.6996              3017.8562              3055.2424
 Red. masses --      2.3546                 1.0357                 1.0413
 Frc consts  --      3.9374                 5.5574                 5.7269
 IR Inten    --     36.9141                48.0995                18.9901

                     76                     77                     78
                      A                      A                      A
 Frequencies --   3061.4976              3073.8095              3091.9570
 Red. masses --      1.0597                 1.1059                 1.0587
 Frc consts  --      5.8518                 6.1564                 5.9632
 IR Inten    --     18.8912                48.6093                13.4786

                     79                     80                     81
                      A                      A                      A
 Frequencies --   3102.6536              3107.4266              3121.6483
 Red. masses --      1.0636                 1.1030                 1.0979
 Frc consts  --      6.0323                 6.2750                 6.3034
 IR Inten    --      7.3982                 9.4038                20.8617

                     82                     83                     84
                      A                      A                      A
 Frequencies --   3140.4293              3151.5165              3157.8676
 Red. masses --      1.1043                 1.1026                 1.0989
 Frc consts  --      6.4167                 6.4525                 6.4567
 IR Inten    --      5.4783                21.9849                29.4430

                     85                     86                     87
                      A                      A                      A
 Frequencies --   3164.3430              3182.1074              3217.5246
 Red. masses --      1.1037                 1.0888                 1.0931
 Frc consts  --      6.5111                 6.4955                 6.6671
 IR Inten    --      4.8130                16.0247                 7.1026

                     88                     89                     90
                      A                      A                      A
 Frequencies --   3229.0943              3540.4805              3645.6949
 Red. masses --      1.0896                 1.0478                 1.0980
 Frc consts  --      6.6936                 7.7388                 8.5986
 IR Inten    --      3.4288                15.5667                18.5794

 - Thermochemistry -
 -------------------
 Temperature   298.150 Kelvin.  Pressure   1.00000 Atm.
 Atom     1 has atomic number  6 and mass  12.00000

 Molecular mass:   243.07516 amu.
 Principal axes and moments of inertia in atomic units:
                           1         2         3
     Eigenvalues --  3332.876894893.300895917.22876
           X            0.99949   0.03068   0.00907
           Y           -0.03105   0.99853   0.04453
           Z           -0.00769  -0.04479   0.99897
 This molecule is an asymmetric top.
 Rotational symmetry number  1.
 Warning -- assumption of classical behavior for rotation
           may cause significant error
 Rotational temperatures (Kelvin)      0.02599     0.01770     0.01464
 Rotational constants (GHZ):           0.54150     0.36882     0.30500
 Zero-point vibrational energy     701892.5 (Joules/Mol)
                                  167.75633 (Kcal/Mol)
 Warning -- explicit consideration of  25 degrees of freedom as
           vibrations may cause significant error
 Vibrational temperatures:     25.00    44.34    87.84    96.34   118.24
          (Kelvin)            136.95   219.24   234.54   261.98   301.12
                              348.17   358.11   382.59   409.21   432.36
                              473.68   480.06   517.77   533.30   546.86
                              630.42   681.13   691.10   789.96   847.46
                              927.72   930.57   980.82  1006.09  1024.24
                             1047.94  1100.94  1142.24  1146.78  1195.80
                             1249.47  1312.46  1355.00  1388.06  1428.10
                             1487.93  1531.39  1546.74  1560.90  1565.13
                             1610.89  1691.50  1699.95  1708.72  1758.13
                             1811.56  1841.27  1859.81  1873.36  1898.43
                             1907.93  1921.89  1937.66  1989.98  2074.02
                             2095.37  2143.63  2148.73  2157.25  2167.68
                             2186.45  2191.62  2206.85  2209.62  2235.16
                             2337.78  2389.37  2423.91  4342.02  4395.81
                             4404.81  4422.53  4448.64  4464.03  4470.89
                             4491.36  4518.38  4534.33  4543.47  4552.78
                             4578.34  4629.30  4645.95  5093.96  5245.34

 Zero-point correction=                           0.267337 (Hartree/Particle)
 Thermal correction to Energy=                    0.284341
 Thermal correction to Enthalpy=                  0.285285
 Thermal correction to Gibbs Free Energy=         0.221128
 Sum of electronic and zero-point Energies=          -1355.552970
 Sum of electronic and thermal Energies=             -1355.535966
 Sum of electronic and thermal Enthalpies=           -1355.535022
 Sum of electronic and thermal Free Energies=        -1355.599179

                     E (Thermal)             CV                S
                      KCal/Mol        Cal/Mol-Kelvin    Cal/Mol-Kelvin
 Total                  178.427             62.847            135.031
 Electronic               0.000              0.000              0.000
 Translational            0.889              2.981             42.366
 Rotational               0.889              2.981             32.934
 Vibrational            176.649             56.885             59.731
 Vibration     1          0.593              1.986              6.914
 Vibration     2          0.594              1.984              5.776
 Vibration     3          0.597              1.973              4.423
 Vibration     4          0.598              1.970              4.241
 Vibration     5          0.600              1.961              3.838
 Vibration     6          0.603              1.953              3.551
 Vibration     7          0.619              1.900              2.642
 Vibration     8          0.623              1.888              2.515
 Vibration     9          0.630              1.864              2.307
 Vibration    10          0.642              1.827              2.050
 Vibration    11          0.658              1.776              1.788
 Vibration    12          0.662              1.765              1.738
 Vibration    13          0.672              1.736              1.623
 Vibration    14          0.683              1.703              1.507
 Vibration    15          0.693              1.673              1.414
 Vibration    16          0.712              1.617              1.264
 Vibration    17          0.715              1.608              1.242
 Vibration    18          0.734              1.555              1.123
 Vibration    19          0.743              1.532              1.077
 Vibration    20          0.750              1.513              1.039
 Vibration    21          0.798              1.387              0.832
 Vibration    22          0.830              1.309              0.728
 Vibration    23          0.837              1.294              0.709
 Vibration    24          0.904              1.142              0.546
 Vibration    25          0.946              1.055              0.469

 Optimization completed.
    -- Stationary point found.
 Normal termination of Gaussian 16 at Thu Dec 10 17:32:35 2020.

 ----------------------------------------------------------------------
 # B3LYP/6-311++G(d,p) empiricaldispersion=gd3bj scf=xqc pop=npa geom=c
 heck
 ----------------------------------------------------------------------

 ---------------------------------------
 CID_116096477_JID_5842_Energie_neutraal
 ---------------------------------------
 Structure from the checkpoint file:  "JID_5842.chk"
 Charge =  0 Multiplicity = 1

 SCF Done:  E(RB3LYP) =  -1356.03478241     A.U. after   15 cycles
 Normal termination of Gaussian 16 at Thu Dec 10 17:39:46 2020.

 ----------------------------------------------------------------------
 # B3LYP/6-311++G(d,p) empiricaldispersion=gd3bj scf=xqc pop=npa geom=c
 heck
 ----------------------------------------------------------------------

 -------------------------------------
 CID_116096477_JID_5842_Energie_kation
 -------------------------------------
 Structure from the checkpoint file:  "JID_5842.chk"
 Charge =  1 Multiplicity = 2

 SCF Done:  E(UB3LYP) =  -1355.77037064     A.U. after   22 cycles
 Normal termination of Gaussian 16 at Thu Dec 10 17:53:12 2020.
 Gaussian 16:  ES64L-G16RevA.03 25-Dec-2016

 ----------------------------------------------------------------------
 # B3LYP/6-311++G(d,p) empiricaldispersion=gd3bj scf=xqc pop=npa geom=c
 heck
 ----------------------------------------------------------------------

 ------------------------------------
 CID_116096477_JID_5842_Energie_anion
 ------------------------------------
 Structure from the checkpoint file:  "JID_5842.chk"
 Charge = -1 Multiplicity = 2

                         Standard orientation:
 ---------------------------------------------------------------------
 Center     Atomic      Atomic             Coordinates (Angstroms)
 Number     Number       Type             X           Y           Z
 ---------------------------------------------------------------------
      1          6           0        0.771709   -1.956875    1.631794
      2          6           0        1.605316   -2.295615    0.399126
      3         16           0        3.158297   -1.324130    0.221705
      4          6           0        2.460906    0.350415   -0.053501
      5          6           0        1.840740    0.503170   -1.441848
      6         16           0        0.609128    1.877557   -1.541752
      7          6           0       -0.606201    1.219597   -0.399080
      8          6           0       -0.714726    1.738332    0.905050
      9          6           0       -1.686422    1.174337    1.756089
     10          6           0       -2.495472    0.131001    1.339792
     11          6           0       -2.368016   -0.394914    0.046063
     12          6           0       -1.430852    0.162981   -0.820178
     13          8           0       -3.203719   -1.433652   -0.266108
     14          6           0       -3.074452   -2.008929   -1.553038
     15          7           0        0.156414    2.715608    1.388400
     16          1           0        1.359224   -2.078432    2.547038
     17          1           0       -0.100827   -2.619201    1.685762
     18          1           0        0.393644   -0.931874    1.597198
     19          1           0        1.946010   -3.335644    0.432201
     20          1           0        1.005754   -2.184953   -0.511478
     21          1           0        1.731261    0.558666    0.730036
     22          1           0        3.286805    1.053741    0.082547
     23          1           0        2.602350    0.715187   -2.197574
     24          1           0        1.320825   -0.408064   -1.745182
     25          1           0       -1.783152    1.556168    2.769407
     26          1           0       -3.235067   -0.301024    2.006063
     27          1           0       -1.321939   -0.194352   -1.836849
     28          1           0       -3.297436   -1.282147   -2.345949
     29          1           0       -2.064958   -2.412755   -1.713561
     30          1           0       -3.800305   -2.822768   -1.595256
     31          1           0       -0.234665    3.315640    2.103614
     32          1           0        0.633359    3.235923    0.661185
 ---------------------------------------------------------------------

 SCF Done:  E(UB3LYP) =  -1356.02262330     A.U. after   33 cycles
 SCF Done:  E(UB3LYP) =  -1356.02262330     a.u. after    1 cycles

 The electronic state is 2-A.
 Alpha  occ. eigenvalues --  -88.74617 -88.74383 -19.05016 -14.21454 -10.12498
 Alpha  occ. eigenvalues --  -10.12073 -10.11338 -10.10618 -10.10603 -10.10381
 Alpha  occ. eigenvalues --  -10.09430 -10.07003 -10.06865 -10.06721 -10.06702
 Alpha  occ. eigenvalues --   -7.83201  -7.82992  -5.79583  -5.79380  -5.79238
 Alpha  occ. eigenvalues --   -5.79023  -5.78592  -5.78369  -0.96555  -0.82165
 Alpha  occ. eigenvalues --   -0.74509  -0.72833  -0.69679  -0.66134  -0.64051
 Alpha  occ. eigenvalues --   -0.62199  -0.59074  -0.56786  -0.53404  -0.50458
 Alpha  occ. eigenvalues --   -0.48254  -0.47434  -0.42747  -0.42143  -0.40492
 Alpha  occ. eigenvalues --   -0.38848  -0.36842  -0.36350  -0.36199  -0.34541
 Alpha  occ. eigenvalues --   -0.33836  -0.31995  -0.31681  -0.31462  -0.30416
 Alpha  occ. eigenvalues --   -0.29353  -0.28628  -0.27943  -0.27205  -0.26437
 Alpha  occ. eigenvalues --   -0.25373  -0.24856  -0.23845  -0.22166  -0.20872
 Alpha  occ. eigenvalues --   -0.18474  -0.15962  -0.14022  -0.13045  -0.09702
 Alpha  occ. eigenvalues --    0.04354
 Alpha virt. eigenvalues --    0.05876   0.06549   0.07362   0.07451   0.08387
 Alpha virt. eigenvalues --    0.08688   0.09667   0.09807   0.10405   0.10505
 Alpha virt. eigenvalues --    0.11053   0.11585   0.11682   0.12252   0.12910

  Beta  occ. eigenvalues --  -88.74615 -88.74382 -19.05013 -14.21422 -10.12525
  Beta  occ. eigenvalues --  -10.12029 -10.11348 -10.10610 -10.10559 -10.10370
  Beta  occ. eigenvalues --  -10.09375 -10.06920 -10.06807 -10.06711 -10.06610
  Beta  occ. eigenvalues --   -7.83199  -7.82991  -5.79576  -5.79379  -5.79235
  Beta  occ. eigenvalues --   -5.79022  -5.78591  -5.78368  -0.96546  -0.82107
  Beta  occ. eigenvalues --   -0.74407  -0.72788  -0.69612  -0.66044  -0.63963
  Beta  occ. eigenvalues --   -0.62116  -0.58982  -0.56726  -0.53304  -0.50352
  Beta  occ. eigenvalues --   -0.48213  -0.47388  -0.42687  -0.42080  -0.40421
  Beta  occ. eigenvalues --   -0.38818  -0.36813  -0.36308  -0.36145  -0.34479
  Beta  occ. eigenvalues --   -0.33782  -0.31927  -0.31613  -0.31409  -0.30338
  Beta  occ. eigenvalues --   -0.29322  -0.28502  -0.27903  -0.27144  -0.26395
  Beta  occ. eigenvalues --   -0.25336  -0.24807  -0.23801  -0.22117  -0.20825
  Beta  occ. eigenvalues --   -0.18328  -0.15538  -0.13971  -0.12985  -0.09507
  Beta virt. eigenvalues --    0.06611   0.07007   0.07214   0.07744   0.07945
  Beta virt. eigenvalues --    0.08711   0.09121   0.09866   0.10072   0.10347
  Beta virt. eigenvalues --    0.10801   0.11148   0.11666   0.11969   0.12412

 Mulliken charges and spin densities:
               1          2
     1  C   -0.597861  -0.010818
     2  C   -0.103130  -0.117528
     3  S    0.023214   0.023726
     4  C   -0.245500   0.053604
     5  C   -0.297897  -0.454857
     6  S    0.367298  -0.593980
     7  C    1.893510  -0.821539
     8  C    0.263315  -0.457721
     9  C   -0.997266   0.681171
    10  C    0.472476  -0.331493
    11  C   -1.681062   0.714916
    12  C    0.036450  -0.158493
    13  O   -0.149604   0.036436
    14  C    0.920365  -1.272555
    15  N   -0.251191  -0.034416
    16  H    0.088479   0.036639
    17  H   -0.012190   0.133925
    18  H    0.369947  -0.177943
    19  H    0.032769   0.190489
    20  H    0.285193  -0.185995
    21  H    0.150390   0.082472
    22  H    0.018401   0.195547
    23  H   -0.013571   0.210919
    24  H   -0.080118   0.259764
    25  H   -0.481583   0.635644
    26  H    0.102803   0.071570
    27  H    0.081914   0.119208
    28  H   -0.221204   0.374788
    29  H   -0.286582   0.448064
    30  H   -0.618793   0.787113
    31  H   -0.204141   0.465622
    32  H    0.135168   0.095723
 Sum of Mulliken charges =  -1.00000   1.00000

 Dipole moment (field-independent basis, Debye):
    X=              3.3335    Y=              0.4800    Z=              0.4504  Tot=              3.3979
 Quadrupole moment (field-independent basis, Debye-Ang):
   XX=           -164.5418   YY=           -158.1010   ZZ=           -150.8700
   XY=             -7.7593   XZ=             -5.4539   YZ=            -13.6937

 Summary of Natural Population Analysis:

                                       Natural Population
                Natural  -----------------------------------------------
    Atom  No    Charge         Core      Valence    Rydberg      Total
 -----------------------------------------------------------------------
      C    1   -0.29358      0.99965     2.28756    0.00637     3.29358
      C    2   -0.25237      0.99961     2.24238    0.01039     3.25237
      S    3    0.08157      4.99963     2.90186    0.01694     7.91843
      C    4   -0.26350      0.99956     2.25202    0.01192     3.26350
      C    5   -0.24781      0.99956     2.23591    0.01234     3.24781
      S    6    0.09535      4.99956     2.88696    0.01813     7.90465
      C    7   -0.10731      0.99938     2.09480    0.01314     3.10731
      C    8    0.06483      0.99941     1.92319    0.01257     2.93517
      C    9   -0.10829      0.99952     2.09871    0.01006     3.10829
      C   10   -0.08943      0.99953     2.08091    0.00899     3.08943
      C   11    0.13967      0.99936     1.84743    0.01354     2.86033
      C   12   -0.12762      0.99946     2.11800    0.01017     3.12762
      O   13   -0.27606      0.99986     3.26610    0.01010     4.27606
      C   14   -0.09980      0.99960     2.09079    0.00940     3.09980
      N   15   -0.40277      0.99971     2.89285    0.01021     3.90277
      H   16    0.09670      0.00000     0.40213    0.00117     0.40330
      H   17    0.10316      0.00000     0.39578    0.00106     0.39684
      H   18    0.10634      0.00000     0.39204    0.00162     0.39366
      H   19    0.10216      0.00000     0.39690    0.00094     0.39784
      H   20    0.10018      0.00000     0.39804    0.00177     0.39982
      H   21    0.11369      0.00000     0.38377    0.00254     0.38631
      H   22    0.10756      0.00000     0.39142    0.00102     0.39244
      H   23    0.10552      0.00000     0.39295    0.00154     0.39448
      H   24    0.10188      0.00000     0.39620    0.00191     0.39812
      H   25    0.10055      0.00000     0.39832    0.00113     0.39945
      H   26    0.10347      0.00000     0.39537    0.00115     0.39653
      H   27    0.10756      0.00000     0.39079    0.00165     0.39244
      H   28    0.08370      0.00000     0.41467    0.00163     0.41630
      H   29    0.08321      0.00000     0.41466    0.00213     0.41679
      H   30    0.09395      0.00000     0.40452    0.00153     0.40605
      H   31    0.18679      0.00000     0.31009    0.00311     0.31321
      H   32    0.19067      0.00000     0.30710    0.00222     0.30933
 =======================================================================
   * Total *   -0.00000     22.99339    41.80421    0.20240    65.00000

 Normal termination of Gaussian 16 at Thu Dec 10 18:13:36 2020.
