 Gaussian 16, Revision A.03,

 -----------------------------------------------------------
 # opt freq B3LYP/6-31G(d) empiricaldispersion=gd3bj scf=xqc
 -----------------------------------------------------------

 ------------------------------
 CID_144973775_JID_624_neutraal
 ------------------------------
 Symbolic Z-matrix:
 Charge =  0 Multiplicity = 1

 SCF Done:  E(RB3LYP) =  -440.026979817     A.U. after   14 cycles
 SCF Done:  E(RB3LYP) =  -440.031004064     A.U. after   11 cycles
 SCF Done:  E(RB3LYP) =  -440.032195588     A.U. after   12 cycles
 SCF Done:  E(RB3LYP) =  -440.032593122     A.U. after   11 cycles
 SCF Done:  E(RB3LYP) =  -440.032941510     A.U. after   11 cycles
 SCF Done:  E(RB3LYP) =  -440.033077352     A.U. after   10 cycles
 SCF Done:  E(RB3LYP) =  -440.033262032     A.U. after   10 cycles
 SCF Done:  E(RB3LYP) =  -440.033361421     A.U. after   11 cycles
 SCF Done:  E(RB3LYP) =  -440.033399700     A.U. after   10 cycles
 SCF Done:  E(RB3LYP) =  -440.033442355     A.U. after   10 cycles
 SCF Done:  E(RB3LYP) =  -440.034429490     A.U. after    9 cycles
 SCF Done:  E(RB3LYP) =  -440.034430157     A.U. after    9 cycles
 SCF Done:  E(RB3LYP) =  -440.034430331     A.U. after    9 cycles
 SCF Done:  E(RB3LYP) =  -440.034430384     A.U. after    7 cycles
 SCF Done:  E(RB3LYP) =  -440.034430436     A.U. after    7 cycles
 SCF Done:  E(RB3LYP) =  -440.034430474     A.U. after    7 cycles
 Optimization completed.
    -- Stationary point found.

 1\1\GINC-NODE316\FOpt\RB3LYP\6-31G(d)\C7H15N3\VSC10255\08-Dec-2020\0\\
 # opt freq B3LYP/6-31G(d) empiricaldispersion=gd3bj scf=xqc\\CID_14497
 3775_JID_624_neutraal\\0,1\C,0.7336177123,-0.4741154256,0.1546320262\C
 ,1.0565207535,0.4140060612,-1.0477009313\C,-2.7975296464,1.322658541,-
 1.0726525102\N,-2.2996013039,0.6184688141,-2.2427444782\C,-2.167982742
 3,-0.7690480775,-2.1275096568\C,-2.7344889668,-1.6173424685,-1.1853550
 187\N,-2.3637229995,-2.8888847307,-1.5354489299\N,-1.5728732535,-2.913
 7094777,-2.6224277497\C,-1.4572314523,-1.6376091281,-2.9957840277\C,-2

 Normal termination of Gaussian 16 at Tue Dec  8 13:09:13 2020.

 --------------------------------------------------------------------
 #N Geom=AllCheck Guess=TCheck SCRF=Check GenChk RB3LYP/6-31G(d) Freq
 --------------------------------------------------------------------

 Structure from the checkpoint file:  "JID_624.chk"
 ------------------------------
 CID_144973775_JID_624_neutraal
 ------------------------------
 Charge =  0 Multiplicity = 1

 SCF Done:  E(RB3LYP) =  -440.034430474     A.U. after    1 cycles

  Exact polarizability: 105.411 -15.476  81.263  -6.849  -4.206  90.594
 Approx polarizability: 143.244 -26.116 113.602 -13.155  -9.270 145.470

                      1                      2                      3
                      A                      A                      A
 Frequencies --     15.1672                25.3173                42.9470
 Red. masses --      3.6510                 2.3869                 2.9400
 Frc consts  --      0.0005                 0.0009                 0.0032
 IR Inten    --      0.1279                 0.4812                 1.2052

                      4                      5                      6
                      A                      A                      A
 Frequencies --     73.9509                77.0505                82.3299
 Red. masses --      1.1397                 2.2751                 1.2816
 Frc consts  --      0.0037                 0.0080                 0.0051
 IR Inten    --      0.6564                 0.0808                 0.2926

                      7                      8                      9
                      A                      A                      A
 Frequencies --    102.2268               116.2153               154.5893
 Red. masses --      2.0343                 2.7649                 2.2246
 Frc consts  --      0.0125                 0.0220                 0.0313
 IR Inten    --      0.4384                 0.4341                 5.5885

                     10                     11                     12
                      A                      A                      A
 Frequencies --    187.5047               227.8877               324.3283
 Red. masses --      2.9897                 1.2411                 1.0329
 Frc consts  --      0.0619                 0.0380                 0.0640
 IR Inten    --      1.0980                 0.7581                 0.7523

                     13                     14                     15
                      A                      A                      A
 Frequencies --    343.0980               363.5205               473.2588
 Red. masses --      2.5944                 3.3203                 3.3958
 Frc consts  --      0.1799                 0.2585                 0.4481
 IR Inten    --     13.9946                 3.9677                10.5082

                     16                     17                     18
                      A                      A                      A
 Frequencies --    577.4486               622.5364               662.2084
 Red. masses --      2.9603                 4.8420                 2.3147
 Frc consts  --      0.5816                 1.1056                 0.5981
 IR Inten    --    108.9842                 3.5471                27.6789

                     19                     20                     21
                      A                      A                      A
 Frequencies --    688.2236               720.6050               787.3563
 Red. masses --      1.7477                 1.8880                 2.5732
 Frc consts  --      0.4877                 0.5776                 0.9399
 IR Inten    --     27.3054                24.9746                25.9749

                     22                     23                     24
                      A                      A                      A
 Frequencies --    819.8665               837.5617               838.1964
 Red. masses --      1.3876                 1.0557                 1.0587
 Frc consts  --      0.5495                 0.4364                 0.4382
 IR Inten    --     36.4229                 4.8550                 9.5194

                     25                     26                     27
                      A                      A                      A
 Frequencies --   1009.2159              1014.0147              1029.7830
 Red. masses --      3.3953                 3.2643                 3.9720
 Frc consts  --      2.0375                 1.9776                 2.4817
 IR Inten    --     37.8332                 0.4538                 0.8375

                     28                     29                     30
                      A                      A                      A
 Frequencies --   1081.1567              1098.6842              1154.0045
 Red. masses --      1.6067                 2.1245                 1.3658
 Frc consts  --      1.1065                 1.5109                 1.0716
 IR Inten    --      1.4021                12.9551                13.1031

                     31                     32                     33
                      A                      A                      A
 Frequencies --   1161.9800              1173.1166              1224.6943
 Red. masses --      1.4696                 1.4716                 2.0798
 Frc consts  --      1.1691                 1.1932                 1.8379
 IR Inten    --     26.5223                 2.2510                 6.1489

                     34                     35                     36
                      A                      A                      A
 Frequencies --   1237.7366              1237.9606              1240.8382
 Red. masses --      1.4957                 1.5494                 1.4579
 Frc consts  --      1.3500                 1.3990                 1.3225
 IR Inten    --      3.4274                10.4050                 0.2612

                     37                     38                     39
                      A                      A                      A
 Frequencies --   1379.1570              1395.1863              1427.7573
 Red. masses --      3.5365                 2.9453                 1.3441
 Frc consts  --      3.9633                 3.3779                 1.6143
 IR Inten    --      4.0761                47.4470                 8.9246

                     40                     41                     42
                      A                      A                      A
 Frequencies --   1430.0974              1450.8943              1453.7206
 Red. masses --      2.8207                 1.6160                 1.7220
 Frc consts  --      3.3989                 2.0043                 2.1442
 IR Inten    --     19.0085                34.0228                32.2910

                     43                     44                     45
                      A                      A                      A
 Frequencies --   1477.7800              1491.8228              1513.6262
 Red. masses --      1.2720                 1.4456                 1.0953
 Frc consts  --      1.6367                 1.8955                 1.4786
 IR Inten    --      7.4293                13.8246                12.2108

                     46                     47                     48
                      A                      A                      A
 Frequencies --   1515.2471              1531.0470              1531.3798
 Red. masses --      1.0760                 1.0631                 1.0285
 Frc consts  --      1.4556                 1.4683                 1.4210
 IR Inten    --      6.8056                 9.2345                 0.4886

                     49                     50                     51
                      A                      A                      A
 Frequencies --   1532.7072              1539.2356              1541.1170
 Red. masses --      1.1967                 1.0587                 1.0799
 Frc consts  --      1.6563                 1.4779                 1.5111
 IR Inten    --      5.0575                 6.5405                 1.7736

                     52                     53                     54
                      A                      A                      A
 Frequencies --   1543.1969              1555.4898              1649.3997
 Red. masses --      1.1329                 1.2150                 5.5428
 Frc consts  --      1.5896                 1.7321                 8.8845
 IR Inten    --     11.7911                18.4339                56.8917

                     55                     56                     57
                      A                      A                      A
 Frequencies --   2980.3313              3044.8659              3049.6932
 Red. masses --      1.0568                 1.0362                 1.0368
 Frc consts  --      5.5307                 5.6600                 5.6812
 IR Inten    --     69.5932                18.9363                 9.1474

                     58                     59                     60
                      A                      A                      A
 Frequencies --   3050.6989              3079.4707              3095.8938
 Red. masses --      1.0404                 1.0803                 1.1006
 Frc consts  --      5.7052                 6.0357                 6.2153
 IR Inten    --     92.1565                47.4929                 9.1175

                     61                     62                     63
                      A                      A                      A
 Frequencies --   3104.9953              3118.0039              3123.1781
 Red. masses --      1.1012                 1.0986                 1.1028
 Frc consts  --      6.2552                 6.2925                 6.3376
 IR Inten    --     11.8183                25.5397                55.5835

                     64                     65                     66
                      A                      A                      A
 Frequencies --   3131.6171              3135.0326              3176.8763
 Red. masses --      1.1025                 1.1004                 1.1015
 Frc consts  --      6.3703                 6.3723                 6.5501
 IR Inten    --     51.7477                28.0402                 4.5297

                     67                     68                     69
                      A                      A                      A
 Frequencies --   3251.0774              3284.2707              3560.8221
 Red. masses --      1.0956                 1.0967                 1.0748
 Frc consts  --      6.8225                 6.9696                 8.0296
 IR Inten    --      6.5421                 1.8890                 4.5883

 - Thermochemistry -
 -------------------
 Temperature   298.150 Kelvin.  Pressure   1.00000 Atm.
 Atom     1 has atomic number  6 and mass  12.00000

 Molecular mass:   141.12660 amu.
 Principal axes and moments of inertia in atomic units:
                           1         2         3
     Eigenvalues --  1252.815522071.272662548.39674
           X            0.99982   0.01031  -0.01604
           Y           -0.01051   0.99987  -0.01255
           Z            0.01591   0.01272   0.99979
 This molecule is an asymmetric top.
 Rotational symmetry number  1.
 Warning -- assumption of classical behavior for rotation
           may cause significant error
 Rotational temperatures (Kelvin)      0.06914     0.04182     0.03399
 Rotational constants (GHZ):           1.44055     0.87132     0.70819
 Zero-point vibrational energy     580023.0 (Joules/Mol)
                                  138.62882 (Kcal/Mol)
 Warning -- explicit consideration of  16 degrees of freedom as
           vibrations may cause significant error
 Vibrational temperatures:     21.82    36.43    61.79   106.40   110.86
          (Kelvin)            118.45   147.08   167.21   222.42   269.78
                              327.88   466.64   493.64   523.02   680.91
                              830.82   895.69   952.77   990.20  1036.79
                             1132.83  1179.60  1205.06  1205.98  1452.04
                             1458.94  1481.63  1555.54  1580.76  1660.36
                             1671.83  1687.85  1762.06  1780.83  1781.15
                             1785.29  1984.30  2007.36  2054.22  2057.59
                             2087.51  2091.58  2126.20  2146.40  2177.77
                             2180.10  2202.84  2203.31  2205.22  2214.62
                             2217.32  2220.32  2238.00  2373.12  4288.03
                             4380.88  4387.83  4389.28  4430.67  4454.30
                             4467.40  4486.11  4493.56  4505.70  4510.61
                             4570.82  4677.58  4725.33  5123.23

 Zero-point correction=                           0.220919 (Hartree/Particle)
 Thermal correction to Energy=                    0.234580
 Thermal correction to Enthalpy=                  0.235524
 Thermal correction to Gibbs Free Energy=         0.177314
 Sum of electronic and zero-point Energies=           -439.813511
 Sum of electronic and thermal Energies=              -439.799850
 Sum of electronic and thermal Enthalpies=            -439.798906
 Sum of electronic and thermal Free Energies=         -439.857116

                     E (Thermal)             CV                S
                      KCal/Mol        Cal/Mol-Kelvin    Cal/Mol-Kelvin
 Total                  147.201             44.864            122.513
 Electronic               0.000              0.000              0.000
 Translational            0.889              2.981             40.745
 Rotational               0.889              2.981             30.271
 Vibrational            145.424             38.902             51.498
 Vibration     1          0.593              1.986              7.184
 Vibration     2          0.593              1.985              6.166
 Vibration     3          0.595              1.980              5.118
 Vibration     4          0.599              1.966              4.045
 Vibration     5          0.599              1.964              3.965
 Vibration     6          0.600              1.961              3.835
 Vibration     7          0.604              1.947              3.411
 Vibration     8          0.608              1.936              3.162
 Vibration     9          0.620              1.898              2.615
 Vibration    10          0.632              1.857              2.252
 Vibration    11          0.651              1.798              1.896
 Vibration    12          0.709              1.627              1.288
 Vibration    13          0.722              1.589              1.198
 Vibration    14          0.737              1.547              1.107
 Vibration    15          0.830              1.309              0.728
 Vibration    16          0.934              1.080              0.490

 Optimization completed.
    -- Stationary point found.

 1\1\GINC-NODE316\Freq\RB3LYP\6-31G(d)\C7H15N3\VSC10255\08-Dec-2020\0\\
 #N Geom=AllCheck Guess=TCheck SCRF=Check GenChk RB3LYP/6-31G(d) Freq\\
 CID_144973775_JID_624_neutraal\\0,1\C,0.7336177123,-0.4741154256,0.154
 6320262\C,1.0565207535,0.4140060612,-1.0477009313\C,-2.7975296464,1.32
 2658541,-1.0726525102\N,-2.2996013039,0.6184688141,-2.2427444782\C,-2.
 1679827423,-0.7690480775,-2.1275096568\C,-2.7344889668,-1.6173424685,-
 1.1853550187\N,-2.3637229995,-2.8888847307,-1.5354489299\N,-1.57287325
 35,-2.9137094777,-2.6224277497\C,-1.4572314523,-1.6376091281,-2.995784

 Normal termination of Gaussian 16 at Tue Dec  8 13:17:04 2020.

 ----------------------------------------------------------------------
 # B3LYP/6-311++G(d,p) empiricaldispersion=gd3bj scf=xqc pop=npa geom=c
 heck
 ----------------------------------------------------------------------

 --------------------------------------
 CID_144973775_JID_624_Energie_neutraal
 --------------------------------------
 Structure from the checkpoint file:  "JID_624.chk"
 Charge =  0 Multiplicity = 1

 SCF Done:  E(RB3LYP) =  -440.162310544     A.U. after   14 cycles
 Normal termination of Gaussian 16 at Tue Dec  8 13:23:57 2020.

 ----------------------------------------------------------------------
 # B3LYP/6-311++G(d,p) empiricaldispersion=gd3bj scf=xqc pop=npa geom=c
 heck
 ----------------------------------------------------------------------

 ------------------------------------
 CID_144973775_JID_624_Energie_kation
 ------------------------------------
 Structure from the checkpoint file:  "JID_624.chk"
 Charge =  1 Multiplicity = 2

 SCF Done:  E(UB3LYP) =  -439.889191564     A.U. after   21 cycles
 Normal termination of Gaussian 16 at Tue Dec  8 13:28:18 2020.
 Gaussian 16:  ES64L-G16RevA.03 25-Dec-2016

 -----------------------------------
 CID_144973775_JID_624_Energie_anion
 -----------------------------------
 Structure from the checkpoint file:  "JID_624.chk"
 Charge = -1 Multiplicity = 2

                         Standard orientation:
 ---------------------------------------------------------------------
 Center     Atomic      Atomic             Coordinates (Angstroms)
 Number     Number       Type             X           Y           Z
 ---------------------------------------------------------------------
      1          6           0       -1.810353   -2.072837   -0.793873
      2          6           0       -2.593623   -1.558907    0.414843
      3          6           0       -1.644946    2.071196   -0.850993
      4          7           0       -1.105830    1.684425    0.442333
      5          6           0        0.045287    0.890385    0.426930
      6          6           0        0.935725    0.676349   -0.616859
      7          7           0        1.932978   -0.120158   -0.118947
      8          7           0        1.729331   -0.457043    1.166595
      9          6           0        0.596046    0.158257    1.510498
     10          6           0        3.031913   -0.708761   -0.851980
     11          1           0       -1.034623   -1.358191   -1.087090
     12          1           0       -2.467397   -2.236987   -1.656032
     13          1           0       -1.315257   -3.023722   -0.566690
     14          1           0       -1.923666   -1.382813    1.263504
     15          1           0       -3.102831   -0.615202    0.184274
     16          1           0       -3.359184   -2.275150    0.734501
     17          1           0       -1.844826    1.216555   -1.520212
     18          1           0       -0.935764    2.736853   -1.356243
     19          1           0       -2.574331    2.627113   -0.701366
     20          1           0       -1.816364    1.294559    1.051016
     21          1           0        0.947725    1.029191   -1.636656
     22          1           0        0.216107    0.073005    2.520273
     23          1           0        3.459003    0.029710   -1.536803
     24          1           0        3.787835   -1.014054   -0.127727
     25          1           0        2.707921   -1.585520   -1.426020
 ---------------------------------------------------------------------

 SCF Done:  E(UB3LYP) =  -440.147433465     A.U. after   28 cycles

 The electronic state is 2-A.
 Alpha  occ. eigenvalues --  -14.28229 -14.22536 -14.21753 -10.10555 -10.09742
 Alpha  occ. eigenvalues --  -10.09045 -10.08959 -10.08121 -10.05900 -10.05386
 Alpha  occ. eigenvalues --   -0.94566  -0.82391  -0.73498  -0.67172  -0.65224
 Alpha  occ. eigenvalues --   -0.60641  -0.56652  -0.51541  -0.49487  -0.46483
 Alpha  occ. eigenvalues --   -0.43532  -0.38430  -0.37312  -0.35659  -0.34175
 Alpha  occ. eigenvalues --   -0.33597  -0.33343  -0.32440  -0.30396  -0.29371
 Alpha  occ. eigenvalues --   -0.28772  -0.27809  -0.26821  -0.24452  -0.24383
 Alpha  occ. eigenvalues --   -0.20175  -0.19245  -0.14814  -0.09708   0.04520
 Alpha virt. eigenvalues --    0.06360   0.07448   0.08108   0.08887   0.09478
 Alpha virt. eigenvalues --    0.10248   0.10496   0.11238   0.11613   0.12218
 Alpha virt. eigenvalues --    0.12531   0.13380   0.13473   0.14644   0.14739

  Beta  occ. eigenvalues --  -14.28228 -14.22531 -14.21743 -10.10507 -10.09743
  Beta  occ. eigenvalues --  -10.09019 -10.08912 -10.08119 -10.05874 -10.05363
  Beta  occ. eigenvalues --   -0.94559  -0.82370  -0.73480  -0.67149  -0.65188
  Beta  occ. eigenvalues --   -0.60581  -0.56577  -0.51462  -0.49469  -0.46428
  Beta  occ. eigenvalues --   -0.43489  -0.38379  -0.37284  -0.35611  -0.34139
  Beta  occ. eigenvalues --   -0.33570  -0.33316  -0.32408  -0.30346  -0.29336
  Beta  occ. eigenvalues --   -0.28739  -0.27769  -0.26757  -0.24423  -0.24357
  Beta  occ. eigenvalues --   -0.20156  -0.19234  -0.14801  -0.09691
  Beta virt. eigenvalues --    0.06864   0.07526   0.08284   0.08494   0.09516
  Beta virt. eigenvalues --    0.09905   0.10801   0.10944   0.11424   0.11925
  Beta virt. eigenvalues --    0.12853   0.12952   0.13764   0.13923   0.14795

 Mulliken charges and spin densities:
               1          2
     1  C    0.279779  -0.706952
     2  C   -0.228792  -0.191879
     3  C    1.084214  -1.508207
     4  N   -0.309503   0.178350
     5  C    0.480821  -0.296689
     6  C   -0.687109   0.216030
     7  N    0.089344   0.058586
     8  N   -0.327096   0.190605
     9  C    0.264161  -0.580786
    10  C    1.288338  -1.595360
    11  H    0.238647  -0.056771
    12  H   -0.179815   0.303733
    13  H   -0.007612   0.117150
    14  H    0.077959   0.056326
    15  H   -0.159794   0.298720
    16  H   -0.280813   0.417991
    17  H   -0.239842   0.379525
    18  H   -0.287152   0.443158
    19  H   -0.593188   0.738641
    20  H    0.149615   0.074910
    21  H   -0.602373   0.787964
    22  H    0.070954   0.064500
    23  H   -0.648180   0.807759
    24  H   -0.176040   0.331835
    25  H   -0.296523   0.470860
 Sum of Mulliken charges =  -1.00000   1.00000

 Dipole moment (field-independent basis, Debye):
    X=             -0.2867    Y=             -1.2075    Z=              4.6651  Tot=              4.8274
 Quadrupole moment (field-independent basis, Debye-Ang):
   XX=           -128.8897   YY=           -107.5446   ZZ=           -101.4548
   XY=              3.2874   XZ=              1.5884   YZ=              4.7049

 Summary of Natural Population Analysis:

                                       Natural Population
                Natural  -----------------------------------------------
    Atom  No    Charge         Core      Valence    Rydberg      Total
 -----------------------------------------------------------------------
      C    1   -0.28733      0.99968     2.28254    0.00511     3.28733
      C    2   -0.28777      0.99968     2.28279    0.00530     3.28777
      C    3   -0.17899      0.99966     2.17074    0.00859     3.17899
      N    4   -0.31907      0.99969     2.80821    0.01116     3.81907
      C    5    0.03396      0.99949     1.95409    0.01246     2.96604
      C    6   -0.04354      0.99951     2.03183    0.01220     3.04354
      N    7   -0.10624      0.99968     2.59299    0.01356     3.60624
      N    8   -0.14950      0.99973     2.63828    0.01149     3.64950
      C    9   -0.03328      0.99959     2.02037    0.01332     3.03328
      C   10   -0.17190      0.99964     2.16395    0.00831     3.17190
      H   11    0.10196      0.00000     0.39598    0.00206     0.39804
      H   12    0.09388      0.00000     0.40500    0.00112     0.40612
      H   13    0.09347      0.00000     0.40556    0.00097     0.40653
      H   14    0.09576      0.00000     0.40298    0.00126     0.40424
      H   15    0.09481      0.00000     0.40389    0.00130     0.40519
      H   16    0.09296      0.00000     0.40610    0.00094     0.40704
      H   17    0.08635      0.00000     0.41158    0.00207     0.41365
      H   18    0.09453      0.00000     0.40378    0.00169     0.40547
      H   19    0.09830      0.00000     0.40008    0.00162     0.40170
      H   20    0.18097      0.00000     0.31594    0.00309     0.31903
      H   21    0.11070      0.00000     0.38748    0.00183     0.38930
      H   22    0.09506      0.00000     0.40394    0.00100     0.40494
      H   23    0.10204      0.00000     0.39534    0.00263     0.39796
      H   24    0.10586      0.00000     0.39244    0.00170     0.39414
      H   25    0.09702      0.00000     0.40148    0.00150     0.40298
 =======================================================================
   * Total *   -0.00000      9.99635    28.87738    0.12627    39.00000

 Normal termination of Gaussian 16 at Tue Dec  8 13:36:06 2020.
