 Gaussian 16, Revision A.03,

 -----------------------------------------------------------
 # opt freq B3LYP/6-31G(d) empiricaldispersion=gd3bj scf=xqc
 -----------------------------------------------------------

 -----------------------------
 CID_87577893_JID_752_neutraal
 -----------------------------
 Symbolic Z-matrix:
 Charge =  0 Multiplicity = 1

 SCF Done:  E(RB3LYP) =  -476.097558938     A.U. after   15 cycles
 SCF Done:  E(RB3LYP) =  -476.103388815     A.U. after   13 cycles
 SCF Done:  E(RB3LYP) =  -476.104651180     A.U. after   12 cycles
 SCF Done:  E(RB3LYP) =  -476.104762343     A.U. after   12 cycles
 SCF Done:  E(RB3LYP) =  -476.104668582     A.U. after   12 cycles
 SCF Done:  E(RB3LYP) =  -476.104919250     A.U. after   11 cycles
 SCF Done:  E(RB3LYP) =  -476.104921263     A.U. after    9 cycles
 SCF Done:  E(RB3LYP) =  -476.104921616     A.U. after    8 cycles
 SCF Done:  E(RB3LYP) =  -476.104921742     A.U. after    8 cycles
 SCF Done:  E(RB3LYP) =  -476.104921848     A.U. after    8 cycles
 Optimization completed.
    -- Stationary point found.
 Normal termination of Gaussian 16 at Tue Dec  8 12:27:02 2020.

 --------------------------------------------------------------------
 #N Geom=AllCheck Guess=TCheck SCRF=Check GenChk RB3LYP/6-31G(d) Freq
 --------------------------------------------------------------------

 Structure from the checkpoint file:  "JID_752.chk"
 -----------------------------
 CID_87577893_JID_752_neutraal
 -----------------------------
 Charge =  0 Multiplicity = 1

 SCF Done:  E(RB3LYP) =  -476.104921848     A.U. after    1 cycles

  Exact polarizability: 131.023 -12.345  77.663  -6.771   4.543  50.810
 Approx polarizability: 179.110 -27.209 124.106 -17.321  13.004  74.628

                      1                      2                      3
                      A                      A                      A
 Frequencies --     43.4497                53.0645                72.6102
 Red. masses --      4.6887                 4.8381                 5.1956
 Frc consts  --      0.0052                 0.0080                 0.0161
 IR Inten    --      1.4571                 1.2300                 2.3712

                      4                      5                      6
                      A                      A                      A
 Frequencies --    115.8876               124.9539               177.2057
 Red. masses --      2.8472                 4.0334                 3.6998
 Frc consts  --      0.0225                 0.0371                 0.0685
 IR Inten    --      0.2937                 1.5619                 0.3175

                      7                      8                      9
                      A                      A                      A
 Frequencies --    207.6688               304.8355               354.5696
 Red. masses --      6.1354                 4.4077                 2.2083
 Frc consts  --      0.1559                 0.2413                 0.1636
 IR Inten    --      1.1105                 1.6936                 0.1509

                     10                     11                     12
                      A                      A                      A
 Frequencies --    430.4025               451.1810               494.8877
 Red. masses --      2.1441                10.4657                12.1678
 Frc consts  --      0.2340                 1.2552                 1.7558
 IR Inten    --      2.8733                 0.0794                 5.8955

                     13                     14                     15
                      A                      A                      A
 Frequencies --    515.1250               651.4434               687.7516
 Red. masses --      3.6169                 1.8740                 4.5280
 Frc consts  --      0.5655                 0.4686                 1.2619
 IR Inten    --      2.8367                21.1826                53.6637

                     16                     17                     18
                      A                      A                      A
 Frequencies --    705.9877               793.5305               863.5506
 Red. masses --      3.6301                11.5260                 1.9682
 Frc consts  --      1.0660                 4.2762                 0.8647
 IR Inten    --     10.4435                85.8505                16.8201

                     19                     20                     21
                      A                      A                      A
 Frequencies --    919.9982               947.1485               956.8350
 Red. masses --      1.6103                 2.0179                 1.3939
 Frc consts  --      0.8030                 1.0665                 0.7519
 IR Inten    --     31.1471                24.2778                26.2087

                     22                     23                     24
                      A                      A                      A
 Frequencies --   1021.1406              1034.3990              1081.1745
 Red. masses --      1.1059                 1.0917                 2.1560
 Frc consts  --      0.6794                 0.6882                 1.4849
 IR Inten    --     25.2035                17.8833                 2.8101

                     25                     26                     27
                      A                      A                      A
 Frequencies --   1128.1934              1143.4555              1203.1212
 Red. masses --      8.7638                 2.4924                 4.0865
 Frc consts  --      6.5722                 1.9200                 3.4851
 IR Inten    --    107.5613                85.2234               350.9364

                     28                     29                     30
                      A                      A                      A
 Frequencies --   1248.8374              1305.4535              1336.0628
 Red. masses --      1.3470                 1.2956                 1.2233
 Frc consts  --      1.2377                 1.3009                 1.2866
 IR Inten    --     51.5022                 1.6299                 5.6158

                     31                     32                     33
                      A                      A                      A
 Frequencies --   1340.9298              1360.8885              1471.1920
 Red. masses --      1.3336                 1.3551                 1.1856
 Frc consts  --      1.4128                 1.4787                 1.5119
 IR Inten    --      2.2969                 8.5972                 1.4747

                     34                     35                     36
                      A                      A                      A
 Frequencies --   1500.3721              1707.6115              1732.8967
 Red. masses --      1.1017                 5.7291                 4.5170
 Frc consts  --      1.4612                 9.8427                 7.9918
 IR Inten    --      6.5919                83.8108                 3.3624

                     37                     38                     39
                      A                      A                      A
 Frequencies --   1882.4461              2384.4142              3038.4057
 Red. masses --     12.5454                12.6662                 1.0582
 Frc consts  --     26.1927                42.4287                 5.7560
 IR Inten    --    353.0047               150.5202                14.5399

                     40                     41                     42
                      A                      A                      A
 Frequencies --   3082.5075              3159.2150              3167.9389
 Red. masses --      1.1038                 1.0617                 1.0899
 Frc consts  --      6.1792                 6.2434                 6.4446
 IR Inten    --     11.2402                12.1108                 7.3882

                     43                     44                     45
                      A                      A                      A
 Frequencies --   3201.3894              3214.1263              3244.6300
 Red. masses --      1.0924                 1.0887                 1.1157
 Frc consts  --      6.5963                 6.6268                 6.9202
 IR Inten    --      1.1464                 2.7631                14.3030

 - Thermochemistry -
 -------------------
 Temperature   298.150 Kelvin.  Pressure   1.00000 Atm.
 Atom     1 has atomic number  6 and mass  12.00000

 Molecular mass:   137.04768 amu.
 Principal axes and moments of inertia in atomic units:
                           1         2         3
     Eigenvalues --   570.046853436.820643874.47347
           X            0.99994  -0.01065   0.00019
           Y            0.01065   0.99992  -0.00662
           Z           -0.00012   0.00662   0.99998
 This molecule is an asymmetric top.
 Rotational symmetry number  1.
 Warning -- assumption of classical behavior for rotation
           may cause significant error
 Rotational temperatures (Kelvin)      0.15194     0.02520     0.02236
 Rotational constants (GHZ):           3.16595     0.52512     0.46580
 Zero-point vibrational energy     334134.3 (Joules/Mol)
                                   79.86001 (Kcal/Mol)
 Warning -- explicit consideration of  13 degrees of freedom as
           vibrations may cause significant error
 Vibrational temperatures:     62.51    76.35   104.47   166.74   179.78
          (Kelvin)            254.96   298.79   438.59   510.15   619.25
                              649.15   712.03   741.15   937.28   989.52
                             1015.76  1141.71  1242.46  1323.67  1362.74
                             1376.67  1469.19  1488.27  1555.57  1623.22
                             1645.18  1731.02  1796.80  1878.26  1922.30
                             1929.30  1958.02  2116.72  2158.70  2456.87
                             2493.25  2708.42  3430.64  4371.59  4435.04
                             4545.41  4557.96  4606.09  4624.41  4668.30

 Zero-point correction=                           0.127265 (Hartree/Particle)
 Thermal correction to Energy=                    0.137721
 Thermal correction to Enthalpy=                  0.138665
 Thermal correction to Gibbs Free Energy=         0.089584
 Sum of electronic and zero-point Energies=           -475.977657
 Sum of electronic and thermal Energies=              -475.967201
 Sum of electronic and thermal Enthalpies=            -475.966257
 Sum of electronic and thermal Free Energies=         -476.015337

                     E (Thermal)             CV                S
                      KCal/Mol        Cal/Mol-Kelvin    Cal/Mol-Kelvin
 Total                   86.421             35.713            103.298
 Electronic               0.000              0.000              0.000
 Translational            0.889              2.981             40.657
 Rotational               0.889              2.981             30.408
 Vibrational             84.644             29.751             32.233
 Vibration     1          0.595              1.980              5.095
 Vibration     2          0.596              1.976              4.700
 Vibration     3          0.599              1.967              4.081
 Vibration     4          0.608              1.936              3.168
 Vibration     5          0.610              1.928              3.022
 Vibration     6          0.628              1.870              2.358
 Vibration     7          0.641              1.829              2.064
 Vibration     8          0.696              1.665              1.390
 Vibration     9          0.730              1.566              1.146
 Vibration    10          0.792              1.404              0.857
 Vibration    11          0.810              1.358              0.792
 Vibration    12          0.850              1.261              0.671
 Vibration    13          0.870              1.216              0.621

 Optimization completed.
    -- Stationary point found.
 Normal termination of Gaussian 16 at Tue Dec  8 12:29:34 2020.

 ----------------------------------------------------------------------
 # B3LYP/6-311++G(d,p) empiricaldispersion=gd3bj scf=xqc pop=npa geom=c
 heck
 ----------------------------------------------------------------------

 -------------------------------------
 CID_87577893_JID_752_Energie_neutraal
 -------------------------------------
 Structure from the checkpoint file:  "JID_752.chk"
 Charge =  0 Multiplicity = 1

 SCF Done:  E(RB3LYP) =  -476.245881725     A.U. after   15 cycles
 Normal termination of Gaussian 16 at Tue Dec  8 12:32:37 2020.

 ----------------------------------------------------------------------
 # B3LYP/6-311++G(d,p) empiricaldispersion=gd3bj scf=xqc pop=npa geom=c
 heck
 ----------------------------------------------------------------------

 -----------------------------------
 CID_87577893_JID_752_Energie_kation
 -----------------------------------
 Structure from the checkpoint file:  "JID_752.chk"
 Charge =  1 Multiplicity = 2

 SCF Done:  E(UB3LYP) =  -475.880033171     A.U. after   23 cycles
 Normal termination of Gaussian 16 at Tue Dec  8 12:40:05 2020.
 Gaussian 16:  ES64L-G16RevA.03 25-Dec-2016

 ----------------------------------------------------------------------
 # B3LYP/6-311++G(d,p) empiricaldispersion=gd3bj scf=xqc pop=npa geom=c
 heck
 ----------------------------------------------------------------------

 ----------------------------------
 CID_87577893_JID_752_Energie_anion
 ----------------------------------
 Structure from the checkpoint file:  "JID_752.chk"
 Charge = -1 Multiplicity = 2

                         Standard orientation:
 ---------------------------------------------------------------------
 Center     Atomic      Atomic             Coordinates (Angstroms)
 Number     Number       Type             X           Y           Z
 ---------------------------------------------------------------------
      1          6           0        4.160788   -1.125216    0.222353
      2          6           0        3.264516   -0.181783    0.506914
      3          6           0        2.449381    0.562947   -0.526447
      4          6           0        0.991578    0.228974   -0.395075
      5          6           0        0.039755    1.116075   -0.068617
      6          6           0       -1.377500    0.800239    0.086729
      7          8           0       -2.273606    1.540276    0.370263
      8          8           0       -1.619750   -0.597698   -0.152106
      9          6           0       -2.851154   -1.008880   -0.044328
     10          7           0       -3.921990   -1.457058    0.031491
     11          1           0        4.378343   -1.417099   -0.802911
     12          1           0        4.716581   -1.636756    1.002777
     13          1           0        3.064501    0.083947    1.544342
     14          1           0        2.593464    1.645832   -0.421536
     15          1           0        2.792994    0.278013   -1.529904
     16          1           0        0.721568   -0.812567   -0.551944
     17          1           0        0.269152    2.163282    0.104305
 ---------------------------------------------------------------------

 SCF Done:  E(UB3LYP) =  -476.277781464     A.U. after   21 cycles

 The electronic state is 2-A.
 Alpha  occ. eigenvalues --  -19.06914 -18.94754 -14.17466 -10.13008 -10.12820
 Alpha  occ. eigenvalues --  -10.05894 -10.05000 -10.04638 -10.01502 -10.01083
 Alpha  occ. eigenvalues --   -0.99397  -0.88885  -0.77220  -0.68637  -0.64031
 Alpha  occ. eigenvalues --   -0.58127  -0.51980  -0.45417  -0.43146  -0.37460
 Alpha  occ. eigenvalues --   -0.35897  -0.34172  -0.33744  -0.31388  -0.29414
 Alpha  occ. eigenvalues --   -0.28493  -0.24754  -0.24456  -0.24086  -0.23492
 Alpha  occ. eigenvalues --   -0.22452  -0.19293  -0.17014  -0.15476  -0.13668
 Alpha  occ. eigenvalues --   -0.12821   0.03512
 Alpha virt. eigenvalues --    0.08350   0.09980   0.10308   0.10943   0.11835
 Alpha virt. eigenvalues --    0.12748   0.13133   0.13747   0.15148   0.16798
 Alpha virt. eigenvalues --    0.17261   0.17387   0.17590   0.18066   0.18867

  Beta  occ. eigenvalues --  -19.06914 -18.94239 -14.17432 -10.13004 -10.12446
  Beta  occ. eigenvalues --  -10.05815 -10.05052 -10.04551 -10.01475 -10.00462
  Beta  occ. eigenvalues --   -0.99228  -0.88064  -0.77165  -0.68225  -0.63419
  Beta  occ. eigenvalues --   -0.57651  -0.51698  -0.44824  -0.42512  -0.37318
  Beta  occ. eigenvalues --   -0.35672  -0.33524  -0.33316  -0.31100  -0.29173
  Beta  occ. eigenvalues --   -0.28062  -0.24399  -0.23993  -0.23316  -0.22507
  Beta  occ. eigenvalues --   -0.22160  -0.19202  -0.16385  -0.14875  -0.13193
  Beta  occ. eigenvalues --   -0.10495
  Beta virt. eigenvalues --    0.08235   0.09694   0.10173   0.10470   0.11767
  Beta virt. eigenvalues --    0.12388   0.13044   0.13253   0.13698   0.15244
  Beta virt. eigenvalues --    0.16970   0.17356   0.17545   0.17848   0.18205

 Mulliken charges and spin densities:
               1          2
     1  C   -0.603737   0.091872
     2  C    0.130233   0.039580
     3  C   -0.246484  -0.107513
     4  C   -0.217902   0.491252
     5  C    0.020016  -0.021344
     6  C   -0.355888   0.281712
     7  O   -0.345744   0.165459
     8  O   -0.042861  -0.009227
     9  C    0.274442   0.006771
    10  N   -0.382123   0.016523
    11  H    0.076824   0.009416
    12  H    0.081921  -0.001908
    13  H    0.125792   0.012006
    14  H    0.097444   0.007546
    15  H    0.079802   0.057426
    16  H    0.170460  -0.034039
    17  H    0.137804  -0.005532
 Sum of Mulliken charges =  -1.00000   1.00000

 Dipole moment (field-independent basis, Debye):
    X=              5.8782    Y=             -0.2198    Z=             -0.3978  Tot=              5.8957
 Quadrupole moment (field-independent basis, Debye-Ang):
   XX=           -118.4844   YY=            -73.3055   ZZ=            -63.5925
   XY=             -1.6994   XZ=              2.7185   YZ=             -0.0453

 Summary of Natural Population Analysis:

                                       Natural Population
                Natural  -----------------------------------------------
    Atom  No    Charge         Core      Valence    Rydberg      Total
 -----------------------------------------------------------------------
      C    1   -0.19802      0.99956     2.19059    0.00787     3.19802
      C    2   -0.05882      0.99956     2.04966    0.00959     3.05882
      C    3   -0.22626      0.99961     2.21767    0.00899     3.22626
      C    4    0.06900      0.99954     1.92266    0.00880     2.93100
      C    5   -0.17970      0.99946     2.17112    0.00912     3.17970
      C    6    0.42851      0.99962     1.54867    0.02320     2.57149
      O    7   -0.24661      0.99986     3.24071    0.00603     4.24661
      O    8   -0.28337      0.99983     3.27282    0.01072     4.28337
      C    9    0.30331      0.99956     1.67776    0.01937     2.69669
      N   10   -0.24431      0.99977     2.73610    0.00844     3.74431
      H   11    0.08516      0.00000     0.41367    0.00116     0.41484
      H   12    0.08588      0.00000     0.41300    0.00112     0.41412
      H   13    0.08785      0.00000     0.41097    0.00119     0.41215
      H   14    0.09647      0.00000     0.40170    0.00183     0.40353
      H   15    0.10040      0.00000     0.39786    0.00174     0.39960
      H   16    0.08666      0.00000     0.41231    0.00102     0.41334
      H   17    0.09385      0.00000     0.40507    0.00108     0.40615
 =======================================================================
   * Total *   -0.00000      9.99637    25.88236    0.12127    36.00000

 Normal termination of Gaussian 16 at Tue Dec  8 12:43:05 2020.
