 Gaussian 16, Revision A.03,

 -----------------------------------------------------------
 # opt freq B3LYP/6-31G(d) empiricaldispersion=gd3bj scf=xqc
 -----------------------------------------------------------

 -------------------------------
 CID_103800311_JID_4172_neutraal
 -------------------------------
 Symbolic Z-matrix:
 Charge =  0 Multiplicity = 1

 SCF Done:  E(RB3LYP) =  -638.253353103     A.U. after   12 cycles
 SCF Done:  E(RB3LYP) =  -638.256362806     A.U. after   11 cycles
 SCF Done:  E(RB3LYP) =  -638.249516345     A.U. after   11 cycles
 SCF Done:  E(RB3LYP) =  -638.256645288     A.U. after   11 cycles
 SCF Done:  E(RB3LYP) =  -638.256746414     A.U. after   11 cycles
 SCF Done:  E(RB3LYP) =  -638.258341264     A.U. after   11 cycles
 SCF Done:  E(RB3LYP) =  -638.258945979     A.U. after   10 cycles
 SCF Done:  E(RB3LYP) =  -638.259179057     A.U. after   10 cycles
 SCF Done:  E(RB3LYP) =  -638.259269390     A.U. after   10 cycles
 SCF Done:  E(RB3LYP) =  -638.259332715     A.U. after    9 cycles
 SCF Done:  E(RB3LYP) =  -638.259427548     A.U. after    8 cycles
 SCF Done:  E(RB3LYP) =  -638.259430373     A.U. after    8 cycles
 SCF Done:  E(RB3LYP) =  -638.259431779     A.U. after    8 cycles
 SCF Done:  E(RB3LYP) =  -638.259432134     A.U. after    7 cycles
 SCF Done:  E(RB3LYP) =  -638.259432269     A.U. after    6 cycles
 SCF Done:  E(RB3LYP) =  -638.259432316     A.U. after    6 cycles
 Optimization completed.
    -- Stationary point found.
 Normal termination of Gaussian 16 at Thu Dec 10 09:24:51 2020.

 --------------------------------------------------------------------
 #N Geom=AllCheck Guess=TCheck SCRF=Check GenChk RB3LYP/6-31G(d) Freq
 --------------------------------------------------------------------

 Structure from the checkpoint file:  "JID_4172.chk"
 -------------------------------
 CID_103800311_JID_4172_neutraal
 -------------------------------
 Charge =  0 Multiplicity = 1

 SCF Done:  E(RB3LYP) =  -638.259432316     A.U. after    1 cycles

  Exact polarizability: 144.235   0.090 123.694  -2.930  -1.700 113.543
 Approx polarizability: 181.184  -0.700 171.806  -6.058  -5.880 173.348

                      1                      2                      3
                      A                      A                      A
 Frequencies --     32.0917                46.1758                73.9110
 Red. masses --      3.7914                 4.2408                 3.5663
 Frc consts  --      0.0023                 0.0053                 0.0115
 IR Inten    --      0.8278                 1.3039                 1.0216

                      4                      5                      6
                      A                      A                      A
 Frequencies --     89.0660               106.2331               170.0862
 Red. masses --      4.2140                 5.1258                 2.9722
 Frc consts  --      0.0197                 0.0341                 0.0507
 IR Inten    --      4.2634                 1.5450                 4.9046

                      7                      8                      9
                      A                      A                      A
 Frequencies --    194.5264               218.9420               225.2063
 Red. masses --      2.6810                 2.4311                 2.2320
 Frc consts  --      0.0598                 0.0687                 0.0667
 IR Inten    --      5.2336                 0.6923                 2.2447

                     10                     11                     12
                      A                      A                      A
 Frequencies --    248.2332               273.0826               284.8234
 Red. masses --      3.0794                 1.1349                 1.1659
 Frc consts  --      0.1118                 0.0499                 0.0557
 IR Inten    --      4.1874                 3.0733                88.0271

                     13                     14                     15
                      A                      A                      A
 Frequencies --    317.0743               331.4946               348.2808
 Red. masses --      1.5441                 1.9725                 2.2019
 Frc consts  --      0.0915                 0.1277                 0.1574
 IR Inten    --     32.2895                47.8772                45.9557

                     16                     17                     18
                      A                      A                      A
 Frequencies --    356.4004               378.5886               413.9882
 Red. masses --      1.7171                 2.4849                 2.2303
 Frc consts  --      0.1285                 0.2098                 0.2252
 IR Inten    --     33.9310                10.8680                 4.6095

                     19                     20                     21
                      A                      A                      A
 Frequencies --    440.9787               457.4217               466.1778
 Red. masses --      1.7599                 2.7114                 2.2074
 Frc consts  --      0.2016                 0.3343                 0.2826
 IR Inten    --      4.7435                 2.2820                 2.1014

                     22                     23                     24
                      A                      A                      A
 Frequencies --    488.4987               507.5462               565.8146
 Red. masses --      2.1122                 3.1712                 1.9909
 Frc consts  --      0.2970                 0.4813                 0.3755
 IR Inten    --      1.2996                 0.4911                44.9803

                     25                     26                     27
                      A                      A                      A
 Frequencies --    625.7678               669.8118               770.3773
 Red. masses --      2.3267                 2.3597                 2.7029
 Frc consts  --      0.5368                 0.6237                 0.9451
 IR Inten    --      8.0279                 4.4574                 9.1511

                     28                     29                     30
                      A                      A                      A
 Frequencies --    792.7399               794.7773               821.6388
 Red. masses --      1.5080                 1.6527                 2.3600
 Frc consts  --      0.5583                 0.6151                 0.9387
 IR Inten    --      0.4793                 1.5041                 2.0403

                     31                     32                     33
                      A                      A                      A
 Frequencies --    857.0103               892.2529               908.0274
 Red. masses --      2.5737                 2.0331                 2.2494
 Frc consts  --      1.1137                 0.9536                 1.0927
 IR Inten    --      5.6866                 5.6374                 7.4915

                     34                     35                     36
                      A                      A                      A
 Frequencies --    929.0686               946.9675               953.8879
 Red. masses --      1.6678                 1.9624                 1.4122
 Frc consts  --      0.8482                 1.0368                 0.7571
 IR Inten    --      3.0224                 3.4395                 5.8288

                     37                     38                     39
                      A                      A                      A
 Frequencies --    996.7159              1022.6907              1035.2835
 Red. masses --      2.4697                 1.7827                 1.7797
 Frc consts  --      1.4456                 1.0985                 1.1239
 IR Inten    --     11.8134                 8.5591                 4.2877

                     40                     41                     42
                      A                      A                      A
 Frequencies --   1042.4639              1051.0155              1084.7492
 Red. masses --      1.8444                 1.5819                 1.4757
 Frc consts  --      1.1809                 1.0295                 1.0231
 IR Inten    --     28.1164                 7.1090                 8.7067

                     43                     44                     45
                      A                      A                      A
 Frequencies --   1089.0523              1092.1678              1101.4318
 Red. masses --      2.3703                 2.0662                 2.3681
 Frc consts  --      1.6564                 1.4521                 1.6926
 IR Inten    --     37.8860                59.6614               110.3169

                     46                     47                     48
                      A                      A                      A
 Frequencies --   1128.1719              1138.8786              1157.3658
 Red. masses --      2.1969                 2.1961                 2.1525
 Frc consts  --      1.6474                 1.6782                 1.6988
 IR Inten    --      2.6306                10.5905                20.1979

                     49                     50                     51
                      A                      A                      A
 Frequencies --   1167.8879              1181.2984              1209.0498
 Red. masses --      1.6206                 1.8443                 1.3438
 Frc consts  --      1.3023                 1.5163                 1.1573
 IR Inten    --     12.9508                 3.2837                20.3788

                     52                     53                     54
                      A                      A                      A
 Frequencies --   1217.7738              1237.7581              1251.0801
 Red. masses --      1.3052                 1.5283                 1.4615
 Frc consts  --      1.1404                 1.3795                 1.3478
 IR Inten    --     25.6316                 8.2750                28.0072

                     55                     56                     57
                      A                      A                      A
 Frequencies --   1293.3138              1302.1265              1326.3508
 Red. masses --      1.2949                 1.2756                 1.3129
 Frc consts  --      1.2761                 1.2743                 1.3608
 IR Inten    --      9.3580                 1.5829                 5.4031

                     58                     59                     60
                      A                      A                      A
 Frequencies --   1341.0830              1345.9330              1349.9244
 Red. masses --      1.3565                 1.3218                 1.3987
 Frc consts  --      1.4374                 1.4108                 1.5018
 IR Inten    --      3.3968                 0.9788                 6.7559

                     61                     62                     63
                      A                      A                      A
 Frequencies --   1354.9881              1381.1859              1387.2009
 Red. masses --      1.4336                 1.3841                 1.2864
 Frc consts  --      1.5508                 1.5557                 1.4585
 IR Inten    --      6.5997                 1.2275                 0.7748

                     64                     65                     66
                      A                      A                      A
 Frequencies --   1395.8557              1398.2760              1402.1283
 Red. masses --      1.4277                 1.4502                 1.2398
 Frc consts  --      1.6390                 1.6705                 1.4361
 IR Inten    --      8.8543                 4.3230                10.8108

                     67                     68                     69
                      A                      A                      A
 Frequencies --   1409.7495              1416.8801              1435.0838
 Red. masses --      1.3957                 1.4452                 1.2585
 Frc consts  --      1.6343                 1.7094                 1.5271
 IR Inten    --     11.1898                 0.4141                15.8750

                     70                     71                     72
                      A                      A                      A
 Frequencies --   1442.2703              1447.5049              1449.2985
 Red. masses --      1.2672                 1.2987                 1.2980
 Frc consts  --      1.5530                 1.6032                 1.6063
 IR Inten    --      2.6527                79.4168                17.6887

                     73                     74                     75
                      A                      A                      A
 Frequencies --   1501.9907              1506.3559              1507.1994
 Red. masses --      1.1857                 1.0965                 1.0950
 Frc consts  --      1.5760                 1.4660                 1.4655
 IR Inten    --     45.2700                 0.7944                 3.0554

                     76                     77                     78
                      A                      A                      A
 Frequencies --   1517.1730              1521.0467              1525.4832
 Red. masses --      1.0721                 1.0934                 1.0830
 Frc consts  --      1.4540                 1.4905                 1.4848
 IR Inten    --      4.8592                 3.3507                11.9190

                     79                     80                     81
                      A                      A                      A
 Frequencies --   1529.4179              1536.0164              1540.4259
 Red. masses --      1.0866                 1.0673                 1.1076
 Frc consts  --      1.4976                 1.4836                 1.5486
 IR Inten    --     13.7550                 3.0259                17.0671

                     82                     83                     84
                      A                      A                      A
 Frequencies --   1557.2177              2987.2147              3016.5478
 Red. masses --      1.1014                 1.0733                 1.0698
 Frc consts  --      1.5736                 5.6427                 5.7357
 IR Inten    --     12.4189                56.9257                11.9770

                     85                     86                     87
                      A                      A                      A
 Frequencies --   3024.0310              3026.1276              3029.1270
 Red. masses --      1.0708                 1.0653                 1.0681
 Frc consts  --      5.7697                 5.7475                 5.7742
 IR Inten    --      7.8702                 6.6948                20.6192

                     88                     89                     90
                      A                      A                      A
 Frequencies --   3032.5823              3041.8512              3046.4000
 Red. masses --      1.0665                 1.0754                 1.0609
 Frc consts  --      5.7786                 5.8625                 5.8007
 IR Inten    --     28.1024                20.8010                 9.3487

                     91                     92                     93
                      A                      A                      A
 Frequencies --   3050.5187              3052.2447              3060.9087
 Red. masses --      1.0815                 1.0452                 1.0947
 Frc consts  --      5.9293                 5.7369                 6.0429
 IR Inten    --     30.6168                 8.8659               121.8142

                     94                     95                     96
                      A                      A                      A
 Frequencies --   3062.7288              3068.2189              3087.3935
 Red. masses --      1.0852                 1.0988                 1.1017
 Frc consts  --      5.9975                 6.0944                 6.1875
 IR Inten    --     80.3932                20.1974                54.3919

                     97                     98                     99
                      A                      A                      A
 Frequencies --   3091.5654              3095.6855              3098.7283
 Red. masses --      1.0945                 1.0961                 1.0910
 Frc consts  --      6.1632                 6.1888                 6.1720
 IR Inten    --     39.8623                58.5557                52.2906

                    100                    101                    102
                      A                      A                      A
 Frequencies --   3102.9387              3114.3313              3138.5601
 Red. masses --      1.0958                 1.1009                 1.1016
 Frc consts  --      6.2161                 6.2909                 6.3936
 IR Inten    --     34.0944                39.9659                27.3963

                    103                    104                    105
                      A                      A                      A
 Frequencies --   3578.9712              3722.0365              3770.9775
 Red. masses --      1.0731                 1.0657                 1.0653
 Frc consts  --      8.0983                 8.6987                 8.9255
 IR Inten    --      0.6034                 5.7887                35.8833

 - Thermochemistry -
 -------------------
 Temperature   298.150 Kelvin.  Pressure   1.00000 Atm.
 Atom     1 has atomic number  6 and mass  12.00000

 Molecular mass:   201.17288 amu.
 Principal axes and moments of inertia in atomic units:
                           1         2         3
     Eigenvalues --  1852.386484257.536655153.25507
           X            0.99997   0.00292  -0.00765
           Y           -0.00287   0.99997   0.00696
           Z            0.00767  -0.00694   0.99995
 This molecule is an asymmetric top.
 Rotational symmetry number  1.
 Warning -- assumption of classical behavior for rotation
           may cause significant error
 Rotational temperatures (Kelvin)      0.04676     0.02034     0.01681
 Rotational constants (GHZ):           0.97428     0.42389     0.35021
 Zero-point vibrational energy     894944.1 (Joules/Mol)
                                  213.89678 (Kcal/Mol)
 Warning -- explicit consideration of  24 degrees of freedom as
           vibrations may cause significant error
 Vibrational temperatures:     46.17    66.44   106.34   128.15   152.85
          (Kelvin)            244.72   279.88   315.01   324.02   357.15
                              392.90   409.80   456.20   476.95   501.10
                              512.78   544.70   595.64   634.47   658.13
                              670.73   702.84   730.25   814.08   900.34
                              963.71  1108.40  1140.58  1143.51  1182.15
                             1233.05  1283.75  1306.45  1336.72  1362.47
                             1372.43  1434.05  1471.42  1489.54  1499.87
                             1512.18  1560.71  1566.90  1571.39  1584.71
                             1623.19  1638.59  1665.19  1680.33  1699.62
                             1739.55  1752.10  1780.86  1800.03  1860.79
                             1873.47  1908.32  1929.52  1936.50  1942.24
                             1949.53  1987.22  1995.87  2008.33  2011.81
                             2017.35  2028.32  2038.57  2064.77  2075.11
                             2082.64  2085.22  2161.03  2167.31  2168.52
                             2182.87  2188.45  2194.83  2200.49  2209.99
                             2216.33  2240.49  4297.94  4340.14  4350.91
                             4353.92  4358.24  4363.21  4376.55  4383.09
                             4389.02  4391.50  4403.96  4406.58  4414.48
                             4442.07  4448.07  4454.00  4458.38  4464.44
                             4480.83  4515.69  5149.34  5355.18  5425.60

 Zero-point correction=                           0.340866 (Hartree/Particle)
 Thermal correction to Energy=                    0.356351
 Thermal correction to Enthalpy=                  0.357296
 Thermal correction to Gibbs Free Energy=         0.298427
 Sum of electronic and zero-point Energies=           -637.918566
 Sum of electronic and thermal Energies=              -637.903081
 Sum of electronic and thermal Enthalpies=            -637.902137
 Sum of electronic and thermal Free Energies=         -637.961006

                     E (Thermal)             CV                S
                      KCal/Mol        Cal/Mol-Kelvin    Cal/Mol-Kelvin
 Total                  223.614             60.286            123.900
 Electronic               0.000              0.000              0.000
 Translational            0.889              2.981             41.802
 Rotational               0.889              2.981             32.075
 Vibrational            221.836             54.325             50.024
 Vibration     1          0.594              1.983              5.696
 Vibration     2          0.595              1.979              4.975
 Vibration     3          0.599              1.966              4.046
 Vibration     4          0.602              1.957              3.680
 Vibration     5          0.605              1.944              3.337
 Vibration     6          0.625              1.879              2.435
 Vibration     7          0.635              1.847              2.184
 Vibration     8          0.647              1.812              1.968
 Vibration     9          0.650              1.803              1.917
 Vibration    10          0.662              1.766              1.743
 Vibration    11          0.676              1.723              1.577
 Vibration    12          0.683              1.702              1.505
 Vibration    13          0.704              1.641              1.325
 Vibration    14          0.714              1.613              1.253
 Vibration    15          0.726              1.579              1.174
 Vibration    16          0.732              1.562              1.138
 Vibration    17          0.749              1.516              1.045
 Vibration    18          0.778              1.440              0.913
 Vibration    19          0.801              1.381              0.824
 Vibration    20          0.816              1.344              0.774
 Vibration    21          0.824              1.325              0.748
 Vibration    22          0.844              1.276              0.688
 Vibration    23          0.863              1.233              0.640
 Vibration    24          0.922              1.105              0.512

                           ! Non-Optimized Parameters !
 Normal termination of Gaussian 16 at Thu Dec 10 09:37:00 2020.

 ----------------------------------------------------------------------
 # B3LYP/6-311++G(d,p) empiricaldispersion=gd3bj scf=xqc pop=npa geom=c
 heck
 ----------------------------------------------------------------------

 ---------------------------------------
 CID_103800311_JID_4172_Energie_neutraal
 ---------------------------------------
 Structure from the checkpoint file:  "JID_4172.chk"
 Charge =  0 Multiplicity = 1

 SCF Done:  E(RB3LYP) =  -638.462139527     A.U. after   14 cycles
 Normal termination of Gaussian 16 at Thu Dec 10 09:42:19 2020.

 ----------------------------------------------------------------------
 # B3LYP/6-311++G(d,p) empiricaldispersion=gd3bj scf=xqc pop=npa geom=c
 heck
 ----------------------------------------------------------------------

 -------------------------------------
 CID_103800311_JID_4172_Energie_kation
 -------------------------------------
 Structure from the checkpoint file:  "JID_4172.chk"
 Charge =  1 Multiplicity = 2

 SCF Done:  E(UB3LYP) =  -638.167142573     A.U. after   21 cycles
 Normal termination of Gaussian 16 at Thu Dec 10 09:53:09 2020.
 Gaussian 16:  ES64L-G16RevA.03 25-Dec-2016

 ----------------------------------------------------------------------
 # B3LYP/6-311++G(d,p) empiricaldispersion=gd3bj scf=xqc pop=npa geom=c
 heck
 ----------------------------------------------------------------------

 ------------------------------------
 CID_103800311_JID_4172_Energie_anion
 ------------------------------------
 Structure from the checkpoint file:  "JID_4172.chk"
 Charge = -1 Multiplicity = 2

                         Standard orientation:
 ---------------------------------------------------------------------
 Center     Atomic      Atomic             Coordinates (Angstroms)
 Number     Number       Type             X           Y           Z
 ---------------------------------------------------------------------
      1          6           0        2.548220   -1.799173   -1.168199
      2          6           0        1.827642   -1.325018    0.100309
      3          6           0        2.635638   -0.236411    0.857128
      4          6           0        3.217272    0.923360    0.026325
      5          6           0        2.208249    1.776860   -0.742651
      6          8           0        1.250546    2.416010    0.093334
      7          7           0        0.434564   -1.010661   -0.226531
      8          6           0       -0.602347   -1.188205    0.793928
      9          6           0       -1.845385   -1.850226    0.164686
     10          6           0       -2.575121   -0.889971   -0.783711
     11          6           0       -3.002683    0.389286   -0.058270
     12          6           0       -1.800693    1.069264    0.606129
     13          6           0       -1.041468    0.099640    1.527394
     14          8           0       -3.709902    1.284602   -0.912548
     15          1           0        2.550466   -1.022515   -1.941108
     16          1           0        2.036439   -2.673223   -1.579850
     17          1           0        3.591429   -2.063977   -0.958214
     18          1           0        1.771050   -2.185653    0.779011
     19          1           0        2.016196    0.158812    1.673189
     20          1           0        3.481749   -0.731139    1.352966
     21          1           0        3.774754    1.583666    0.702466
     22          1           0        3.945152    0.527299   -0.693134
     23          1           0        2.730469    2.588245   -1.259425
     24          1           0        1.713394    1.176349   -1.523667
     25          1           0        0.858449    1.737314    0.662238
     26          1           0        0.336329   -0.146871   -0.745888
     27          1           0       -0.188254   -1.879904    1.536990
     28          1           0       -2.532953   -2.160415    0.964786
     29          1           0       -1.532593   -2.752399   -0.370129
     30          1           0       -3.455936   -1.366382   -1.227989
     31          1           0       -1.903753   -0.624468   -1.614939
     32          1           0       -3.729811    0.123176    0.720151
     33          1           0       -1.132706    1.452545   -0.179711
     34          1           0       -2.140791    1.947677    1.165415
     35          1           0       -1.701850   -0.182852    2.358976
     36          1           0       -0.176502    0.592333    1.991221
     37          1           0       -3.093782    1.555684   -1.612323
 ---------------------------------------------------------------------

 SCF Done:  E(UB3LYP) =  -638.449496221     A.U. after   30 cycles

 The electronic state is 2-A.
 Alpha  occ. eigenvalues --  -19.03563 -19.02986 -14.19373 -10.12839 -10.12266
 Alpha  occ. eigenvalues --  -10.10212 -10.09984 -10.07664 -10.07616 -10.07296
 Alpha  occ. eigenvalues --  -10.07074 -10.06717 -10.06609 -10.05530  -0.93736
 Alpha  occ. eigenvalues --   -0.93192  -0.81206  -0.72970  -0.68891  -0.65503
 Alpha  occ. eigenvalues --   -0.64752  -0.61485  -0.58768  -0.52618  -0.52465
 Alpha  occ. eigenvalues --   -0.52162  -0.47344  -0.46779  -0.41880  -0.41744
 Alpha  occ. eigenvalues --   -0.38715  -0.37606  -0.36937  -0.35900  -0.35485
 Alpha  occ. eigenvalues --   -0.33989  -0.33724  -0.33277  -0.31871  -0.30469
 Alpha  occ. eigenvalues --   -0.29174  -0.29027  -0.28381  -0.27819  -0.27512
 Alpha  occ. eigenvalues --   -0.26064  -0.25198  -0.24373  -0.24066  -0.23777
 Alpha  occ. eigenvalues --   -0.22819  -0.22036  -0.21430  -0.18456  -0.18177
 Alpha  occ. eigenvalues --   -0.11911   0.04314
 Alpha virt. eigenvalues --    0.06244   0.06668   0.07568   0.08003   0.08644
 Alpha virt. eigenvalues --    0.08846   0.09341   0.10130   0.10901   0.11062
 Alpha virt. eigenvalues --    0.11310   0.11570   0.11914   0.12759   0.13118

  Beta  occ. eigenvalues --  -19.03558 -19.02975 -14.19367 -10.12832 -10.12253
  Beta  occ. eigenvalues --  -10.10199 -10.09968 -10.07644 -10.07608 -10.07289
  Beta  occ. eigenvalues --  -10.07055 -10.06700 -10.06584 -10.05499  -0.93724
  Beta  occ. eigenvalues --   -0.93170  -0.81183  -0.72941  -0.68852  -0.65476
  Beta  occ. eigenvalues --   -0.64715  -0.61444  -0.58713  -0.52575  -0.52430
  Beta  occ. eigenvalues --   -0.52113  -0.47294  -0.46735  -0.41850  -0.41714
  Beta  occ. eigenvalues --   -0.38678  -0.37566  -0.36900  -0.35868  -0.35441
  Beta  occ. eigenvalues --   -0.33962  -0.33691  -0.33237  -0.31852  -0.30434
  Beta  occ. eigenvalues --   -0.29146  -0.28993  -0.28351  -0.27779  -0.27478
  Beta  occ. eigenvalues --   -0.26032  -0.25167  -0.24341  -0.24033  -0.23747
  Beta  occ. eigenvalues --   -0.22789  -0.22001  -0.21397  -0.18429  -0.18163
  Beta  occ. eigenvalues --   -0.11895
  Beta virt. eigenvalues --    0.06350   0.06934   0.07271   0.08043   0.08583
  Beta virt. eigenvalues --    0.09010   0.09399   0.09742   0.10464   0.11336
  Beta virt. eigenvalues --    0.11378   0.11565   0.11826   0.12358   0.13219

 Mulliken charges and spin densities:
               1          2
     1  C    0.916191  -1.623833
     2  C   -1.229116   1.344553
     3  C    0.561994  -0.909689
     4  C    0.512737  -0.802205
     5  C   -0.132284  -0.328053
     6  O   -0.222481   0.027590
     7  N    0.287325  -0.182306
     8  C   -0.677288   0.616071
     9  C    0.677864  -1.194947
    10  C   -0.648341   0.629898
    11  C    0.084858  -0.822000
    12  C   -0.394816   0.272468
    13  C    0.738131  -1.221832
    14  O   -0.212774   0.027649
    15  H   -0.044621   0.181057
    16  H    0.030896   0.128235
    17  H   -0.353040   0.500468
    18  H   -0.425587   0.615652
    19  H    0.094763   0.022305
    20  H   -0.517541   0.699176
    21  H   -0.178488   0.378103
    22  H   -0.037488   0.180752
    23  H   -0.134207   0.304965
    24  H   -0.260952   0.390883
    25  H    0.440356  -0.207882
    26  H    0.913370  -0.756474
    27  H   -0.380919   0.583169
    28  H   -0.100405   0.230451
    29  H   -0.073519   0.249429
    30  H    0.025553   0.161564
    31  H   -0.104989   0.248006
    32  H    0.050032   0.144234
    33  H    0.044386   0.117395
    34  H    0.072725   0.113178
    35  H   -0.299141   0.473772
    36  H   -0.235303   0.381263
    37  H    0.212119   0.026936
 Sum of Mulliken charges =  -1.00000   1.00000

 Dipole moment (field-independent basis, Debye):
    X=             -3.5153    Y=              2.6102    Z=             -2.8225  Tot=              5.2093
 Quadrupole moment (field-independent basis, Debye-Ang):
   XX=           -168.9781   YY=           -141.9405   ZZ=           -127.1872
   XY=              5.8823   XZ=             -1.2728   YZ=              2.6386

 Summary of Natural Population Analysis:

                                       Natural Population
                Natural  -----------------------------------------------
    Atom  No    Charge         Core      Valence    Rydberg      Total
 -----------------------------------------------------------------------
      C    1   -0.28543      0.99964     2.27937    0.00642     3.28543
      C    2   -0.00901      0.99959     1.99596    0.01346     3.00901
      C    3   -0.20104      0.99960     2.19098    0.01046     3.20104
      C    4   -0.20611      0.99962     2.19797    0.00852     3.20611
      C    5   -0.01128      0.99959     1.99880    0.01289     3.01128
      O    6   -0.37218      0.99990     3.36615    0.00612     4.37218
      N    7   -0.36101      0.99971     2.84813    0.01317     3.86101
      C    8   -0.00830      0.99957     1.99468    0.01404     3.00830
      C    9   -0.18916      0.99960     2.17982    0.00973     3.18916
      C   10   -0.20428      0.99961     2.19499    0.00968     3.20428
      C   11    0.06584      0.99953     1.92215    0.01249     2.93416
      C   12   -0.20929      0.99960     2.19972    0.00997     3.20929
      C   13   -0.19855      0.99960     2.18947    0.00947     3.19855
      O   14   -0.37001      0.99990     3.36346    0.00665     4.37001
      H   15    0.09352      0.00000     0.40535    0.00113     0.40648
      H   16    0.10362      0.00000     0.39518    0.00119     0.39638
      H   17    0.10017      0.00000     0.39864    0.00119     0.39983
      H   18    0.09596      0.00000     0.40137    0.00268     0.40404
      H   19    0.09406      0.00000     0.40408    0.00186     0.40594
      H   20    0.10661      0.00000     0.39126    0.00214     0.39339
      H   21    0.10097      0.00000     0.39790    0.00113     0.39903
      H   22    0.10163      0.00000     0.39702    0.00135     0.39837
      H   23    0.08730      0.00000     0.41163    0.00107     0.41270
      H   24    0.06912      0.00000     0.42930    0.00158     0.43088
      H   25    0.22945      0.00000     0.26647    0.00408     0.27055
      H   26    0.17437      0.00000     0.32150    0.00413     0.32563
      H   27    0.10092      0.00000     0.39656    0.00252     0.39908
      H   28    0.09533      0.00000     0.40333    0.00135     0.40467
      H   29    0.10519      0.00000     0.39358    0.00123     0.39481
      H   30    0.10235      0.00000     0.39666    0.00100     0.39765
      H   31    0.09332      0.00000     0.40524    0.00144     0.40668
      H   32    0.08465      0.00000     0.41400    0.00136     0.41535
      H   33    0.09442      0.00000     0.40379    0.00178     0.40558
      H   34    0.10511      0.00000     0.39389    0.00100     0.39489
      H   35    0.10240      0.00000     0.39610    0.00151     0.39760
      H   36    0.09585      0.00000     0.40273    0.00142     0.40415
      H   37    0.22349      0.00000     0.27383    0.00267     0.27651
 =======================================================================
   * Total *   -0.00000     13.99507    41.82105    0.18388    56.00000

 Normal termination of Gaussian 16 at Thu Dec 10 10:08:18 2020.
