 Gaussian 16, Revision A.03,

 -----------------------------------------------------------
 # opt freq B3LYP/6-31G(d) empiricaldispersion=gd3bj scf=xqc
 -----------------------------------------------------------

 ------------------------------
 CID_15438775_JID_9132_neutraal
 ------------------------------
 Symbolic Z-matrix:
 Charge =  0 Multiplicity = 1

 SCF Done:  E(RB3LYP) =  -749.792450979     A.U. after   14 cycles
 SCF Done:  E(RB3LYP) =  -749.795242825     A.U. after   13 cycles
 SCF Done:  E(RB3LYP) =  -749.795983880     A.U. after   12 cycles
 SCF Done:  E(RB3LYP) =  -749.796126700     A.U. after   12 cycles
 SCF Done:  E(RB3LYP) =  -749.796146190     A.U. after   10 cycles
 SCF Done:  E(RB3LYP) =  -749.796150004     A.U. after    9 cycles
 SCF Done:  E(RB3LYP) =  -749.796150696     A.U. after    8 cycles
 SCF Done:  E(RB3LYP) =  -749.796151142     A.U. after    9 cycles
 SCF Done:  E(RB3LYP) =  -749.796151185     A.U. after    7 cycles
 Optimization completed.
    -- Stationary point found.
 Normal termination of Gaussian 16 at Mon Dec 14 13:15:49 2020.

 --------------------------------------------------------------------
 #N Geom=AllCheck Guess=TCheck SCRF=Check GenChk RB3LYP/6-31G(d) Freq
 --------------------------------------------------------------------

 Structure from the checkpoint file:  "JID_9132.chk"
 ------------------------------
 CID_15438775_JID_9132_neutraal
 ------------------------------
 Charge =  0 Multiplicity = 1

 SCF Done:  E(RB3LYP) =  -749.796151185     A.U. after    1 cycles

  Exact polarizability: 320.358  -2.509 199.567  13.781  -2.170  87.823
 Approx polarizability: 435.613  -1.417 350.323  29.163  -6.862 145.213

                      1                      2                      3
                      A                      A                      A
 Frequencies --     29.3081                32.3125                45.1165
 Red. masses --      1.0281                 3.7982                 3.7188
 Frc consts  --      0.0005                 0.0023                 0.0045
 IR Inten    --      0.2630                 0.0719                 0.1421

                      4                      5                      6
                      A                      A                      A
 Frequencies --     54.2613                85.3559               106.7583
 Red. masses --      4.4976                 4.4622                 4.5971
 Frc consts  --      0.0078                 0.0192                 0.0309
 IR Inten    --      0.1127                 0.0355                 0.5354

                      7                      8                      9
                      A                      A                      A
 Frequencies --    136.7917               200.5083               239.5084
 Red. masses --      4.4380                 4.5168                 4.8550
 Frc consts  --      0.0489                 0.1070                 0.1641
 IR Inten    --      0.6860                 1.5967                 0.2451

                     10                     11                     12
                      A                      A                      A
 Frequencies --    253.0628               295.9896               338.4114
 Red. masses --      4.9536                 4.0845                 5.4357
 Frc consts  --      0.1869                 0.2108                 0.3668
 IR Inten    --      0.4212                 0.8389                 0.0771

                     13                     14                     15
                      A                      A                      A
 Frequencies --    353.2174               392.4359               414.8250
 Red. masses --      3.9938                 3.9980                 3.0195
 Frc consts  --      0.2936                 0.3628                 0.3061
 IR Inten    --      0.0096                 0.6512                 0.5214

                     16                     17                     18
                      A                      A                      A
 Frequencies --    419.4998               426.9430               487.7895
 Red. masses --      3.0689                 3.2363                 3.7285
 Frc consts  --      0.3182                 0.3476                 0.5227
 IR Inten    --      0.8384                 4.2530                 0.6103

                     19                     20                     21
                      A                      A                      A
 Frequencies --    509.3948               545.6675               570.6321
 Red. masses --      3.5548                 2.9986                 5.7619
 Frc consts  --      0.5435                 0.5260                 1.1054
 IR Inten    --      3.3431                 7.0032                 9.9500

                     22                     23                     24
                      A                      A                      A
 Frequencies --    635.6758               645.3271               652.5908
 Red. masses --      6.2747                 4.9103                 6.9092
 Frc consts  --      1.4939                 1.2048                 1.7336
 IR Inten    --      0.2939                 1.6409                10.1585

                     25                     26                     27
                      A                      A                      A
 Frequencies --    665.6753               708.8952               725.2484
 Red. masses --      6.0566                 1.7765                 5.8055
 Frc consts  --      1.5813                 0.5260                 1.7991
 IR Inten    --      4.3501                24.7936                11.9842

                     28                     29                     30
                      A                      A                      A
 Frequencies --    734.9700               758.4319               796.8614
 Red. masses --      3.1597                 2.7365                 2.1130
 Frc consts  --      1.0056                 0.9274                 0.7905
 IR Inten    --      2.6393                12.9835                22.0069

                     31                     32                     33
                      A                      A                      A
 Frequencies --    802.1749               831.0975               849.1775
 Red. masses --      5.0227                 1.4983                 4.5501
 Frc consts  --      1.9042                 0.6097                 1.9332
 IR Inten    --      8.1474                35.5367                 8.4561

                     34                     35                     36
                      A                      A                      A
 Frequencies --    857.1711               859.6945               867.8493
 Red. masses --      1.2579                 1.2578                 1.5216
 Frc consts  --      0.5445                 0.5477                 0.6752
 IR Inten    --      0.7380                 0.3034                 3.6289

                     37                     38                     39
                      A                      A                      A
 Frequencies --    912.1495               935.9847               966.9026
 Red. masses --      1.4681                 1.4585                 1.3399
 Frc consts  --      0.7197                 0.7528                 0.7380
 IR Inten    --      5.7092                 0.6076                 0.9687

                     40                     41                     42
                      A                      A                      A
 Frequencies --    969.6625               973.6422               981.6372
 Red. masses --      1.2856                 1.3387                 1.3628
 Frc consts  --      0.7122                 0.7477                 0.7737
 IR Inten    --      0.2431                 0.8249                 0.0484

                     43                     44                     45
                      A                      A                      A
 Frequencies --   1000.6891              1014.4379              1021.4873
 Red. masses --      1.2770                 6.9093                 1.4056
 Frc consts  --      0.7535                 4.1892                 0.8641
 IR Inten    --      0.6912                 2.3990                 0.1465

                     46                     47                     48
                      A                      A                      A
 Frequencies --   1022.1401              1037.6164              1054.5336
 Red. masses --      6.0196                 4.2147                 3.2081
 Frc consts  --      3.7054                 2.6736                 2.1020
 IR Inten    --      0.7082                 0.9708                 6.5751

                     49                     50                     51
                      A                      A                      A
 Frequencies --   1073.8064              1075.7493              1104.9539
 Red. masses --      2.2401                 1.5591                 1.9142
 Frc consts  --      1.5219                 1.0630                 1.3770
 IR Inten    --      1.5332                13.9655                 0.5265

                     52                     53                     54
                      A                      A                      A
 Frequencies --   1115.9845              1146.6706              1156.1891
 Red. masses --      1.6632                 1.4995                 1.3466
 Frc consts  --      1.2204                 1.1616                 1.0606
 IR Inten    --      6.5512                 2.3376                 3.7314

                     55                     56                     57
                      A                      A                      A
 Frequencies --   1193.8492              1217.4744              1224.8362
 Red. masses --      1.0959                 1.1480                 1.1307
 Frc consts  --      0.9203                 1.0026                 0.9995
 IR Inten    --      0.2885                 7.5997                 6.7051

                     58                     59                     60
                      A                      A                      A
 Frequencies --   1248.1699              1279.1043              1296.6637
 Red. masses --      3.2221                 2.2173                 4.1662
 Frc consts  --      2.9575                 2.1374                 4.1271
 IR Inten    --      2.3378                 8.3494                 0.6138

                     61                     62                     63
                      A                      A                      A
 Frequencies --   1322.4010              1335.4678              1353.8120
 Red. masses --      2.2242                 3.1437                 1.5461
 Frc consts  --      2.2916                 3.3034                 1.6695
 IR Inten    --      0.8959                 0.5016                 0.4834

                     64                     65                     66
                      A                      A                      A
 Frequencies --   1357.2692              1359.5436              1372.1797
 Red. masses --      2.2385                 2.6520                 2.4694
 Frc consts  --      2.4296                 2.8881                 2.7395
 IR Inten    --      0.3663                 1.1869                 1.0381

                     67                     68                     69
                      A                      A                      A
 Frequencies --   1432.9643              1442.9437              1462.1421
 Red. masses --      2.9497                 1.2465                 2.6734
 Frc consts  --      3.5687                 1.5291                 3.3674
 IR Inten    --     29.6234                 0.6522                 6.2866

                     70                     71                     72
                      A                      A                      A
 Frequencies --   1495.5564              1518.0458              1520.8386
 Red. masses --      2.2975                 1.0501                 1.1136
 Frc consts  --      3.0277                 1.4258                 1.5176
 IR Inten    --     23.6627                 4.9760                 4.9320

                     73                     74                     75
                      A                      A                      A
 Frequencies --   1525.5507              1550.6575              1569.2312
 Red. masses --      2.3523                 2.3932                 2.6714
 Frc consts  --      3.2255                 3.3905                 3.8758
 IR Inten    --     37.3773                 1.6480                24.1790

                     76                     77                     78
                      A                      A                      A
 Frequencies --   1600.3285              1630.9217              1641.6330
 Red. masses --      5.9171                 5.8561                 5.4271
 Frc consts  --      8.9285                 9.1774                 8.6173
 IR Inten    --     62.3814                 7.5466                38.0813

                     79                     80                     81
                      A                      A                      A
 Frequencies --   1653.8049              1666.1636              1676.6986
 Red. masses --      5.7055                 5.5819                 5.8111
 Frc consts  --      9.1942                 9.1299                 9.6254
 IR Inten    --    163.5171                 4.1350                 3.6167

                     82                     83                     84
                      A                      A                      A
 Frequencies --   3042.5937              3100.4261              3127.7798
 Red. masses --      1.0408                 1.0952                 1.1029
 Frc consts  --      5.6766                 6.2030                 6.3570
 IR Inten    --     36.2987                21.6186                15.3324

                     85                     86                     87
                      A                      A                      A
 Frequencies --   3167.2106              3180.0371              3180.5849
 Red. masses --      1.0894                 1.0878                 1.0878
 Frc consts  --      6.4384                 6.4816                 6.4836
 IR Inten    --     40.2749                18.7474                21.0126

                     88                     89                     90
                      A                      A                      A
 Frequencies --   3182.2856              3191.3038              3201.2791
 Red. masses --      1.0849                 1.0886                 1.0929
 Frc consts  --      6.4731                 6.5320                 6.5987
 IR Inten    --      1.8567                11.5646                14.4274

                     91                     92                     93
                      A                      A                      A
 Frequencies --   3202.0573              3203.8613              3210.6939
 Red. masses --      1.0926                 1.0936                 1.0966
 Frc consts  --      6.6002                 6.6142                 6.6603
 IR Inten    --     39.6052                 6.9415                18.8758

                     94                     95                     96
                      A                      A                      A
 Frequencies --   3215.2104              3225.4519              3233.0935
 Red. masses --      1.0926                 1.0892                 1.0922
 Frc consts  --      6.6547                 6.6763                 6.7262
 IR Inten    --     16.0278                 8.2508                 4.2907

 - Thermochemistry -
 -------------------
 Temperature   298.150 Kelvin.  Pressure   1.00000 Atm.
 Atom     1 has atomic number  6 and mass  12.00000

 Molecular mass:   245.12045 amu.
 Principal axes and moments of inertia in atomic units:
                           1         2         3
     Eigenvalues --  1928.09069********************
           X            0.99999   0.00304   0.00126
           Y           -0.00304   0.99999  -0.00225
           Z           -0.00127   0.00225   1.00000
 This molecule is an asymmetric top.
 Rotational symmetry number  1.
 Warning -- assumption of classical behavior for rotation
           may cause significant error
 Rotational temperatures (Kelvin)      0.04492     0.00792     0.00689
 Rotational constants (GHZ):           0.93603     0.16507     0.14366
 Zero-point vibrational energy     732742.5 (Joules/Mol)
                                  175.12967 (Kcal/Mol)
 Warning -- explicit consideration of  21 degrees of freedom as
           vibrations may cause significant error
 Vibrational temperatures:     42.17    46.49    64.91    78.07   122.81
          (Kelvin)            153.60   196.81   288.49   344.60   364.10
                              425.86   486.90   508.20   564.63   596.84
                              603.57   614.28   701.82   732.91   785.09
                              821.01   914.60   928.48   938.93   957.76
                             1019.94  1043.47  1057.46  1091.21  1146.51
                             1154.15  1195.76  1221.78  1233.28  1236.91
                             1248.64  1312.38  1346.67  1391.16  1395.13
                             1400.85  1412.36  1439.77  1459.55  1469.69
                             1470.63  1492.90  1517.24  1544.97  1547.76
                             1589.78  1605.65  1649.80  1663.50  1717.68
                             1751.67  1762.27  1795.84  1840.35  1865.61
                             1902.64  1921.44  1947.83  1952.81  1956.08
                             1974.26  2061.72  2076.07  2103.70  2151.77
                             2184.13  2188.15  2194.93  2231.05  2257.77
                             2302.52  2346.53  2361.94  2379.46  2397.24
                             2412.40  4377.61  4460.82  4500.18  4556.91
                             4575.36  4576.15  4578.60  4591.57  4605.93
                             4607.05  4609.64  4619.47  4625.97  4640.71
                             4651.70

 Zero-point correction=                           0.279087 (Hartree/Particle)
 Thermal correction to Energy=                    0.294429
 Thermal correction to Enthalpy=                  0.295374
 Thermal correction to Gibbs Free Energy=         0.234150
 Sum of electronic and zero-point Energies=           -749.517064
 Sum of electronic and thermal Energies=              -749.501722
 Sum of electronic and thermal Enthalpies=            -749.500778
 Sum of electronic and thermal Free Energies=         -749.562001

                     E (Thermal)             CV                S
                      KCal/Mol        Cal/Mol-Kelvin    Cal/Mol-Kelvin
 Total                  184.757             60.451            128.855
 Electronic               0.000              0.000              0.000
 Translational            0.889              2.981             42.391
 Rotational               0.889              2.981             33.937
 Vibrational            182.980             54.489             52.527
 Vibration     1          0.593              1.984              5.876
 Vibration     2          0.594              1.983              5.682
 Vibration     3          0.595              1.979              5.021
 Vibration     4          0.596              1.976              4.656
 Vibration     5          0.601              1.959              3.764
 Vibration     6          0.606              1.944              3.327
 Vibration     7          0.614              1.917              2.848
 Vibration     8          0.638              1.839              2.128
 Vibration     9          0.657              1.780              1.807
 Vibration    10          0.664              1.758              1.709
 Vibration    11          0.690              1.681              1.439
 Vibration    12          0.719              1.599              1.220
 Vibration    13          0.729              1.569              1.152
 Vibration    14          0.760              1.486              0.991
 Vibration    15          0.778              1.438              0.910
 Vibration    16          0.782              1.428              0.894
 Vibration    17          0.789              1.412              0.869
 Vibration    18          0.844              1.277              0.689
 Vibration    19          0.865              1.229              0.635
 Vibration    20          0.901              1.149              0.553
 Vibration    21          0.927              1.095              0.503

                           ! Non-Optimized Parameters !
 Normal termination of Gaussian 16 at Mon Dec 14 13:30:06 2020.

 ----------------------------------------------------------------------
 # B3LYP/6-311++G(d,p) empiricaldispersion=gd3bj scf=xqc pop=npa geom=c
 heck
 ----------------------------------------------------------------------

 --------------------------------------
 CID_15438775_JID_9132_Energie_neutraal
 --------------------------------------
 Structure from the checkpoint file:  "JID_9132.chk"
 Charge =  0 Multiplicity = 1

 SCF Done:  E(RB3LYP) =  -749.980372097     A.U. after   15 cycles
 Normal termination of Gaussian 16 at Mon Dec 14 13:36:37 2020.

 ----------------------------------------------------------------------
 # B3LYP/6-311++G(d,p) empiricaldispersion=gd3bj scf=xqc pop=npa geom=c
 heck
 ----------------------------------------------------------------------

 ------------------------------------
 CID_15438775_JID_9132_Energie_kation
 ------------------------------------
 Structure from the checkpoint file:  "JID_9132.chk"
 Charge =  1 Multiplicity = 2

 SCF Done:  E(UB3LYP) =  -749.691451996     A.U. after   25 cycles
 Normal termination of Gaussian 16 at Mon Dec 14 13:51:30 2020.
 Gaussian 16:  ES64L-G16RevA.03 25-Dec-2016

 ----------------------------------------------------------------------
 # B3LYP/6-311++G(d,p) empiricaldispersion=gd3bj scf=xqc pop=npa geom=c
 heck
 ----------------------------------------------------------------------

 -----------------------------------
 CID_15438775_JID_9132_Energie_anion
 -----------------------------------
 Structure from the checkpoint file:  "JID_9132.chk"
 Charge = -1 Multiplicity = 2

                         Standard orientation:
 ---------------------------------------------------------------------
 Center     Atomic      Atomic             Coordinates (Angstroms)
 Number     Number       Type             X           Y           Z
 ---------------------------------------------------------------------
      1          6           0       -6.071990   -1.458119    0.012911
      2          6           0       -4.699045   -0.833606    0.037618
      3          6           0       -4.440795    0.368155   -0.633145
      4          6           0       -3.168836    0.932606   -0.635561
      5          6           0       -2.104274    0.311522    0.034580
      6          6           0       -2.362308   -0.890913    0.709463
      7          6           0       -3.637314   -1.448939    0.711732
      8          6           0       -0.751321    0.910833    0.032722
      9          6           0        0.397125    0.112265   -0.003177
     10          6           0        1.669391    0.699790   -0.002721
     11          7           0        1.832202    2.036413    0.053204
     12          6           0        0.737184    2.797904    0.090216
     13          6           0       -0.562525    2.299195    0.074849
     14          6           0        2.909118   -0.116893   -0.050421
     15          6           0        4.124641    0.447456    0.367020
     16          6           0        5.298968   -0.299399    0.345724
     17          6           0        5.284517   -1.622500   -0.100672
     18          6           0        4.084565   -2.189844   -0.530970
     19          6           0        2.907938   -1.443835   -0.506810
     20          1           0       -6.856947   -0.697266   -0.049543
     21          1           0       -6.190032   -2.119612   -0.855577
     22          1           0       -6.253018   -2.061558    0.908300
     23          1           0       -5.247373    0.865986   -1.166008
     24          1           0       -2.991918    1.854102   -1.182402
     25          1           0       -1.564148   -1.375412    1.264116
     26          1           0       -3.814414   -2.374403    1.254315
     27          1           0        0.294263   -0.965940   -0.035145
     28          1           0        0.907368    3.872349    0.139560
     29          1           0       -1.409291    2.975143    0.131673
     30          1           0        4.124429    1.477586    0.704153
     31          1           0        6.229401    0.152093    0.679052
     32          1           0        6.201613   -2.204659   -0.118728
     33          1           0        4.064370   -3.213460   -0.894623
     34          1           0        1.990046   -1.893912   -0.871725
 ---------------------------------------------------------------------

 SCF Done:  E(UB3LYP) =  -749.991050195     A.U. after   25 cycles

 The electronic state is 2-A.
 Alpha  occ. eigenvalues --  -14.14420 -10.07267 -10.06201 -10.06138 -10.05942
 Alpha  occ. eigenvalues --  -10.05720 -10.05653 -10.05636 -10.05555 -10.05208
 Alpha  occ. eigenvalues --  -10.05140 -10.05102 -10.05084 -10.05080 -10.05006
 Alpha  occ. eigenvalues --  -10.04214 -10.04142 -10.03830 -10.02566  -0.79654
 Alpha  occ. eigenvalues --   -0.74454  -0.73352  -0.68644  -0.65012  -0.64332
 Alpha  occ. eigenvalues --   -0.63002  -0.62554  -0.59751  -0.57751  -0.51111
 Alpha  occ. eigenvalues --   -0.50348  -0.48982  -0.47809  -0.46376  -0.44714
 Alpha  occ. eigenvalues --   -0.41066  -0.38341  -0.36212  -0.35243  -0.34837
 Alpha  occ. eigenvalues --   -0.33911  -0.33605  -0.32414  -0.31478  -0.31161
 Alpha  occ. eigenvalues --   -0.30678  -0.30293  -0.29086  -0.28732  -0.27545
 Alpha  occ. eigenvalues --   -0.26811  -0.25011  -0.24402  -0.23791  -0.23025
 Alpha  occ. eigenvalues --   -0.22440  -0.22229  -0.21135  -0.17118  -0.15467
 Alpha  occ. eigenvalues --   -0.14218  -0.13788  -0.11369  -0.11246  -0.10308
 Alpha  occ. eigenvalues --    0.03856
 Alpha virt. eigenvalues --    0.06851   0.07810   0.08053   0.08737   0.09097
 Alpha virt. eigenvalues --    0.09483   0.09698   0.09961   0.10281   0.10540
 Alpha virt. eigenvalues --    0.10768   0.11937   0.12385   0.12794   0.12842

  Beta  occ. eigenvalues --  -14.13977 -10.07285 -10.06273 -10.06005 -10.05780
  Beta  occ. eigenvalues --  -10.05722 -10.05671 -10.05644 -10.05594 -10.05126
  Beta  occ. eigenvalues --  -10.05063 -10.05039 -10.04989 -10.04959 -10.04951
  Beta  occ. eigenvalues --  -10.04052 -10.04000 -10.03893 -10.02357  -0.79073
  Beta  occ. eigenvalues --   -0.74225  -0.73191  -0.68214  -0.64732  -0.64051
  Beta  occ. eigenvalues --   -0.62863  -0.62428  -0.59505  -0.57599  -0.50879
  Beta  occ. eigenvalues --   -0.50016  -0.48887  -0.47584  -0.46271  -0.44482
  Beta  occ. eigenvalues --   -0.40981  -0.38216  -0.36067  -0.35059  -0.34706
  Beta  occ. eigenvalues --   -0.33776  -0.33493  -0.32189  -0.31328  -0.31059
  Beta  occ. eigenvalues --   -0.30634  -0.30239  -0.29004  -0.28603  -0.27357
  Beta  occ. eigenvalues --   -0.26043  -0.24546  -0.24256  -0.23173  -0.22894
  Beta  occ. eigenvalues --   -0.22349  -0.22107  -0.20991  -0.15842  -0.14582
  Beta  occ. eigenvalues --   -0.13840  -0.13440  -0.10856  -0.10418  -0.09172
  Beta virt. eigenvalues --    0.06781   0.07781   0.08332   0.08652   0.08833
  Beta virt. eigenvalues --    0.09048   0.09451   0.09852   0.10147   0.10219
  Beta virt. eigenvalues --    0.10676   0.10986   0.11896   0.12351   0.12824

 Mulliken charges and spin densities:
               1          2
     1  C   -0.568530  -0.025530
     2  C    0.690166   0.111818
     3  C   -0.705555  -0.013643
     4  C   -0.582666   0.085484
     5  C    0.776783   0.008670
     6  C   -0.744811   0.071127
     7  C   -0.399362  -0.005883
     8  C    0.880659   0.089390
     9  C   -0.182711  -0.015494
    10  C   -0.781416   0.074957
    11  N    0.022305   0.216498
    12  C   -0.134540  -0.054905
    13  C   -0.572278   0.226957
    14  C    1.611223   0.004357
    15  C   -0.175389   0.076988
    16  C   -0.363344  -0.020784
    17  C   -0.332791   0.114208
    18  C   -0.472932  -0.005165
    19  C   -0.685052   0.032153
    20  H    0.123920   0.005326
    21  H    0.121459   0.026901
    22  H    0.116933   0.007403
    23  H    0.119326   0.001666
    24  H    0.108865  -0.000978
    25  H    0.128812  -0.002688
    26  H    0.124205   0.001706
    27  H   -0.032742   0.008003
    28  H    0.136248   0.001674
    29  H    0.114627  -0.003888
    30  H    0.164686  -0.007057
    31  H    0.132991   0.001973
    32  H    0.103454  -0.009011
    33  H    0.133180  -0.000012
    34  H    0.124278  -0.002224
 Sum of Mulliken charges =  -1.00000   1.00000

 Dipole moment (field-independent basis, Debye):
    X=             -2.8870    Y=             -2.2573    Z=             -0.0049  Tot=              3.6648
 Quadrupole moment (field-independent basis, Debye-Ang):
   XX=           -172.8137   YY=           -127.3410   ZZ=           -124.5107
   XY=             -2.7842   XZ=              2.2514   YZ=             -0.5765

 Summary of Natural Population Analysis:

                                       Natural Population
                Natural  -----------------------------------------------
    Atom  No    Charge         Core      Valence    Rydberg      Total
 -----------------------------------------------------------------------
      C    1   -0.29163      0.99965     2.28754    0.00444     3.29163
      C    2    0.00839      0.99952     1.98385    0.00824     2.99161
      C    3   -0.11610      0.99953     2.10811    0.00845     3.11610
      C    4   -0.07354      0.99953     2.06602    0.00798     3.07354
      C    5   -0.01689      0.99950     2.00691    0.01047     3.01689
      C    6   -0.07653      0.99953     2.06905    0.00795     3.07653
      C    7   -0.11398      0.99953     2.10598    0.00847     3.11398
      C    8    0.02663      0.99938     1.96320    0.01078     2.97337
      C    9   -0.11973      0.99946     2.11414    0.00613     3.11973
      C   10    0.10727      0.99952     1.87980    0.01341     2.89273
      N   11   -0.18482      0.99968     2.67386    0.01128     3.68482
      C   12    0.01161      0.99960     1.97428    0.01450     2.98839
      C   13   -0.08785      0.99954     2.08027    0.00804     3.08785
      C   14   -0.01610      0.99939     2.00546    0.01125     3.01610
      C   15   -0.06716      0.99944     2.05840    0.00931     3.06716
      C   16   -0.12081      0.99959     2.11127    0.00996     3.12081
      C   17   -0.08860      0.99957     2.07954    0.00949     3.08860
      C   18   -0.11638      0.99959     2.10682    0.00996     3.11638
      C   19   -0.08401      0.99945     2.07676    0.00780     3.08401
      H   20    0.09728      0.00000     0.40183    0.00089     0.40272
      H   21    0.10004      0.00000     0.39895    0.00101     0.39996
      H   22    0.09742      0.00000     0.40168    0.00090     0.40258
      H   23    0.09124      0.00000     0.40775    0.00101     0.40876
      H   24    0.09726      0.00000     0.40134    0.00140     0.40274
      H   25    0.09754      0.00000     0.40107    0.00139     0.40246
      H   26    0.09153      0.00000     0.40745    0.00102     0.40847
      H   27    0.09639      0.00000     0.40203    0.00158     0.40361
      H   28    0.07869      0.00000     0.41998    0.00133     0.42131
      H   29    0.09343      0.00000     0.40520    0.00137     0.40657
      H   30    0.10943      0.00000     0.38909    0.00148     0.39057
      H   31    0.09215      0.00000     0.40677    0.00108     0.40785
      H   32    0.08992      0.00000     0.40900    0.00107     0.41008
      H   33    0.09217      0.00000     0.40674    0.00109     0.40783
      H   34    0.09576      0.00000     0.40253    0.00171     0.40424
 =======================================================================
   * Total *    0.00004     18.99102    45.81268    0.19627    64.99996

 Normal termination of Gaussian 16 at Mon Dec 14 14:06:47 2020.
