 Gaussian 16, Revision A.03,

 -----------------------------------------------------------
 # opt freq B3LYP/6-31G(d) empiricaldispersion=gd3bj scf=xqc
 -----------------------------------------------------------

 -------------------------------
 CID_61480816_JID_10297_neutraal
 -------------------------------
 Symbolic Z-matrix:
 Charge =  0 Multiplicity = 1

 SCF Done:  E(RB3LYP) =  -1295.00020944     A.U. after   15 cycles
 SCF Done:  E(RB3LYP) =  -1295.00906697     A.U. after   13 cycles
 SCF Done:  E(RB3LYP) =  -1295.00735772     A.U. after   13 cycles
 SCF Done:  E(RB3LYP) =  -1295.01086092     A.U. after   12 cycles
 SCF Done:  E(RB3LYP) =  -1295.01048900     A.U. after   13 cycles
 SCF Done:  E(RB3LYP) =  -1295.01175248     A.U. after   12 cycles
 SCF Done:  E(RB3LYP) =  -1295.01192359     A.U. after   12 cycles
 SCF Done:  E(RB3LYP) =  -1295.01214775     A.U. after   11 cycles
 SCF Done:  E(RB3LYP) =  -1295.01226230     A.U. after   11 cycles
 SCF Done:  E(RB3LYP) =  -1295.01234801     A.U. after   12 cycles
 SCF Done:  E(RB3LYP) =  -1295.01253684     A.U. after    8 cycles
 SCF Done:  E(RB3LYP) =  -1295.01253790     A.U. after    9 cycles
 SCF Done:  E(RB3LYP) =  -1295.01253926     A.U. after    8 cycles
 SCF Done:  E(RB3LYP) =  -1295.01253996     A.U. after    9 cycles
 SCF Done:  E(RB3LYP) =  -1295.01254005     A.U. after    7 cycles
 Optimization completed.
    -- Stationary point found.
 Normal termination of Gaussian 16 at Mon Dec 14 19:01:03 2020.

 --------------------------------------------------------------------
 #N Geom=AllCheck Guess=TCheck SCRF=Check GenChk RB3LYP/6-31G(d) Freq
 --------------------------------------------------------------------

 Structure from the checkpoint file:  "JID_10297.chk"
 -------------------------------
 CID_61480816_JID_10297_neutraal
 -------------------------------
 Charge =  0 Multiplicity = 1

 SCF Done:  E(RB3LYP) =  -1295.01254005     A.U. after    1 cycles

  Exact polarizability: 236.352   7.219 151.894  -8.817  12.260 146.028
 Approx polarizability: 295.334  15.126 233.568 -25.734  36.361 263.492

                      1                      2                      3
                      A                      A                      A
 Frequencies --     18.7018                33.8773                37.1485
 Red. masses --      5.5240                 6.1141                 3.0594
 Frc consts  --      0.0011                 0.0041                 0.0025
 IR Inten    --      0.4841                 0.3342                 0.0212

                      4                      5                      6
                      A                      A                      A
 Frequencies --     55.0200                59.3311                78.7714
 Red. masses --      3.5205                 7.2642                 5.9890
 Frc consts  --      0.0063                 0.0151                 0.0219
 IR Inten    --      0.1765                 1.9675                 1.1563

                      7                      8                      9
                      A                      A                      A
 Frequencies --    104.3949               107.5402               113.1673
 Red. masses --      4.9314                 4.4463                 6.5665
 Frc consts  --      0.0317                 0.0303                 0.0495
 IR Inten    --      1.1919                 0.2982                 0.7726

                     10                     11                     12
                      A                      A                      A
 Frequencies --    123.6307               135.8612               163.7336
 Red. masses --      4.3125                 3.6719                 4.3086
 Frc consts  --      0.0388                 0.0399                 0.0681
 IR Inten    --      1.2592                 0.7968                 2.6101

                     13                     14                     15
                      A                      A                      A
 Frequencies --    212.6669               225.5678               247.3330
 Red. masses --      4.1871                 4.2396                 1.1109
 Frc consts  --      0.1116                 0.1271                 0.0400
 IR Inten    --      0.0350                 1.6201                 0.1565

                     16                     17                     18
                      A                      A                      A
 Frequencies --    265.9832               269.3457               287.7201
 Red. masses --      2.1848                 4.5637                 1.3166
 Frc consts  --      0.0911                 0.1951                 0.0642
 IR Inten    --      0.5101                 6.1900                 0.0835

                     19                     20                     21
                      A                      A                      A
 Frequencies --    310.0813               324.9734               338.0424
 Red. masses --      4.2574                 3.5474                 2.7792
 Frc consts  --      0.2412                 0.2207                 0.1871
 IR Inten    --      2.8858                 2.2502                 0.8741

                     22                     23                     24
                      A                      A                      A
 Frequencies --    385.2175               388.2800               419.3799
 Red. masses --      3.4383                 2.7186                 3.1610
 Frc consts  --      0.3006                 0.2415                 0.3276
 IR Inten    --      2.2091                 3.1448                 2.9588

                     25                     26                     27
                      A                      A                      A
 Frequencies --    443.1712               489.9807               503.1911
 Red. masses --      2.6672                 2.7984                 2.8656
 Frc consts  --      0.3086                 0.3958                 0.4275
 IR Inten    --     15.0746                 3.2492                30.9707

                     28                     29                     30
                      A                      A                      A
 Frequencies --    513.4044               527.4339               568.7665
 Red. masses --      3.9943                 3.6808                 3.0075
 Frc consts  --      0.6203                 0.6033                 0.5732
 IR Inten    --     10.3274                 5.6428                 3.2629

                     31                     32                     33
                      A                      A                      A
 Frequencies --    585.5890               618.6760               640.2387
 Red. masses --      4.0904                 3.4123                 2.7325
 Frc consts  --      0.8264                 0.7695                 0.6599
 IR Inten    --     14.2530                80.2486                62.8860

                     34                     35                     36
                      A                      A                      A
 Frequencies --    687.6273               697.9556               708.3544
 Red. masses --      2.5095                 2.5466                 3.1463
 Frc consts  --      0.6991                 0.7309                 0.9301
 IR Inten    --     56.3704                57.4323                 5.5376

                     37                     38                     39
                      A                      A                      A
 Frequencies --    724.8410               745.6561               783.8250
 Red. masses --      1.7883                 3.6879                 1.1382
 Frc consts  --      0.5536                 1.2081                 0.4120
 IR Inten    --     38.6960                56.1894                 2.0801

                     40                     41                     42
                      A                      A                      A
 Frequencies --    797.1968               831.9332               836.9994
 Red. masses --      3.5492                 1.8752                 2.9200
 Frc consts  --      1.3290                 0.7647                 1.2053
 IR Inten    --     15.1700                10.9269                 6.8802

                     43                     44                     45
                      A                      A                      A
 Frequencies --    850.9768               861.7364               866.9255
 Red. masses --      2.6349                 3.4494                 3.3408
 Frc consts  --      1.1242                 1.5092                 1.4793
 IR Inten    --     14.9855                 9.8050                 2.4010

                     46                     47                     48
                      A                      A                      A
 Frequencies --    889.7197               913.6303               945.0131
 Red. masses --      2.8686                 1.6935                 1.1650
 Frc consts  --      1.3379                 0.8329                 0.6130
 IR Inten    --      1.8184                 1.7536                 1.3681

                     49                     50                     51
                      A                      A                      A
 Frequencies --    954.3321               975.5181               981.2831
 Red. masses --      2.5631                 2.3577                 1.7690
 Frc consts  --      1.3753                 1.3219                 1.0036
 IR Inten    --      5.7803                41.0363                31.4685

                     52                     53                     54
                      A                      A                      A
 Frequencies --    991.2454              1024.5324              1071.2967
 Red. masses --      2.6914                 2.5288                 1.3522
 Frc consts  --      1.5581                 1.5639                 0.9143
 IR Inten    --     19.4883                 7.1215                 9.3177

                     55                     56                     57
                      A                      A                      A
 Frequencies --   1093.8244              1108.2617              1137.2572
 Red. masses --      1.3648                 1.4354                 1.9594
 Frc consts  --      0.9621                 1.0387                 1.4931
 IR Inten    --      1.9873                19.0883                17.1231

                     58                     59                     60
                      A                      A                      A
 Frequencies --   1141.5260              1152.4076              1167.9234
 Red. masses --      1.9407                 1.4461                 1.7403
 Frc consts  --      1.4900                 1.1315                 1.3986
 IR Inten    --      6.6639                 9.5664                18.1464

                     61                     62                     63
                      A                      A                      A
 Frequencies --   1181.6630              1207.8309              1210.3929
 Red. masses --      2.0529                 1.5203                 2.0563
 Frc consts  --      1.6889                 1.3068                 1.7750
 IR Inten    --     76.3396                29.4778                56.2921

                     64                     65                     66
                      A                      A                      A
 Frequencies --   1217.1841              1227.4261              1238.5328
 Red. masses --      1.6776                 2.3330                 1.9994
 Frc consts  --      1.4644                 2.0709                 1.8071
 IR Inten    --      3.6850                96.3348                 8.1991

                     67                     68                     69
                      A                      A                      A
 Frequencies --   1287.4052              1303.2273              1319.5624
 Red. masses --      2.6426                 3.6647                 1.6640
 Frc consts  --      2.5806                 3.6672                 1.7071
 IR Inten    --    302.6662                21.0988                68.5409

                     70                     71                     72
                      A                      A                      A
 Frequencies --   1337.3009              1352.8856              1378.9947
 Red. masses --      1.7279                 1.3630                 1.4218
 Frc consts  --      1.8207                 1.4698                 1.5930
 IR Inten    --    128.8925                 0.8419                36.9734

                     73                     74                     75
                      A                      A                      A
 Frequencies --   1395.2751              1398.4957              1406.5252
 Red. masses --      1.8860                 1.9717                 1.4957
 Frc consts  --      2.1633                 2.2720                 1.7433
 IR Inten    --      0.9450                21.9417                14.8940

                     76                     77                     78
                      A                      A                      A
 Frequencies --   1423.8645              1428.1120              1444.6600
 Red. masses --      1.2768                 1.6207                 1.2434
 Frc consts  --      1.5252                 1.9475                 1.5289
 IR Inten    --     10.5546                 8.9287                 6.1282

                     79                     80                     81
                      A                      A                      A
 Frequencies --   1447.0111              1465.3818              1474.4430
 Red. masses --      1.5299                 1.5655                 1.4123
 Frc consts  --      1.8874                 1.9806                 1.8089
 IR Inten    --     20.8448               173.4429               155.7230

                     82                     83                     84
                      A                      A                      A
 Frequencies --   1493.4972              1508.8389              1519.8261
 Red. masses --      1.0900                 1.1409                 1.0491
 Frc consts  --      1.4325                 1.5303                 1.4278
 IR Inten    --      1.4043                15.3568                 4.3657

                     85                     86                     87
                      A                      A                      A
 Frequencies --   1523.7737              1533.0411              1536.7292
 Red. masses --      1.0487                 1.0457                 1.3689
 Frc consts  --      1.4346                 1.4479                 1.9046
 IR Inten    --      0.3375                 7.9615                 4.2898

                     88                     89                     90
                      A                      A                      A
 Frequencies --   1543.2219              1581.3164              1593.8104
 Red. masses --      1.0942                 5.7055                 6.9909
 Frc consts  --      1.5354                 8.4059                10.4630
 IR Inten    --     11.1649                36.6726               280.3985

                     91                     92                     93
                      A                      A                      A
 Frequencies --   1795.6117              1845.8154              3024.7527
 Red. masses --      9.0486                 9.8329                 1.0828
 Frc consts  --     17.1892                19.7382                 5.8367
 IR Inten    --    451.0279               273.2101                12.9670

                     94                     95                     96
                      A                      A                      A
 Frequencies --   3044.7829              3046.3613              3051.0748
 Red. masses --      1.0722                 1.0358                 1.0365
 Frc consts  --      5.8563                 5.6634                 5.6849
 IR Inten    --     20.6087                21.6376                33.4219

                     97                     98                     99
                      A                      A                      A
 Frequencies --   3094.1902              3110.8922              3116.0720
 Red. masses --      1.0592                 1.1021                 1.1022
 Frc consts  --      5.9749                 6.2839                 6.3055
 IR Inten    --     12.6437                 8.0557                53.4195

                    100                    101                    102
                      A                      A                      A
 Frequencies --   3123.9868              3141.0025              3145.7492
 Red. masses --      1.1023                 1.1012                 1.0940
 Frc consts  --      6.3381                 6.4011                 6.3784
 IR Inten    --     43.4570                21.4731                 6.8219

                    103                    104                    105
                      A                      A                      A
 Frequencies --   3147.0852              3153.1457              3162.5399
 Red. masses --      1.0624                 1.0590                 1.0911
 Frc consts  --      6.1997                 6.2034                 6.4295
 IR Inten    --     13.3173                 8.9935                 7.0473

                    106                    107                    108
                      A                      A                      A
 Frequencies --   3186.3019              3223.3020              3237.9915
 Red. masses --      1.0904                 1.1183                 1.1149
 Frc consts  --      6.5226                 6.8458                 6.8873
 IR Inten    --      4.2928                 1.2823                17.7020

                    109                    110                    111
                      A                      A                      A
 Frequencies --   3288.1958              3578.4156              3685.5874
 Red. masses --      1.0942                 1.0750                 1.0640
 Frc consts  --      6.9702                 8.1103                 8.5154
 IR Inten    --      1.4694                54.9015                57.3579

 - Thermochemistry -
 -------------------
 Temperature   298.150 Kelvin.  Pressure   1.00000 Atm.
 Atom     1 has atomic number  6 and mass  12.00000

 Molecular mass:   297.11471 amu.
 Principal axes and moments of inertia in atomic units:
                           1         2         3
     Eigenvalues --  2592.11928********************
           X            0.99996  -0.00842   0.00075
           Y            0.00842   0.99996  -0.00141
           Z           -0.00074   0.00141   1.00000
 This molecule is an asymmetric top.
 Rotational symmetry number  1.
 Warning -- assumption of classical behavior for rotation
           may cause significant error
 Rotational temperatures (Kelvin)      0.03341     0.00703     0.00645
 Rotational constants (GHZ):           0.69624     0.14641     0.13430
 Zero-point vibrational energy     841699.1 (Joules/Mol)
                                  201.17092 (Kcal/Mol)
 Warning -- explicit consideration of  32 degrees of freedom as
           vibrations may cause significant error
 Vibrational temperatures:     26.91    48.74    53.45    79.16    85.36
          (Kelvin)            113.33   150.20   154.73   162.82   177.88
                              195.47   235.58   305.98   324.54   355.86
                              382.69   387.53   413.97   446.14   467.56
                              486.37   554.24   558.65   603.39   637.62
                              704.97   723.98   738.67   758.86   818.33
                              842.53   890.14   921.16   989.34  1004.20
                             1019.16  1042.88  1072.83  1127.75  1146.99
                             1196.97  1204.26  1224.37  1239.85  1247.31
                             1280.11  1314.51  1359.66  1373.07  1403.55
                             1411.85  1426.18  1474.07  1541.36  1573.77
                             1594.54  1636.26  1642.40  1658.06  1680.38
                             1700.15  1737.80  1741.49  1751.26  1765.99
                             1781.97  1852.29  1875.05  1898.56  1924.08
                             1946.50  1984.07  2007.49  2012.12  2023.68
                             2048.62  2054.73  2078.54  2081.93  2108.36
                             2121.39  2148.81  2170.88  2186.69  2192.37
                             2205.70  2211.01  2220.35  2275.16  2293.14
                             2583.48  2655.72  4351.94  4380.76  4383.03
                             4389.82  4451.85  4475.88  4483.33  4494.72
                             4519.20  4526.03  4527.95  4536.67  4550.19
                             4584.38  4637.61  4658.75  4730.98  5148.54
                             5302.74

 Zero-point correction=                           0.320586 (Hartree/Particle)
 Thermal correction to Energy=                    0.341193
 Thermal correction to Enthalpy=                  0.342137
 Thermal correction to Gibbs Free Energy=         0.269218
 Sum of electronic and zero-point Energies=          -1294.691954
 Sum of electronic and thermal Energies=             -1294.671347
 Sum of electronic and thermal Enthalpies=           -1294.670403
 Sum of electronic and thermal Free Energies=        -1294.743322

                     E (Thermal)             CV                S
                      KCal/Mol        Cal/Mol-Kelvin    Cal/Mol-Kelvin
 Total                  214.102             76.589            153.470
 Electronic               0.000              0.000              0.000
 Translational            0.889              2.981             42.964
 Rotational               0.889              2.981             34.417
 Vibrational            212.324             70.627             76.089
 Vibration     1          0.593              1.986              6.767
 Vibration     2          0.594              1.983              5.588
 Vibration     3          0.594              1.982              5.406
 Vibration     4          0.596              1.976              4.628
 Vibration     5          0.597              1.974              4.479
 Vibration     6          0.600              1.963              3.921
 Vibration     7          0.605              1.946              3.371
 Vibration     8          0.606              1.943              3.313
 Vibration     9          0.607              1.939              3.214
 Vibration    10          0.610              1.929              3.043
 Vibration    11          0.614              1.918              2.861
 Vibration    12          0.623              1.887              2.506
 Vibration    13          0.644              1.822              2.021
 Vibration    14          0.650              1.802              1.914
 Vibration    15          0.661              1.767              1.750
 Vibration    16          0.672              1.735              1.622
 Vibration    17          0.674              1.730              1.600
 Vibration    18          0.685              1.697              1.487
 Vibration    19          0.699              1.655              1.362
 Vibration    20          0.709              1.626              1.285
 Vibration    21          0.718              1.599              1.221
 Vibration    22          0.754              1.502              1.019
 Vibration    23          0.756              1.495              1.007
 Vibration    24          0.782              1.428              0.894
 Vibration    25          0.803              1.376              0.817
 Vibration    26          0.846              1.272              0.684
 Vibration    27          0.859              1.243              0.650
 Vibration    28          0.868              1.220              0.625
 Vibration    29          0.882              1.189              0.593
 Vibration    30          0.925              1.099              0.507
 Vibration    31          0.943              1.063              0.475
 Vibration    32          0.979              0.992              0.419

                           ! Non-Optimized Parameters !
 Normal termination of Gaussian 16 at Mon Dec 14 19:19:55 2020.

 ----------------------------------------------------------------------
 # B3LYP/6-311++G(d,p) empiricaldispersion=gd3bj scf=xqc pop=npa geom=c
 heck
 ----------------------------------------------------------------------

 ---------------------------------------
 CID_61480816_JID_10297_Energie_neutraal
 ---------------------------------------
 Structure from the checkpoint file:  "JID_10297.chk"
 Charge =  0 Multiplicity = 1

 SCF Done:  E(RB3LYP) =  -1295.30272064     A.U. after   16 cycles
 Normal termination of Gaussian 16 at Mon Dec 14 19:29:08 2020.

 ----------------------------------------------------------------------
 # B3LYP/6-311++G(d,p) empiricaldispersion=gd3bj scf=xqc pop=npa geom=c
 heck
 ----------------------------------------------------------------------

 -------------------------------------
 CID_61480816_JID_10297_Energie_kation
 -------------------------------------
 Structure from the checkpoint file:  "JID_10297.chk"
 Charge =  1 Multiplicity = 2

 SCF Done:  E(UB3LYP) =  -1295.00950626     A.U. after   26 cycles
 Normal termination of Gaussian 16 at Mon Dec 14 19:50:30 2020.
 Gaussian 16:  ES64L-G16RevA.03 25-Dec-2016

 ----------------------------------------------------------------------
 # B3LYP/6-311++G(d,p) empiricaldispersion=gd3bj scf=xqc pop=npa geom=c
 heck
 ----------------------------------------------------------------------

 ------------------------------------
 CID_61480816_JID_10297_Energie_anion
 ------------------------------------
 Structure from the checkpoint file:  "JID_10297.chk"
 Charge = -1 Multiplicity = 2

                         Standard orientation:
 ---------------------------------------------------------------------
 Center     Atomic      Atomic             Coordinates (Angstroms)
 Number     Number       Type             X           Y           Z
 ---------------------------------------------------------------------
      1          6           0        5.812841    1.185714    0.379834
      2          6           0        4.933230    0.334009   -0.539429
      3          6           0        5.548733   -1.057554   -0.772000
      4          6           0        3.519339    0.196807   -0.031490
      5          6           0        3.032718    0.617154    1.170356
      6         16           0        1.339129    0.214680    1.329229
      7          6           0        1.422879   -0.490959   -0.288499
      8          7           0        2.592417   -0.431252   -0.851584
      9          7           0        0.349597   -1.126883   -0.904552
     10          6           0       -0.881391   -1.436726   -0.281505
     11          8           0       -1.284981   -2.587848   -0.237804
     12          7           0       -1.558917   -0.367927    0.257911
     13          6           0       -1.420209    1.025359   -0.192769
     14          6           0       -2.639502    1.563482   -0.908190
     15          6           0       -3.766659    2.210770   -0.135568
     16          6           0       -2.835172    3.058203   -0.961285
     17          6           0       -2.697536   -0.690253    1.095878
     18          6           0       -4.045148   -0.856225    0.405370
     19          8           0       -5.102471   -0.692974    0.972183
     20          8           0       -3.947527   -1.255566   -0.879172
     21          1           0        5.921973    0.715664    1.364774
     22          1           0        5.394433    2.187851    0.524041
     23          1           0        6.815005    1.294838   -0.047269
     24          1           0        4.867199    0.832865   -1.517062
     25          1           0        5.656612   -1.592653    0.178934
     26          1           0        4.912078   -1.655590   -1.429723
     27          1           0        6.540628   -0.968438   -1.229306
     28          1           0        3.540803    1.150414    1.959609
     29          1           0        0.656962   -1.886108   -1.503399
     30          1           0       -1.198240    1.655898    0.678026
     31          1           0       -0.558057    1.074672   -0.857047
     32          1           0       -2.919709    1.001006   -1.794147
     33          1           0       -4.782784    2.053978   -0.483524
     34          1           0       -3.678421    2.267400    0.946308
     35          1           0       -2.116511    3.682497   -0.435810
     36          1           0       -3.205554    3.491790   -1.885245
     37          1           0       -2.491529   -1.638632    1.600295
     38          1           0       -2.823111    0.083570    1.856756
     39          1           0       -4.864423   -1.371036   -1.192190
 ---------------------------------------------------------------------

 SCF Done:  E(UB3LYP) =  -1295.29513093     A.U. after   33 cycles
 SCF Done:  E(UB3LYP) =  -1295.29513093     a.u. after    1 cycles

 The electronic state is 2-A.
 Alpha  occ. eigenvalues --  -88.78854 -19.08687 -19.03407 -19.01175 -14.27124
 Alpha  occ. eigenvalues --  -14.26767 -14.21563 -10.22677 -10.22249 -10.18104
 Alpha  occ. eigenvalues --  -10.14198 -10.13141 -10.11442 -10.09987 -10.09912
 Alpha  occ. eigenvalues --  -10.09571 -10.09355 -10.09179 -10.07546 -10.07265
 Alpha  occ. eigenvalues --   -7.87465  -5.83769  -5.83410  -5.83021  -1.03012
 Alpha  occ. eigenvalues --   -0.98061  -0.94067  -0.89625  -0.86940  -0.83077
 Alpha  occ. eigenvalues --   -0.78248  -0.72069  -0.70702  -0.67840  -0.64296
 Alpha  occ. eigenvalues --   -0.62695  -0.60171  -0.55568  -0.52985  -0.52808
 Alpha  occ. eigenvalues --   -0.52522  -0.50722  -0.49246  -0.46138  -0.44505
 Alpha  occ. eigenvalues --   -0.43157  -0.41888  -0.41105  -0.40741  -0.39723
 Alpha  occ. eigenvalues --   -0.38911  -0.37670  -0.36736  -0.36088  -0.35472
 Alpha  occ. eigenvalues --   -0.34529  -0.33533  -0.32494  -0.32306  -0.31888
 Alpha  occ. eigenvalues --   -0.31181  -0.30808  -0.30083  -0.29743  -0.28777
 Alpha  occ. eigenvalues --   -0.28448  -0.26271  -0.25872  -0.24632  -0.24541
 Alpha  occ. eigenvalues --   -0.23377  -0.22692  -0.21697  -0.20834  -0.19844
 Alpha  occ. eigenvalues --   -0.19159  -0.18409  -0.17052  -0.13137   0.03665
 Alpha virt. eigenvalues --    0.04976   0.06034   0.06239   0.06843   0.07400
 Alpha virt. eigenvalues --    0.07488   0.07755   0.08070   0.09038   0.09145
 Alpha virt. eigenvalues --    0.09416   0.09770   0.10143   0.10508   0.10877

  Beta  occ. eigenvalues --  -88.78838 -19.08647 -19.03394 -19.01156 -14.27125
  Beta  occ. eigenvalues --  -14.26768 -14.21564 -10.22669 -10.22220 -10.18013
  Beta  occ. eigenvalues --  -10.14185 -10.13136 -10.11432 -10.09978 -10.09843
  Beta  occ. eigenvalues --  -10.09570 -10.09340 -10.09162 -10.07520 -10.07245
  Beta  occ. eigenvalues --   -7.87449  -5.83749  -5.83402  -5.82984  -1.02957
  Beta  occ. eigenvalues --   -0.98020  -0.94023  -0.89553  -0.86923  -0.83049
  Beta  occ. eigenvalues --   -0.78234  -0.72038  -0.70620  -0.67807  -0.64244
  Beta  occ. eigenvalues --   -0.62626  -0.60126  -0.55489  -0.52888  -0.52744
  Beta  occ. eigenvalues --   -0.52469  -0.50679  -0.49192  -0.46088  -0.44466
  Beta  occ. eigenvalues --   -0.43110  -0.41831  -0.41072  -0.40700  -0.39679
  Beta  occ. eigenvalues --   -0.38869  -0.37631  -0.36689  -0.35999  -0.35407
  Beta  occ. eigenvalues --   -0.34493  -0.33468  -0.32432  -0.32248  -0.31843
  Beta  occ. eigenvalues --   -0.31145  -0.30735  -0.30016  -0.29688  -0.28750
  Beta  occ. eigenvalues --   -0.28411  -0.26211  -0.25840  -0.24585  -0.24498
  Beta  occ. eigenvalues --   -0.23288  -0.22661  -0.21664  -0.20806  -0.19774
  Beta  occ. eigenvalues --   -0.19126  -0.18299  -0.17011  -0.12902
  Beta virt. eigenvalues --    0.05604   0.06033   0.06534   0.06896   0.07183
  Beta virt. eigenvalues --    0.07578   0.07778   0.07880   0.08201   0.09267
  Beta virt. eigenvalues --    0.09402   0.09532   0.09990   0.10361   0.10627

 Mulliken charges and spin densities:
               1          2
     1  C    0.451143  -1.023295
     2  C   -1.353006   1.432063
     3  C    0.006786  -0.631991
     4  C    0.595294  -1.566200
     5  C   -0.381459   0.899572
     6  S    0.527786  -0.772281
     7  C    0.202199  -0.046904
     8  N   -0.009945   0.075344
     9  N   -0.047132  -0.035986
    10  C    0.118711   0.008010
    11  O   -0.293475   0.003259
    12  N    0.271011  -0.016535
    13  C    0.458580  -1.259626
    14  C   -1.586144   1.854979
    15  C    0.319306  -0.706545
    16  C    0.426217  -0.939243
    17  C    0.259571  -0.410902
    18  C   -0.205467  -0.062252
    19  O   -0.230000   0.022777
    20  O   -0.078054  -0.019090
    21  H    0.055248   0.073462
    22  H   -0.077964   0.208844
    23  H   -0.211425   0.373914
    24  H   -0.022980   0.198746
    25  H    0.045491   0.092533
    26  H    0.115763   0.036330
    27  H   -0.084059   0.222854
    28  H   -0.380616   0.668441
    29  H    0.222809   0.125810
    30  H   -0.051109   0.221314
    31  H    0.166978   0.040338
    32  H   -0.156648   0.452654
    33  H   -0.134126   0.318277
    34  H    0.099702   0.058227
    35  H   -0.022666   0.157770
    36  H   -0.100608   0.252210
    37  H    0.185255   0.054053
    38  H    0.062307   0.184467
    39  H   -0.163275   0.454601
 Sum of Mulliken charges =  -1.00000   1.00000

 Dipole moment (field-independent basis, Debye):
    X=              0.4541    Y=             -0.2749    Z=              1.2259  Tot=              1.3359
 Quadrupole moment (field-independent basis, Debye-Ang):
   XX=           -253.9461   YY=           -169.4457   ZZ=           -158.9566
   XY=             -7.2028   XZ=             -4.1417   YZ=             -1.5813

 Summary of Natural Population Analysis:

                                       Natural Population
                Natural  -----------------------------------------------
    Atom  No    Charge         Core      Valence    Rydberg      Total
 -----------------------------------------------------------------------
      C    1   -0.28363      0.99966     2.27895    0.00502     3.28363
      C    2   -0.12494      0.99957     2.11382    0.01155     3.12494
      C    3   -0.27866      0.99965     2.27437    0.00464     3.27866
      C    4    0.07473      0.99947     1.91125    0.01456     2.92527
      C    5   -0.20633      0.99944     2.19644    0.01045     3.20633
      S    6    0.17738      4.99945     2.80304    0.02013     7.82262
      C    7    0.14438      0.99959     1.83715    0.01889     2.85562
      N    8   -0.27012      0.99962     2.75916    0.01133     3.77012
      N    9   -0.33291      0.99962     2.82254    0.01075     3.83291
      C   10    0.41970      0.99965     1.55735    0.02329     2.58030
      O   11   -0.31601      0.99987     3.31103    0.00512     4.31601
      N   12   -0.26031      0.99964     2.75002    0.01065     3.76031
      C   13   -0.08498      0.99957     2.07447    0.01095     3.08498
      C   14   -0.13070      0.99959     2.11978    0.01133     3.13070
      C   15   -0.20109      0.99962     2.19197    0.00949     3.20109
      C   16   -0.19346      0.99961     2.18618    0.00767     3.19346
      C   17   -0.13407      0.99955     2.12388    0.01064     3.13407
      C   18    0.40273      0.99973     1.57128    0.02625     2.59727
      O   19   -0.30669      0.99987     3.30072    0.00610     4.30669
      O   20   -0.33588      0.99987     3.32880    0.00721     4.33588
      H   21    0.09679      0.00000     0.40199    0.00122     0.40321
      H   22    0.10252      0.00000     0.39614    0.00134     0.39748
      H   23    0.10044      0.00000     0.39853    0.00103     0.39956
      H   24    0.10203      0.00000     0.39598    0.00199     0.39797
      H   25    0.09586      0.00000     0.40315    0.00098     0.40414
      H   26    0.10644      0.00000     0.39227    0.00129     0.39356
      H   27    0.09615      0.00000     0.40279    0.00105     0.40385
      H   28    0.11463      0.00000     0.38404    0.00133     0.38537
      H   29    0.20582      0.00000     0.29138    0.00281     0.29418
      H   30    0.09736      0.00000     0.40102    0.00162     0.40264
      H   31    0.11282      0.00000     0.38535    0.00183     0.38718
      H   32    0.11260      0.00000     0.38573    0.00167     0.38740
      H   33    0.10920      0.00000     0.38966    0.00114     0.39080
      H   34    0.10181      0.00000     0.39715    0.00105     0.39819
      H   35    0.10149      0.00000     0.39747    0.00104     0.39851
      H   36    0.10498      0.00000     0.39404    0.00098     0.39502
      H   37    0.12570      0.00000     0.37332    0.00098     0.37430
      H   38    0.11071      0.00000     0.38819    0.00110     0.38929
      H   39    0.24351      0.00000     0.24963    0.00686     0.25649
 =======================================================================
   * Total *    0.00000     23.99265    54.74003    0.26732    79.00000

 Normal termination of Gaussian 16 at Mon Dec 14 20:18:07 2020.
