 Gaussian 16, Revision A.03,

 -----------------------------------------------------------
 # opt freq B3LYP/6-31G(d) empiricaldispersion=gd3bj scf=xqc
 -----------------------------------------------------------

 -------------------------------
 CID_106085204_JID_8309_neutraal
 -------------------------------
 Symbolic Z-matrix:
 Charge =  0 Multiplicity = 1

 SCF Done:  E(RB3LYP) =  -1232.29326760     A.U. after   15 cycles
 SCF Done:  E(RB3LYP) =  -1232.30214141     A.U. after   12 cycles
 SCF Done:  E(RB3LYP) =  -1232.30394359     A.U. after   13 cycles
 SCF Done:  E(RB3LYP) =  -1232.30487878     A.U. after   13 cycles
 SCF Done:  E(RB3LYP) =  -1232.30549065     A.U. after   13 cycles
 SCF Done:  E(RB3LYP) =  -1232.30597424     A.U. after   12 cycles
 SCF Done:  E(RB3LYP) =  -1232.30648606     A.U. after   13 cycles
 SCF Done:  E(RB3LYP) =  -1232.30669274     A.U. after   12 cycles
 SCF Done:  E(RB3LYP) =  -1232.30698070     A.U. after   13 cycles
 SCF Done:  E(RB3LYP) =  -1232.30768518     A.U. after   12 cycles
 SCF Done:  E(RB3LYP) =  -1232.32524605     A.U. after   11 cycles
 SCF Done:  E(RB3LYP) =  -1232.32527154     A.U. after   11 cycles
 SCF Done:  E(RB3LYP) =  -1232.32527680     A.U. after    9 cycles
 SCF Done:  E(RB3LYP) =  -1232.32527978     A.U. after   10 cycles
 SCF Done:  E(RB3LYP) =  -1232.32528039     A.U. after    8 cycles
 SCF Done:  E(RB3LYP) =  -1232.32528051     A.U. after    8 cycles
 Optimization completed.
    -- Stationary point found.
 Normal termination of Gaussian 16 at Fri Dec 11 20:44:58 2020.

 --------------------------------------------------------------------
 #N Geom=AllCheck Guess=TCheck SCRF=Check GenChk RB3LYP/6-31G(d) Freq
 --------------------------------------------------------------------

 Structure from the checkpoint file:  "JID_8309.chk"
 -------------------------------
 CID_106085204_JID_8309_neutraal
 -------------------------------
 Charge =  0 Multiplicity = 1

 SCF Done:  E(RB3LYP) =  -1232.32528051     A.U. after    1 cycles

  Exact polarizability: 151.492  -6.180 164.249 -24.389  -4.380 121.032
 Approx polarizability: 216.374 -14.696 251.177 -49.134 -11.555 210.243

                      1                      2                      3
                      A                      A                      A
 Frequencies --     28.3154                42.7834                59.5930
 Red. masses --      5.2839                 5.2701                 4.8648
 Frc consts  --      0.0025                 0.0057                 0.0102
 IR Inten    --      4.8598                 1.5604                 1.1869

                      4                      5                      6
                      A                      A                      A
 Frequencies --     72.2275               101.4836               109.9256
 Red. masses --      4.9092                 3.9075                 4.6140
 Frc consts  --      0.0151                 0.0237                 0.0328
 IR Inten    --      0.9673                 3.9915                 3.6791

                      7                      8                      9
                      A                      A                      A
 Frequencies --    132.6432               152.8911               160.8325
 Red. masses --      5.7727                 5.2221                 5.3589
 Frc consts  --      0.0598                 0.0719                 0.0817
 IR Inten    --      0.3112                 2.7580                 2.4572

                     10                     11                     12
                      A                      A                      A
 Frequencies --    200.1726               240.3107               250.5604
 Red. masses --      4.4414                 4.2377                 2.9159
 Frc consts  --      0.1049                 0.1442                 0.1079
 IR Inten    --      2.0971                10.5233                 1.1763

                     13                     14                     15
                      A                      A                      A
 Frequencies --    278.2037               318.9067               322.4913
 Red. masses --      3.4115                 3.9146                 3.7249
 Frc consts  --      0.1556                 0.2346                 0.2282
 IR Inten    --      3.2649                 3.0121                 3.4413

                     16                     17                     18
                      A                      A                      A
 Frequencies --    340.1358               384.0026               400.1303
 Red. masses --      1.8085                 3.7523                 3.2113
 Frc consts  --      0.1233                 0.3260                 0.3029
 IR Inten    --     39.6841                 4.9380                 8.7916

                     19                     20                     21
                      A                      A                      A
 Frequencies --    442.2340               467.8910               510.7998
 Red. masses --      4.8470                 4.7186                 2.9320
 Frc consts  --      0.5585                 0.6086                 0.4507
 IR Inten    --     18.7392                11.1518                11.1857

                     22                     23                     24
                      A                      A                      A
 Frequencies --    516.0610               580.0620               606.9016
 Red. masses --      4.9047                 2.2910                 3.6174
 Frc consts  --      0.7696                 0.4542                 0.7850
 IR Inten    --     15.6151                 5.2285               193.1025

                     25                     26                     27
                      A                      A                      A
 Frequencies --    633.7605               637.6401               655.1749
 Red. masses --      4.3707                 3.6335                 4.8731
 Frc consts  --      1.0343                 0.8704                 1.2325
 IR Inten    --     10.4624                58.0536                 5.3847

                     28                     29                     30
                      A                      A                      A
 Frequencies --    676.0744               698.7514               724.5023
 Red. masses --      4.0609                 2.7483                 2.3951
 Frc consts  --      1.0936                 0.7906                 0.7407
 IR Inten    --     26.6711                12.7783                15.6774

                     31                     32                     33
                      A                      A                      A
 Frequencies --    727.4757               796.2430               818.3071
 Red. masses --      1.6168                 3.1284                 1.2039
 Frc consts  --      0.5041                 1.1686                 0.4750
 IR Inten    --     23.6812                64.0581                 6.9012

                     34                     35                     36
                      A                      A                      A
 Frequencies --    829.7817               858.9761               885.7960
 Red. masses --      1.2523                 1.2154                 1.3178
 Frc consts  --      0.5080                 0.5283                 0.6092
 IR Inten    --    102.7859               130.2239                 0.4106

                     37                     38                     39
                      A                      A                      A
 Frequencies --    921.8456               930.6883               940.5549
 Red. masses --      2.6578                 1.4825                 4.5742
 Frc consts  --      1.3307                 0.7566                 2.3842
 IR Inten    --     32.2862                26.2169                 6.5212

                     40                     41                     42
                      A                      A                      A
 Frequencies --    962.6002               972.8969               978.3782
 Red. masses --      3.6585                 2.8110                 4.9957
 Frc consts  --      1.9973                 1.5677                 2.8175
 IR Inten    --     20.4577                15.3658                11.7131

                     43                     44                     45
                      A                      A                      A
 Frequencies --   1011.8594              1036.3125              1042.7232
 Red. masses --      2.3198                 2.6728                 1.4324
 Frc consts  --      1.3994                 1.6912                 0.9176
 IR Inten    --     15.6017                41.9329                32.7954

                     46                     47                     48
                      A                      A                      A
 Frequencies --   1053.7577              1071.3348              1110.1308
 Red. masses --      1.9905                 1.5992                 3.7021
 Frc consts  --      1.3023                 1.0814                 2.6881
 IR Inten    --      6.3006                16.8039                50.5688

                     49                     50                     51
                      A                      A                      A
 Frequencies --   1127.0230              1131.3940              1157.9941
 Red. masses --      3.4246                 2.1971                 1.8239
 Frc consts  --      2.5628                 1.6570                 1.4410
 IR Inten    --    188.3978                31.8775                 7.3412

                     52                     53                     54
                      A                      A                      A
 Frequencies --   1166.9796              1191.5988              1194.4171
 Red. masses --      1.4703                 3.9573                 2.1576
 Frc consts  --      1.1797                 3.3106                 1.8136
 IR Inten    --     49.6271                16.9280                 8.8677

                     55                     56                     57
                      A                      A                      A
 Frequencies --   1224.8865              1240.2337              1258.8782
 Red. masses --      1.7069                 1.8151                 1.2581
 Frc consts  --      1.5088                 1.6450                 1.1747
 IR Inten    --      5.9938                 2.6284                17.8368

                     58                     59                     60
                      A                      A                      A
 Frequencies --   1275.1087              1303.2826              1338.2710
 Red. masses --      3.2580                 1.5829                 1.1913
 Frc consts  --      3.1210                 1.5841                 1.2571
 IR Inten    --     17.2282                 0.9716                 8.8113

                     61                     62                     63
                      A                      A                      A
 Frequencies --   1351.9035              1377.3111              1400.6745
 Red. masses --      7.1315                 1.7701                 3.1490
 Frc consts  --      7.6793                 1.9783                 3.6400
 IR Inten    --    151.8037                16.8157                 3.1007

                     64                     65                     66
                      A                      A                      A
 Frequencies --   1404.4779              1429.8662              1436.6594
 Red. masses --      1.2801                 1.8660                 1.7754
 Frc consts  --      1.4878                 2.2478                 2.1590
 IR Inten    --      1.6892                12.2288                33.3329

                     67                     68                     69
                      A                      A                      A
 Frequencies --   1452.4677              1490.4465              1510.3342
 Red. masses --      1.4100                 2.4370                 1.2889
 Frc consts  --      1.7526                 3.1896                 1.7322
 IR Inten    --     73.1919                34.3353                 3.0453

                     70                     71                     72
                      A                      A                      A
 Frequencies --   1518.3398              1522.0584              1524.4020
 Red. masses --      2.2460                 1.3722                 1.1030
 Frc consts  --      3.0506                 1.8730                 1.5102
 IR Inten    --      3.6485                 3.6155                 1.4723

                     73                     74                     75
                      A                      A                      A
 Frequencies --   1556.9684              1609.3694              1649.4159
 Red. masses --      7.5461                 2.8209                 6.5017
 Frc consts  --     10.7779                 4.3047                10.4217
 IR Inten    --     11.9081                24.9221                 4.0624

                     76                     77                     78
                      A                      A                      A
 Frequencies --   1693.1361              2985.4579              3038.4852
 Red. masses --      1.0860                 1.0733                 1.0711
 Frc consts  --      1.8343                 5.6360                 5.8263
 IR Inten    --     30.2791                62.2421                24.7484

                     79                     80                     81
                      A                      A                      A
 Frequencies --   3102.8043              3110.3507              3116.0344
 Red. masses --      1.0640                 1.0896                 1.0869
 Frc consts  --      6.0354                 6.2104                 6.2179
 IR Inten    --      9.4210                13.4597                14.1863

                     82                     83                     84
                      A                      A                      A
 Frequencies --   3153.4835              3260.3953              3271.3186
 Red. masses --      1.1069                 1.0915                 1.0959
 Frc consts  --      6.4855                 6.8364                 6.9096
 IR Inten    --      6.8730                 8.6305                 1.8579

                     85                     86                     87
                      A                      A                      A
 Frequencies --   3288.5457              3300.2222              3387.4303
 Red. masses --      1.1038                 1.0991                 1.0872
 Frc consts  --      7.0334                 7.0532                 7.3499
 IR Inten    --      6.7310                 1.5746               520.4242

                     88                     89                     90
                      A                      A                      A
 Frequencies --   3468.0025              3550.3922              3551.1893
 Red. masses --      1.0506                 1.0759                 1.0921
 Frc consts  --      7.4448                 7.9908                 8.1142
 IR Inten    --      2.0031                55.7068                 4.2522

 - Thermochemistry -
 -------------------
 Temperature   298.150 Kelvin.  Pressure   1.00000 Atm.
 Atom     1 has atomic number  6 and mass  12.00000

 Molecular mass:   270.07866 amu.
 Principal axes and moments of inertia in atomic units:
                           1         2         3
     Eigenvalues --  3790.110414825.967717054.18969
           X            0.99980  -0.00215  -0.02002
           Y            0.00241   0.99991   0.01300
           Z            0.01999  -0.01305   0.99972
 This molecule is an asymmetric top.
 Rotational symmetry number  1.
 Warning -- assumption of classical behavior for rotation
           may cause significant error
 Rotational temperatures (Kelvin)      0.02285     0.01795     0.01228
 Rotational constants (GHZ):           0.47617     0.37396     0.25584
 Zero-point vibrational energy     668815.0 (Joules/Mol)
                                  159.85062 (Kcal/Mol)
 Warning -- explicit consideration of  24 degrees of freedom as
           vibrations may cause significant error
 Vibrational temperatures:     40.74    61.56    85.74   103.92   146.01
          (Kelvin)            158.16   190.84   219.98   231.40   288.00
                              345.75   360.50   400.27   458.84   463.99
                              489.38   552.49   575.70   636.28   673.19
                              734.93   742.50   834.58   873.20   911.84
                              917.42   942.65   972.72  1005.35  1042.40
                             1046.68  1145.62  1177.36  1193.87  1235.87
                             1274.46  1326.33  1339.05  1353.25  1384.97
                             1399.78  1407.67  1455.84  1491.02  1500.25
                             1516.12  1541.41  1597.23  1621.53  1627.82
                             1666.10  1679.02  1714.44  1718.50  1762.34
                             1784.42  1811.24  1834.60  1875.13  1925.47
                             1945.09  1981.64  2015.26  2020.73  2057.26
                             2067.03  2089.78  2144.42  2173.03  2184.55
                             2189.90  2193.27  2240.13  2315.52  2373.14
                             2436.05  4295.41  4371.70  4464.24  4475.10
                             4483.28  4537.16  4690.98  4706.70  4731.48
                             4748.28  4873.76  4989.68  5108.22  5109.37

 Zero-point correction=                           0.254738 (Hartree/Particle)
 Thermal correction to Energy=                    0.271283
 Thermal correction to Enthalpy=                  0.272228
 Thermal correction to Gibbs Free Energy=         0.209447
 Sum of electronic and zero-point Energies=          -1232.070542
 Sum of electronic and thermal Energies=             -1232.053997
 Sum of electronic and thermal Enthalpies=           -1232.053053
 Sum of electronic and thermal Free Energies=        -1232.115833

                     E (Thermal)             CV                S
                      KCal/Mol        Cal/Mol-Kelvin    Cal/Mol-Kelvin
 Total                  170.233             62.877            132.132
 Electronic               0.000              0.000              0.000
 Translational            0.889              2.981             42.680
 Rotational               0.889              2.981             33.223
 Vibrational            168.455             56.915             56.230
 Vibration     1          0.593              1.984              5.944
 Vibration     2          0.595              1.980              5.126
 Vibration     3          0.597              1.974              4.471
 Vibration     4          0.598              1.967              4.092
 Vibration     5          0.604              1.948              3.426
 Vibration     6          0.606              1.941              3.270
 Vibration     7          0.613              1.921              2.907
 Vibration     8          0.619              1.899              2.636
 Vibration     9          0.622              1.890              2.540
 Vibration    10          0.638              1.840              2.132
 Vibration    11          0.657              1.779              1.801
 Vibration    12          0.663              1.762              1.727
 Vibration    13          0.679              1.714              1.545
 Vibration    14          0.705              1.637              1.316
 Vibration    15          0.707              1.630              1.297
 Vibration    16          0.720              1.595              1.212
 Vibration    17          0.753              1.504              1.023
 Vibration    18          0.766              1.470              0.962
 Vibration    19          0.802              1.378              0.820
 Vibration    20          0.825              1.321              0.743
 Vibration    21          0.866              1.226              0.632
 Vibration    22          0.871              1.214              0.619
 Vibration    23          0.937              1.074              0.485
 Vibration    24          0.966              1.017              0.438

                           ! Non-Optimized Parameters !
 Normal termination of Gaussian 16 at Fri Dec 11 20:59:13 2020.

 ----------------------------------------------------------------------
 # B3LYP/6-311++G(d,p) empiricaldispersion=gd3bj scf=xqc pop=npa geom=c
 heck
 ----------------------------------------------------------------------

 ---------------------------------------
 CID_106085204_JID_8309_Energie_neutraal
 ---------------------------------------
 Structure from the checkpoint file:  "JID_8309.chk"
 Charge =  0 Multiplicity = 1

 SCF Done:  E(RB3LYP) =  -1232.59631281     A.U. after   15 cycles
 Normal termination of Gaussian 16 at Fri Dec 11 21:05:29 2020.

 ----------------------------------------------------------------------
 # B3LYP/6-311++G(d,p) empiricaldispersion=gd3bj scf=xqc pop=npa geom=c
 heck
 ----------------------------------------------------------------------

 -------------------------------------
 CID_106085204_JID_8309_Energie_kation
 -------------------------------------
 Structure from the checkpoint file:  "JID_8309.chk"
 Charge =  1 Multiplicity = 2

 SCF Done:  E(UB3LYP) =  -1232.29395725     A.U. after   25 cycles
 Normal termination of Gaussian 16 at Fri Dec 11 21:20:25 2020.
 Gaussian 16:  ES64L-G16RevA.03 25-Dec-2016

 ----------------------------------------------------------------------
 # B3LYP/6-311++G(d,p) empiricaldispersion=gd3bj scf=xqc pop=npa geom=c
 heck
 ----------------------------------------------------------------------

 ------------------------------------
 CID_106085204_JID_8309_Energie_anion
 ------------------------------------
 Structure from the checkpoint file:  "JID_8309.chk"
 Charge = -1 Multiplicity = 2

                         Standard orientation:
 ---------------------------------------------------------------------
 Center     Atomic      Atomic             Coordinates (Angstroms)
 Number     Number       Type             X           Y           Z
 ---------------------------------------------------------------------
      1          6           0        3.630748    0.124093   -0.556746
      2          6           0        3.598234    1.496248   -0.569388
      3          7           0        2.565852    1.957350    0.219540
      4          6           0        1.981782    0.874760    0.712760
      5          7           0        2.596175   -0.262429    0.272700
      6          6           0        0.793125    0.892722    1.625289
      7          6           0       -0.165832    2.034251    1.243094
      8          7           0       -0.584385    2.005682   -0.160991
      9         16           0       -1.925320    1.158026   -0.635843
     10          8           0       -3.066428    1.651782    0.132556
     11          8           0       -1.892300    1.137418   -2.095338
     12          6           0       -1.728643   -0.497592   -0.038504
     13          6           0       -2.299554   -1.120138    1.031954
     14          6           0       -1.625140   -2.376004    1.159815
     15          6           0       -0.694248   -2.426212    0.161304
     16          8           0       -0.746567   -1.277751   -0.583499
     17          6           0        0.273820   -3.465375   -0.292686
     18          7           0        1.586064   -2.866816   -0.598933
     19          1           0        4.274454   -0.596142   -1.039081
     20          1           0        4.250908    2.178512   -1.096568
     21          1           0        2.256251   -1.225878    0.355389
     22          1           0        0.283228   -0.074862    1.596984
     23          1           0        1.112670    1.048050    2.665353
     24          1           0       -1.066254    2.020563    1.861613
     25          1           0        0.337128    2.991155    1.399795
     26          1           0        0.178916    1.949022   -0.831190
     27          1           0       -3.090233   -0.715659    1.645293
     28          1           0       -1.810562   -3.145293    1.896300
     29          1           0        0.397840   -4.185935    0.521176
     30          1           0       -0.149521   -4.016130   -1.149356
     31          1           0        2.246320   -3.607980   -0.829671
     32          1           0        1.494653   -2.296475   -1.439861
 ---------------------------------------------------------------------

 SCF Done:  E(UB3LYP) =  -1232.60270174     A.U. after   29 cycles

 The electronic state is 2-A.
 Alpha  occ. eigenvalues --  -88.96510 -19.08599 -19.01396 -19.01384 -14.25975
 Alpha  occ. eigenvalues --  -14.24174 -14.20459 -14.19963 -10.13521 -10.12898
 Alpha  occ. eigenvalues --  -10.12529 -10.12372 -10.10725 -10.10269 -10.09503
 Alpha  occ. eigenvalues --  -10.09117 -10.08074 -10.07448  -8.02517  -5.98795
 Alpha  occ. eigenvalues --   -5.98776  -5.98661  -1.02581  -1.01028  -0.91828
 Alpha  occ. eigenvalues --   -0.91044  -0.83313  -0.79498  -0.77197  -0.70946
 Alpha  occ. eigenvalues --   -0.70049  -0.67632  -0.63393  -0.59781  -0.56277
 Alpha  occ. eigenvalues --   -0.53150  -0.51009  -0.50570  -0.49321  -0.47136
 Alpha  occ. eigenvalues --   -0.45578  -0.43650  -0.41704  -0.39742  -0.38628
 Alpha  occ. eigenvalues --   -0.38234  -0.36810  -0.36066  -0.35748  -0.34735
 Alpha  occ. eigenvalues --   -0.34319  -0.33744  -0.32601  -0.32454  -0.31271
 Alpha  occ. eigenvalues --   -0.30097  -0.29590  -0.29004  -0.28038  -0.27729
 Alpha  occ. eigenvalues --   -0.24563  -0.22586  -0.21404  -0.21082  -0.19598
 Alpha  occ. eigenvalues --   -0.19185  -0.18799  -0.18415  -0.16473  -0.13653
 Alpha  occ. eigenvalues --   -0.13548   0.03538
 Alpha virt. eigenvalues --    0.06392   0.07231   0.07641   0.08494   0.09173
 Alpha virt. eigenvalues --    0.09228   0.10222   0.10935   0.11003   0.11134
 Alpha virt. eigenvalues --    0.11894   0.12357   0.13106   0.13357   0.13550

  Beta  occ. eigenvalues --  -88.96507 -19.08413 -19.01378 -19.01369 -14.25969
  Beta  occ. eigenvalues --  -14.24136 -14.20364 -14.19962 -10.13521 -10.12723
  Beta  occ. eigenvalues --  -10.12372 -10.12349 -10.10703 -10.10259 -10.09501
  Beta  occ. eigenvalues --  -10.09116 -10.08034 -10.07465  -8.02513  -5.98782
  Beta  occ. eigenvalues --   -5.98770  -5.98660  -1.02430  -1.00806  -0.91821
  Beta  occ. eigenvalues --   -0.91010  -0.83241  -0.79324  -0.77183  -0.70774
  Beta  occ. eigenvalues --   -0.70026  -0.67293  -0.63364  -0.59567  -0.56211
  Beta  occ. eigenvalues --   -0.53082  -0.50966  -0.50505  -0.49303  -0.46960
  Beta  occ. eigenvalues --   -0.45422  -0.43627  -0.41611  -0.39641  -0.38552
  Beta  occ. eigenvalues --   -0.37800  -0.36732  -0.35942  -0.35715  -0.34674
  Beta  occ. eigenvalues --   -0.34181  -0.33399  -0.32590  -0.32362  -0.31252
  Beta  occ. eigenvalues --   -0.29992  -0.29555  -0.28885  -0.27887  -0.27683
  Beta  occ. eigenvalues --   -0.24497  -0.22532  -0.21296  -0.20995  -0.19430
  Beta  occ. eigenvalues --   -0.18806  -0.18656  -0.18286  -0.16357  -0.13575
  Beta  occ. eigenvalues --   -0.12749
  Beta virt. eigenvalues --    0.06726   0.07289   0.07619   0.08360   0.08753
  Beta virt. eigenvalues --    0.09484   0.09607   0.10505   0.11002   0.11111
  Beta virt. eigenvalues --    0.11240   0.12303   0.12422   0.13103   0.13637

 Mulliken charges and spin densities:
               1          2
     1  C   -0.163216   0.014213
     2  C    0.256772  -0.232342
     3  N   -0.120480   0.021882
     4  C   -0.343953  -0.059284
     5  N   -0.155631   0.051127
     6  C    0.164923  -0.266467
     7  C   -0.695092   0.020522
     8  N   -0.112685   0.013398
     9  S    0.330950   0.000866
    10  O   -0.223815   0.002883
    11  O   -0.167606   0.001004
    12  C   -0.831082   0.011860
    13  C    0.258702   0.074444
    14  C    0.094287  -0.140672
    15  C   -0.639592   0.940597
    16  O    0.156695   0.018613
    17  C    1.137186  -1.963569
    18  N   -0.520706  -0.010487
    19  H   -0.353202   0.511880
    20  H    0.137488   0.010237
    21  H    0.461249   0.001425
    22  H    0.157319  -0.048249
    23  H    0.197187   0.011445
    24  H    0.195800  -0.000741
    25  H    0.228728   0.002772
    26  H    0.275113  -0.001390
    27  H    0.182691   0.006265
    28  H    0.051816   0.102872
    29  H   -0.363804   0.555532
    30  H   -0.342640   0.524132
    31  H   -0.444321   0.745174
    32  H    0.190919   0.080059
 Sum of Mulliken charges =  -1.00000   1.00000

 Dipole moment (field-independent basis, Debye):
    X=             -0.8928    Y=              4.5986    Z=              5.1893  Tot=              6.9909
 Quadrupole moment (field-independent basis, Debye-Ang):
   XX=           -166.5465   YY=           -178.5144   ZZ=           -134.9053
   XY=             20.2548   XZ=             -3.5573   YZ=             -7.7560

 Summary of Natural Population Analysis:

                                       Natural Population
                Natural  -----------------------------------------------
    Atom  No    Charge         Core      Valence    Rydberg      Total
 -----------------------------------------------------------------------
      C    1   -0.04152      0.99958     2.02947    0.01247     3.04152
      C    2   -0.04071      0.99959     2.02808    0.01304     3.04071
      N    3   -0.27708      0.99970     2.76790    0.00948     3.77708
      C    4    0.18160      0.99963     1.79894    0.01983     2.81840
      N    5   -0.27863      0.99964     2.77054    0.00846     3.77863
      C    6   -0.21800      0.99959     2.21193    0.00648     3.21800
      C    7   -0.09038      0.99963     2.08001    0.01074     3.09038
      N    8   -0.43860      0.99974     2.92428    0.01458     3.93860
      S    9    1.11607      4.99914     1.78162    0.10317     6.88393
      O   10   -0.46664      0.99990     3.46164    0.00510     4.46664
      O   11   -0.45821      0.99990     3.45320    0.00511     4.45821
      C   12    0.02165      0.99933     1.95497    0.02404     2.97835
      C   13   -0.12363      0.99943     2.11497    0.00922     3.12363
      C   14   -0.16595      0.99950     2.15691    0.00953     3.16595
      C   15    0.18771      0.99947     1.79637    0.01645     2.81229
      O   16   -0.22448      0.99984     3.21576    0.00888     4.22448
      C   17   -0.10852      0.99958     2.09680    0.01213     3.10852
      N   18   -0.43145      0.99977     2.91908    0.01260     3.93145
      H   19    0.10520      0.00000     0.39374    0.00107     0.39480
      H   20    0.09456      0.00000     0.40456    0.00088     0.40544
      H   21    0.22619      0.00000     0.27079    0.00302     0.27381
      H   22    0.11435      0.00000     0.38393    0.00172     0.38565
      H   23    0.10539      0.00000     0.39367    0.00094     0.39461
      H   24    0.10578      0.00000     0.39312    0.00110     0.39422
      H   25    0.10525      0.00000     0.39365    0.00109     0.39475
      H   26    0.20666      0.00000     0.29126    0.00208     0.29334
      H   27    0.11354      0.00000     0.38575    0.00071     0.38646
      H   28    0.10763      0.00000     0.39161    0.00077     0.39237
      H   29    0.10139      0.00000     0.39731    0.00130     0.39861
      H   30    0.09867      0.00000     0.39837    0.00296     0.40133
      H   31    0.19080      0.00000     0.28946    0.01975     0.30920
      H   32    0.18137      0.00000     0.31605    0.00258     0.31863
 =======================================================================
   * Total *    0.00001     21.99297    48.66574    0.34127    70.99999

 Normal termination of Gaussian 16 at Fri Dec 11 21:38:05 2020.
