 Gaussian 16, Revision A.03,

 -----------------------------------------------------------
 # opt freq B3LYP/6-31G(d) empiricaldispersion=gd3bj scf=xqc
 -----------------------------------------------------------

 -----------------------------
 CID_84106993_JID_164_neutraal
 -----------------------------
 Symbolic Z-matrix:
 Charge =  0 Multiplicity = 1

 SCF Done:  E(RB3LYP) =  -493.408256931     A.U. after   15 cycles
 SCF Done:  E(RB3LYP) =  -493.431156705     A.U. after   13 cycles
 SCF Done:  E(RB3LYP) =  -493.432006950     A.U. after   12 cycles
 SCF Done:  E(RB3LYP) =  -493.432137805     A.U. after   12 cycles
 SCF Done:  E(RB3LYP) =  -493.432265420     A.U. after   11 cycles
 SCF Done:  E(RB3LYP) =  -493.432321122     A.U. after   11 cycles
 SCF Done:  E(RB3LYP) =  -493.432354747     A.U. after   11 cycles
 SCF Done:  E(RB3LYP) =  -493.432361700     A.U. after    9 cycles
 SCF Done:  E(RB3LYP) =  -493.432364769     A.U. after    9 cycles
 SCF Done:  E(RB3LYP) =  -493.432367037     A.U. after   10 cycles
 SCF Done:  E(RB3LYP) =  -493.432367844     A.U. after    8 cycles
 SCF Done:  E(RB3LYP) =  -493.432368095     A.U. after    8 cycles
 Optimization completed.
    -- Stationary point found.
 Normal termination of Gaussian 16 at Tue Dec  8 10:18:09 2020.

 --------------------------------------------------------------------
 #N Geom=AllCheck Guess=TCheck SCRF=Check GenChk RB3LYP/6-31G(d) Freq
 --------------------------------------------------------------------

 Structure from the checkpoint file:  "JID_164.chk"
 -----------------------------
 CID_84106993_JID_164_neutraal
 -----------------------------
 Charge =  0 Multiplicity = 1

 SCF Done:  E(RB3LYP) =  -493.432368095     A.U. after    1 cycles

  Exact polarizability:  92.111   4.513  74.717   4.061  -1.366  54.354
 Approx polarizability: 120.359   9.280 120.047   9.044  -0.837  80.045

                      1                      2                      3
                      A                      A                      A
 Frequencies --     54.3597                88.2732               129.9272
 Red. masses --      6.1336                 4.6810                 3.7672
 Frc consts  --      0.0107                 0.0215                 0.0375
 IR Inten    --      1.9946                 1.9411                 2.5916

                      4                      5                      6
                      A                      A                      A
 Frequencies --    146.3027               175.3762               200.7952
 Red. masses --      1.4572                 5.2331                 1.9889
 Frc consts  --      0.0184                 0.0948                 0.0472
 IR Inten    --      0.7115                 5.8022                 3.3419

                      7                      8                      9
                      A                      A                      A
 Frequencies --    291.1351               337.5196               381.8026
 Red. masses --      2.8891                 3.4157                 5.8807
 Frc consts  --      0.1443                 0.2293                 0.5051
 IR Inten    --      3.4316                 6.2365                 2.6507

                     10                     11                     12
                      A                      A                      A
 Frequencies --    400.6927               509.0631               570.3118
 Red. masses --      2.8833                 5.1170                 4.0567
 Frc consts  --      0.2728                 0.7813                 0.7774
 IR Inten    --      2.1468                 5.8669                 1.4614

                     13                     14                     15
                      A                      A                      A
 Frequencies --    657.3027               725.1882               753.5028
 Red. masses --      6.6128                 4.8897                10.3293
 Frc consts  --      1.6833                 1.5151                 3.4553
 IR Inten    --     15.6605                 2.3044                19.1612

                     16                     17                     18
                      A                      A                      A
 Frequencies --    813.2913               888.2508               935.6192
 Red. masses --      5.5894                 2.8553                 2.2729
 Frc consts  --      2.1783                 1.3273                 1.1723
 IR Inten    --      0.7250                 1.3010                 7.7613

                     19                     20                     21
                      A                      A                      A
 Frequencies --    969.7443              1029.6867              1046.6556
 Red. masses --      3.0625                 2.1082                 2.3984
 Frc consts  --      1.6968                 1.3170                 1.5480
 IR Inten    --      3.1127                37.5118                10.8933

                     22                     23                     24
                      A                      A                      A
 Frequencies --   1082.6136              1122.6429              1137.2514
 Red. masses --      4.0716                 2.0070                 2.0403
 Frc consts  --      2.8116                 1.4903                 1.5547
 IR Inten    --     99.3900                52.5215                85.5396

                     25                     26                     27
                      A                      A                      A
 Frequencies --   1173.1652              1228.5378              1257.5074
 Red. masses --      1.4085                 1.2167                 1.2835
 Frc consts  --      1.1422                 1.0819                 1.1958
 IR Inten    --      0.9933                41.2687                18.3362

                     28                     29                     30
                      A                      A                      A
 Frequencies --   1298.5717              1305.7747              1334.1219
 Red. masses --      1.8500                 2.2341                 1.9948
 Frc consts  --      1.8380                 2.2444                 2.0919
 IR Inten    --     31.2040                84.0426                14.5767

                     31                     32                     33
                      A                      A                      A
 Frequencies --   1381.5952              1410.8777              1449.4113
 Red. masses --      1.5281                 1.4061                 1.9645
 Frc consts  --      1.7185                 1.6491                 2.4315
 IR Inten    --      1.0573                34.6305                92.6937

                     34                     35                     36
                      A                      A                      A
 Frequencies --   1474.6335              1489.3337              1520.4966
 Red. masses --      1.2510                 1.0922                 1.0447
 Frc consts  --      1.6028                 1.4274                 1.4231
 IR Inten    --     32.3398                 4.8261                11.7831

                     37                     38                     39
                      A                      A                      A
 Frequencies --   1540.1029              1561.8664              1891.7183
 Red. masses --      1.0849                 1.1148                11.9344
 Frc consts  --      1.5161                 1.6022                25.1631
 IR Inten    --      9.2089                15.8353               504.2511

                     40                     41                     42
                      A                      A                      A
 Frequencies --   2381.0371              3012.7421              3029.1493
 Red. masses --     12.6077                 1.0687                 1.0472
 Frc consts  --     42.1134                 5.7150                 5.6613
 IR Inten    --      5.5167                42.8962                63.8497

                     43                     44                     45
                      A                      A                      A
 Frequencies --   3059.4875              3080.4965              3100.5842
 Red. masses --      1.0601                 1.0949                 1.0940
 Frc consts  --      5.8467                 6.1218                 6.1965
 IR Inten    --      2.3287                28.0263                30.3226

                     46                     47                     48
                      A                      A                      A
 Frequencies --   3102.4393              3132.3029              3174.0512
 Red. masses --      1.1021                 1.0900                 1.0994
 Frc consts  --      6.2498                 6.3010                 6.5257
 IR Inten    --      1.8503                19.7109                 1.1805

 - Thermochemistry -
 -------------------
 Temperature   298.150 Kelvin.  Pressure   1.00000 Atm.
 Atom     1 has atomic number  6 and mass  12.00000

 Molecular mass:   140.05858 amu.
 Principal axes and moments of inertia in atomic units:
                           1         2         3
     Eigenvalues --   625.813872140.064862527.39362
           X            0.99993   0.01063   0.00597
           Y           -0.01061   0.99994  -0.00325
           Z           -0.00600   0.00319   0.99998
 This molecule is an asymmetric top.
 Rotational symmetry number  1.
 Warning -- assumption of classical behavior for rotation
           may cause significant error
 Rotational temperatures (Kelvin)      0.13840     0.04047     0.03427
 Rotational constants (GHZ):           2.88383     0.84331     0.71407
 Zero-point vibrational energy     375850.6 (Joules/Mol)
                                   89.83045 (Kcal/Mol)
 Warning -- explicit consideration of  12 degrees of freedom as
           vibrations may cause significant error
 Vibrational temperatures:     78.21   127.01   186.94   210.50   252.33
          (Kelvin)            288.90   418.88   485.62   549.33   576.51
                              732.43   820.55   945.71  1043.38  1084.12
                             1170.14  1277.99  1346.15  1395.25  1481.49
                             1505.90  1557.64  1615.23  1636.25  1687.92
                             1767.59  1809.27  1868.36  1878.72  1919.50
                             1987.81  2029.94  2085.38  2121.67  2142.82
                             2187.66  2215.86  2247.18  2721.76  3425.78
                             4334.66  4358.27  4401.92  4432.15  4461.05
                             4463.72  4506.69  4566.75

 Zero-point correction=                           0.143154 (Hartree/Particle)
 Thermal correction to Energy=                    0.152701
 Thermal correction to Enthalpy=                  0.153645
 Thermal correction to Gibbs Free Energy=         0.107668
 Sum of electronic and zero-point Energies=           -493.289214
 Sum of electronic and thermal Energies=              -493.279667
 Sum of electronic and thermal Enthalpies=            -493.278723
 Sum of electronic and thermal Free Energies=         -493.324700

                     E (Thermal)             CV                S
                      KCal/Mol        Cal/Mol-Kelvin    Cal/Mol-Kelvin
 Total                   95.821             33.633             96.767
 Electronic               0.000              0.000              0.000
 Translational            0.889              2.981             40.722
 Rotational               0.889              2.981             29.605
 Vibrational             94.044             27.671             26.440
 Vibration     1          0.596              1.976              4.652
 Vibration     2          0.601              1.957              3.698
 Vibration     3          0.612              1.923              2.947
 Vibration     4          0.617              1.907              2.720
 Vibration     5          0.627              1.873              2.377
 Vibration     6          0.638              1.839              2.126
 Vibration     7          0.687              1.690              1.467
 Vibration     8          0.718              1.601              1.224
 Vibration     9          0.751              1.509              1.032
 Vibration    10          0.767              1.469              0.960
 Vibration    11          0.864              1.230              0.636
 Vibration    12          0.926              1.095              0.504

                           ! Non-Optimized Parameters !
 Normal termination of Gaussian 16 at Tue Dec  8 10:20:53 2020.

 ----------------------------------------------------------------------
 # B3LYP/6-311++G(d,p) empiricaldispersion=gd3bj scf=xqc pop=npa geom=c
 heck
 ----------------------------------------------------------------------

 -------------------------------------
 CID_84106993_JID_164_Energie_neutraal
 -------------------------------------
 Structure from the checkpoint file:  "JID_164.chk"
 Charge =  0 Multiplicity = 1

 SCF Done:  E(RB3LYP) =  -493.575026848     A.U. after   14 cycles
 Normal termination of Gaussian 16 at Tue Dec  8 10:21:49 2020.

 ----------------------------------------------------------------------
 # B3LYP/6-311++G(d,p) empiricaldispersion=gd3bj scf=xqc pop=npa geom=c
 heck
 ----------------------------------------------------------------------

 -----------------------------------
 CID_84106993_JID_164_Energie_kation
 -----------------------------------
 Structure from the checkpoint file:  "JID_164.chk"
 Charge =  1 Multiplicity = 2

 SCF Done:  E(UB3LYP) =  -493.219510831     A.U. after   23 cycles
 Normal termination of Gaussian 16 at Tue Dec  8 10:24:08 2020.
 Gaussian 16:  ES64L-G16RevA.03 25-Dec-2016

 ----------------------------------------------------------------------
 # B3LYP/6-311++G(d,p) empiricaldispersion=gd3bj scf=xqc pop=npa geom=c
 heck
 ----------------------------------------------------------------------

 ----------------------------------
 CID_84106993_JID_164_Energie_anion
 ----------------------------------
 Structure from the checkpoint file:  "JID_164.chk"
 Charge = -1 Multiplicity = 2

                         Standard orientation:
 ---------------------------------------------------------------------
 Center     Atomic      Atomic             Coordinates (Angstroms)
 Number     Number       Type             X           Y           Z
 ---------------------------------------------------------------------
      1          6           0       -2.904039   -0.581079   -0.509519
      2          7           0       -1.511115   -0.357842   -0.184591
      3          6           0       -0.697943   -1.362554    0.466249
      4          6           0        0.612840   -0.577522    0.666903
      5          8           0        0.206678    0.797490    0.661928
      6          6           0       -1.043122    0.909608    0.092665
      7          8           0       -1.585470    1.964716   -0.117893
      8          6           0        1.610277   -0.823569   -0.477678
      9          6           0        2.825208   -0.019488   -0.346306
     10          7           0        3.796842    0.602376   -0.226672
     11          1           0       -2.995564   -1.354536   -1.279081
     12          1           0       -3.478573   -0.891714    0.374925
     13          1           0       -3.312536    0.357386   -0.887172
     14          1           0       -0.563431   -2.248996   -0.164066
     15          1           0       -1.134159   -1.684269    1.424390
     16          1           0        1.084086   -0.780162    1.630248
     17          1           0        1.889286   -1.884406   -0.494265
     18          1           0        1.121825   -0.595068   -1.432300
 ---------------------------------------------------------------------

 SCF Done:  E(UB3LYP) =  -493.573491538     A.U. after   30 cycles

 The electronic state is 2-A.
 Alpha  occ. eigenvalues --  -19.06964 -19.00276 -14.25225 -14.21869 -10.22028
 Alpha  occ. eigenvalues --  -10.16046 -10.12374 -10.11928 -10.11872 -10.10635
 Alpha  occ. eigenvalues --   -1.02136  -0.93379  -0.85090  -0.81583  -0.72091
 Alpha  occ. eigenvalues --   -0.64950  -0.61445  -0.55039  -0.48509  -0.44580
 Alpha  occ. eigenvalues --   -0.42439  -0.39783  -0.39612  -0.36579  -0.34811
 Alpha  occ. eigenvalues --   -0.34172  -0.32564  -0.31510  -0.30404  -0.30107
 Alpha  occ. eigenvalues --   -0.27605  -0.26236  -0.24414  -0.23729  -0.20735
 Alpha  occ. eigenvalues --   -0.19328  -0.15753   0.03924
 Alpha virt. eigenvalues --    0.07258   0.07721   0.09503   0.10118   0.10376
 Alpha virt. eigenvalues --    0.11171   0.12059   0.12624   0.12894   0.13183
 Alpha virt. eigenvalues --    0.13890   0.13927   0.15455   0.16223   0.16809

  Beta  occ. eigenvalues --  -19.06963 -19.00266 -14.25229 -14.21859 -10.22016
  Beta  occ. eigenvalues --  -10.16029 -10.12320 -10.11922 -10.11796 -10.10593
  Beta  occ. eigenvalues --   -1.02122  -0.93364  -0.85074  -0.81554  -0.72026
  Beta  occ. eigenvalues --   -0.64870  -0.61368  -0.54946  -0.48464  -0.44523
  Beta  occ. eigenvalues --   -0.42384  -0.39675  -0.39509  -0.36523  -0.34760
  Beta  occ. eigenvalues --   -0.34130  -0.32505  -0.31459  -0.30354  -0.30057
  Beta  occ. eigenvalues --   -0.27584  -0.26185  -0.24373  -0.23702  -0.20702
  Beta  occ. eigenvalues --   -0.19315  -0.15722
  Beta virt. eigenvalues --    0.07098   0.08208   0.08910   0.10353   0.10702
  Beta virt. eigenvalues --    0.10973   0.11405   0.12230   0.12826   0.13142
  Beta virt. eigenvalues --    0.13541   0.14143   0.14738   0.15553   0.16247

 Mulliken charges and spin densities:
               1          2
     1  C    0.823713  -1.134334
     2  N   -0.357845   0.279212
     3  C    2.361927  -2.947228
     4  C   -2.672898   2.816915
     5  O   -0.090127  -0.028207
     6  C    0.530001  -0.285344
     7  O   -0.405867   0.012813
     8  C    1.901493  -1.756017
     9  C    0.369967  -0.719988
    10  N   -0.326836   0.037812
    11  H   -0.280974   0.450870
    12  H   -0.287002   0.442802
    13  H    0.096724   0.065332
    14  H   -0.983159   1.207844
    15  H   -0.670591   0.872296
    16  H   -0.394683   0.670576
    17  H   -0.470666   0.661808
    18  H   -0.143178   0.352838
 Sum of Mulliken charges =  -1.00000   1.00000

 Dipole moment (field-independent basis, Debye):
    X=             -0.7615    Y=              3.7506    Z=             -0.6667  Tot=              3.8847
 Quadrupole moment (field-independent basis, Debye-Ang):
   XX=           -111.4778   YY=           -112.3994   ZZ=            -84.9900
   XY=             -5.2684   XZ=              1.5157   YZ=              0.1435

 Summary of Natural Population Analysis:

                                       Natural Population
                Natural  -----------------------------------------------
    Atom  No    Charge         Core      Valence    Rydberg      Total
 -----------------------------------------------------------------------
      C    1   -0.17495      0.99964     2.16684    0.00847     3.17495
      N    2   -0.26881      0.99965     2.75810    0.01106     3.76881
      C    3   -0.08914      0.99961     2.07639    0.01315     3.08914
      C    4    0.06782      0.99957     1.91669    0.01593     2.93218
      O    5   -0.28189      0.99987     3.27488    0.00715     4.28189
      C    6    0.46580      0.99966     1.50772    0.02682     2.53420
      O    7   -0.31487      0.99986     3.30951    0.00549     4.31487
      C    8   -0.25822      0.99952     2.24863    0.01008     3.25822
      C    9    0.16687      0.99966     1.81686    0.01661     2.83313
      N   10   -0.18399      0.99979     2.67360    0.01061     3.68399
      H   11    0.09997      0.00000     0.39854    0.00150     0.40003
      H   12    0.09378      0.00000     0.40475    0.00147     0.40622
      H   13    0.10941      0.00000     0.38953    0.00106     0.39059
      H   14    0.11084      0.00000     0.37520    0.01397     0.38916
      H   15    0.10068      0.00000     0.39393    0.00539     0.39932
      H   16    0.10055      0.00000     0.39754    0.00191     0.39945
      H   17    0.13215      0.00000     0.36372    0.00413     0.36785
      H   18    0.12401      0.00000     0.37390    0.00209     0.37599
 =======================================================================
   * Total *   -0.00000      9.99682    26.84631    0.15687    37.00000

 Normal termination of Gaussian 16 at Tue Dec  8 10:27:08 2020.
