 Gaussian 16, Revision A.03,

 -----------------------------------------------------------
 # opt freq B3LYP/6-31G(d) empiricaldispersion=gd3bj scf=xqc
 -----------------------------------------------------------

 -------------------------------
 CID_151702612_JID_8539_neutraal
 -------------------------------
 Symbolic Z-matrix:
 Charge =  0 Multiplicity = 1

 SCF Done:  E(RB3LYP) =  -1001.06897505     A.U. after   16 cycles
 SCF Done:  E(RB3LYP) =  -1001.07913558     A.U. after   15 cycles
 SCF Done:  E(RB3LYP) =  -1001.07789243     A.U. after   14 cycles
 SCF Done:  E(RB3LYP) =  -1001.08035508     A.U. after   14 cycles
 SCF Done:  E(RB3LYP) =  -1001.08009648     A.U. after   13 cycles
 SCF Done:  E(RB3LYP) =  -1001.08071770     A.U. after   13 cycles
 SCF Done:  E(RB3LYP) =  -1001.08074245     A.U. after   12 cycles
 SCF Done:  E(RB3LYP) =  -1001.08090065     A.U. after   11 cycles
 SCF Done:  E(RB3LYP) =  -1001.08092545     A.U. after   11 cycles
 SCF Done:  E(RB3LYP) =  -1001.08094459     A.U. after   12 cycles
 SCF Done:  E(RB3LYP) =  -1001.08097756     A.U. after    8 cycles
 SCF Done:  E(RB3LYP) =  -1001.08097764     A.U. after    8 cycles
 SCF Done:  E(RB3LYP) =  -1001.08097767     A.U. after    8 cycles
 SCF Done:  E(RB3LYP) =  -1001.08097770     A.U. after    7 cycles
 Optimization completed.
    -- Stationary point found.
 Normal termination of Gaussian 16 at Sun Dec 13 12:36:21 2020.

 --------------------------------------------------------------------
 #N Geom=AllCheck Guess=TCheck SCRF=Check GenChk RB3LYP/6-31G(d) Freq
 --------------------------------------------------------------------

 Structure from the checkpoint file:  "JID_8539.chk"
 -------------------------------
 CID_151702612_JID_8539_neutraal
 -------------------------------
 Charge =  0 Multiplicity = 1

 SCF Done:  E(RB3LYP) =  -1001.08097770     A.U. after    1 cycles

  Exact polarizability: 138.812  -6.263 116.497  -9.258   3.237 111.512
 Approx polarizability: 210.302 -22.036 162.121 -34.616  12.125 188.523

                      1                      2                      3
                      A                      A                      A
 Frequencies --     22.9875                50.0678                54.4011
 Red. masses --      5.2408                 7.9173                 7.1027
 Frc consts  --      0.0016                 0.0117                 0.0124
 IR Inten    --      2.4036                 0.0951                 1.2816

                      4                      5                      6
                      A                      A                      A
 Frequencies --     60.9616                66.4663                75.5555
 Red. masses --      6.9844                 4.9787                 4.1178
 Frc consts  --      0.0153                 0.0130                 0.0138
 IR Inten    --      0.8340                 0.1127                 2.1354

                      7                      8                      9
                      A                      A                      A
 Frequencies --     81.4991                96.4694               114.7672
 Red. masses --      4.0145                 3.9110                 2.0321
 Frc consts  --      0.0157                 0.0214                 0.0158
 IR Inten    --      4.3663                 0.5014                 0.4287

                     10                     11                     12
                      A                      A                      A
 Frequencies --    130.0648               133.0586               141.9372
 Red. masses --      1.1578                 1.2421                 1.5410
 Frc consts  --      0.0115                 0.0130                 0.0183
 IR Inten    --      0.0387                 0.0228                 0.0307

                     13                     14                     15
                      A                      A                      A
 Frequencies --    160.2116               172.6965               192.7527
 Red. masses --      5.7781                 6.6327                 4.8046
 Frc consts  --      0.0874                 0.1165                 0.1052
 IR Inten    --      1.0416                 0.1732                 0.2771

                     16                     17                     18
                      A                      A                      A
 Frequencies --    230.3590               234.7647               267.5154
 Red. masses --      7.4581                 6.8114                 7.2846
 Frc consts  --      0.2332                 0.2212                 0.3072
 IR Inten    --      5.0813                 0.6492                 2.8179

                     19                     20                     21
                      A                      A                      A
 Frequencies --    282.8777               297.0795               317.2113
 Red. masses --      6.0712                 5.0522                 5.9819
 Frc consts  --      0.2862                 0.2627                 0.3546
 IR Inten    --      5.3913                21.4956                14.0784

                     22                     23                     24
                      A                      A                      A
 Frequencies --    350.2136               381.8836               392.0181
 Red. masses --      4.6398                 9.3275                 8.6581
 Frc consts  --      0.3353                 0.8015                 0.7839
 IR Inten    --      1.6408                 9.4527                 9.9546

                     25                     26                     27
                      A                      A                      A
 Frequencies --    427.3100               523.0222               573.8237
 Red. masses --     12.8485                13.9526                13.6738
 Frc consts  --      1.3823                 2.2488                 2.6527
 IR Inten    --      2.4617                 1.1499                 4.4037

                     28                     29                     30
                      A                      A                      A
 Frequencies --    638.2863               655.7100               697.6007
 Red. masses --     10.8238                10.8724                 9.3626
 Frc consts  --      2.5981                 2.7542                 2.6845
 IR Inten    --     15.1856                16.8528                50.5086

                     31                     32                     33
                      A                      A                      A
 Frequencies --    736.8168               803.2837               811.6666
 Red. masses --     11.3085                 6.2353                 6.3950
 Frc consts  --      3.6172                 2.3705                 2.4822
 IR Inten    --      0.3257                25.3996                21.7389

                     34                     35                     36
                      A                      A                      A
 Frequencies --    825.5791               866.2340               943.5889
 Red. masses --      6.5865                10.2169                 7.2328
 Frc consts  --      2.6450                 4.5169                 3.7942
 IR Inten    --     27.9693                 7.6234                18.5018

                     37                     38                     39
                      A                      A                      A
 Frequencies --    954.8531              1004.4228              1017.0646
 Red. masses --      8.2929                 9.6792                 8.3870
 Frc consts  --      4.4548                 5.7534                 5.1116
 IR Inten    --     16.0257                81.9849                12.2543

                     40                     41                     42
                      A                      A                      A
 Frequencies --   1094.4254              1109.6514              1171.4639
 Red. masses --      8.8970                 8.9574                 8.8485
 Frc consts  --      6.2787                 6.4984                 7.1544
 IR Inten    --     53.0950               122.3633               124.5053

                     43                     44                     45
                      A                      A                      A
 Frequencies --   1184.9766              1185.0734              1186.0271
 Red. masses --      1.2741                 1.2789                 1.2765
 Frc consts  --      1.0541                 1.0582                 1.0580
 IR Inten    --      0.4115                 0.2511                 3.4993

                     46                     47                     48
                      A                      A                      A
 Frequencies --   1220.4246              1221.0096              1222.4851
 Red. masses --      1.5140                 1.5424                 1.5857
 Frc consts  --      1.3286                 1.3549                 1.3962
 IR Inten    --      7.0619                 8.9921                11.4449

                     49                     50                     51
                      A                      A                      A
 Frequencies --   1272.7627              1281.1391              1284.9601
 Red. masses --      7.1623                 7.8828                 9.8290
 Frc consts  --      6.8359                 7.6230                 9.5617
 IR Inten    --    610.2177               367.0644               549.2787

                     52                     53                     54
                      A                      A                      A
 Frequencies --   1328.8502              1490.6429              1491.2545
 Red. masses --      9.0565                 1.2011                 1.2020
 Frc consts  --      9.4224                 1.5724                 1.5750
 IR Inten    --    281.2205                10.0076                10.3005

                     55                     56                     57
                      A                      A                      A
 Frequencies --   1492.4818              1511.9863              1513.0404
 Red. masses --      1.2120                 1.0471                 1.0470
 Frc consts  --      1.5907                 1.4103                 1.4123
 IR Inten    --      1.5861                 6.6116                 4.5460

                     58                     59                     60
                      A                      A                      A
 Frequencies --   1513.1321              1520.4480              1520.7768
 Red. masses --      1.0471                 1.0457                 1.0459
 Frc consts  --      1.4125                 1.4243                 1.4251
 IR Inten    --      9.2211                 7.5990                 9.3262

                     61                     62                     63
                      A                      A                      A
 Frequencies --   1521.8477              1805.5540              1830.3271
 Red. masses --      1.0462                13.1775                11.9754
 Frc consts  --      1.4277                25.3107                23.6373
 IR Inten    --      7.7807               268.0575               108.0727

                     64                     65                     66
                      A                      A                      A
 Frequencies --   1844.5764              1862.7248              2302.4840
 Red. masses --     11.9681                12.0892                13.9927
 Frc consts  --     23.9921                24.7142                43.7065
 IR Inten    --    237.2227               316.6428               504.5594

                     67                     68                     69
                      A                      A                      A
 Frequencies --   3083.2735              3083.6147              3085.2568
 Red. masses --      1.0292                 1.0292                 1.0290
 Frc consts  --      5.7649                 5.7660                 5.7707
 IR Inten    --     34.5156                22.0637                23.2175

                     70                     71                     72
                      A                      A                      A
 Frequencies --   3162.7871              3163.0205              3165.7436
 Red. masses --      1.1081                 1.1083                 1.1082
 Frc consts  --      6.5308                 6.5327                 6.5437
 IR Inten    --     13.8762                14.2077                13.0940

                     73                     74                     75
                      A                      A                      A
 Frequencies --   3195.3110              3195.3220              3196.0531
 Red. masses --      1.1075                 1.1075                 1.1080
 Frc consts  --      6.6625                 6.6622                 6.6682
 IR Inten    --     12.4817                11.4994                11.5627

 - Thermochemistry -
 -------------------
 Temperature   298.150 Kelvin.  Pressure   1.00000 Atm.
 Atom     1 has atomic number  6 and mass  12.00000

 Molecular mass:   259.04405 amu.
 Principal axes and moments of inertia in atomic units:
                           1         2         3
     Eigenvalues --  3953.527554682.294015310.42271
           X            0.99360   0.09134   0.06640
           Y           -0.08904   0.99535  -0.03679
           Z           -0.06945   0.03065   0.99711
 This molecule is an asymmetric top.
 Rotational symmetry number  1.
 Warning -- assumption of classical behavior for rotation
           may cause significant error
 Rotational temperatures (Kelvin)      0.02191     0.01850     0.01631
 Rotational constants (GHZ):           0.45649     0.38544     0.33985
 Zero-point vibrational energy     497060.3 (Joules/Mol)
                                  118.80026 (Kcal/Mol)
 Warning -- explicit consideration of  27 degrees of freedom as
           vibrations may cause significant error
 Vibrational temperatures:     33.07    72.04    78.27    87.71    95.63
          (Kelvin)            108.71   117.26   138.80   165.12   187.13
                              191.44   204.22   230.51   248.47   277.33
                              331.44   337.77   384.89   407.00   427.43
                              456.40   503.88   549.45   564.03   614.80
                              752.51   825.60   918.35   943.42  1003.69
                             1060.12  1155.75  1167.81  1187.82  1246.32
                             1357.61  1373.82  1445.14  1463.33  1574.63
                             1596.54  1685.48  1704.92  1705.06  1706.43
                             1755.92  1756.76  1758.88  1831.22  1843.27
                             1848.77  1911.92  2144.70  2145.58  2147.35
                             2175.41  2176.93  2177.06  2187.59  2188.06
                             2189.60  2597.79  2633.43  2653.93  2680.05
                             3312.76  4436.14  4436.63  4439.00  4550.55
                             4550.88  4554.80  4597.34  4597.36  4598.41

 Zero-point correction=                           0.189320 (Hartree/Particle)
 Thermal correction to Energy=                    0.208746
 Thermal correction to Enthalpy=                  0.209690
 Thermal correction to Gibbs Free Energy=         0.139253
 Sum of electronic and zero-point Energies=          -1000.891657
 Sum of electronic and thermal Energies=             -1000.872232
 Sum of electronic and thermal Enthalpies=           -1000.871287
 Sum of electronic and thermal Free Energies=        -1000.941725

                     E (Thermal)             CV                S
                      KCal/Mol        Cal/Mol-Kelvin    Cal/Mol-Kelvin
 Total                  130.990             64.498            148.247
 Electronic               0.000              0.000              0.000
 Translational            0.889              2.981             42.555
 Rotational               0.889              2.981             32.952
 Vibrational            129.213             58.536             72.740
 Vibration     1          0.593              1.985              6.358
 Vibration     2          0.595              1.978              4.815
 Vibration     3          0.596              1.976              4.651
 Vibration     4          0.597              1.973              4.426
 Vibration     5          0.598              1.970              4.255
 Vibration     6          0.599              1.965              4.003
 Vibration     7          0.600              1.962              3.854
 Vibration     8          0.603              1.952              3.524
 Vibration     9          0.608              1.937              3.187
 Vibration    10          0.612              1.923              2.945
 Vibration    11          0.613              1.920              2.901
 Vibration    12          0.615              1.911              2.778
 Vibration    13          0.622              1.891              2.547
 Vibration    14          0.626              1.876              2.406
 Vibration    15          0.635              1.850              2.201
 Vibration    16          0.652              1.795              1.876
 Vibration    17          0.655              1.788              1.842
 Vibration    18          0.673              1.733              1.612
 Vibration    19          0.682              1.705              1.516
 Vibration    20          0.691              1.679              1.433
 Vibration    21          0.704              1.641              1.324
 Vibration    22          0.727              1.575              1.165
 Vibration    23          0.751              1.509              1.032
 Vibration    24          0.759              1.487              0.992
 Vibration    25          0.789              1.411              0.867
 Vibration    26          0.878              1.199              0.603
 Vibration    27          0.930              1.088              0.497

 Optimization completed.
    -- Stationary point found.
 Normal termination of Gaussian 16 at Sun Dec 13 12:46:53 2020.

 ----------------------------------------------------------------------
 # B3LYP/6-311++G(d,p) empiricaldispersion=gd3bj scf=xqc pop=npa geom=c
 heck
 ----------------------------------------------------------------------

 ---------------------------------------
 CID_151702612_JID_8539_Energie_neutraal
 ---------------------------------------
 Structure from the checkpoint file:  "JID_8539.chk"
 Charge =  0 Multiplicity = 1

 SCF Done:  E(RB3LYP) =  -1001.37884686     A.U. after   17 cycles
 Normal termination of Gaussian 16 at Sun Dec 13 12:51:28 2020.

 ----------------------------------------------------------------------
 # B3LYP/6-311++G(d,p) empiricaldispersion=gd3bj scf=xqc pop=npa geom=c
 heck
 ----------------------------------------------------------------------

 -------------------------------------
 CID_151702612_JID_8539_Energie_kation
 -------------------------------------
 Structure from the checkpoint file:  "JID_8539.chk"
 Charge =  1 Multiplicity = 2

 SCF Done:  E(UB3LYP) =  -1001.01551417     A.U. after   33 cycles
 SCF Done:  E(UB3LYP) =  -1001.01976200     a.u. after   12 cycles
 Normal termination of Gaussian 16 at Sun Dec 13 14:38:16 2020.
 Gaussian 16:  ES64L-G16RevA.03 25-Dec-2016

 ----------------------------------------------------------------------
 # B3LYP/6-311++G(d,p) empiricaldispersion=gd3bj scf=xqc pop=npa geom=c
 heck
 ----------------------------------------------------------------------

 ------------------------------------
 CID_151702612_JID_8539_Energie_anion
 ------------------------------------
 Structure from the checkpoint file:  "JID_8539.chk"
 Charge = -1 Multiplicity = 2

                         Standard orientation:
 ---------------------------------------------------------------------
 Center     Atomic      Atomic             Coordinates (Angstroms)
 Number     Number       Type             X           Y           Z
 ---------------------------------------------------------------------
      1          6           0       -0.348649   -3.257020    1.682615
      2          8           0        0.044355   -2.120425    0.888278
      3          6           0       -0.771335   -1.062879    0.971332
      4          8           0       -1.783418   -1.012736    1.623267
      5          6           0       -0.274377    0.123388    0.119747
      6          6           0        0.772214   -0.276986   -0.933177
      7          8           0        0.554102   -0.383364   -2.115599
      8          7           0        2.041051   -0.485890   -0.324448
      9          7           0        2.942552   -0.829943   -1.114980
     10          7           0        3.830229   -1.146824   -1.741794
     11          6           0       -1.511677    0.723192   -0.585108
     12          8           0       -1.828492    1.886199   -0.538898
     13          8           0       -2.176142   -0.237225   -1.232506
     14          6           0       -3.356124    0.196696   -1.932723
     15          6           0        0.324554    1.181882    1.069957
     16          8           0        0.276196    1.132255    2.273645
     17          8           0        0.905995    2.149947    0.353514
     18          6           0        1.463393    3.232243    1.120482
     19          1           0        0.413113   -4.013718    1.498928
     20          1           0       -1.334133   -3.610360    1.370847
     21          1           0       -0.379131   -2.981332    2.738893
     22          1           0       -4.069046    0.635368   -1.230813
     23          1           0       -3.090527    0.934685   -2.693055
     24          1           0       -3.765388   -0.702235   -2.391991
     25          1           0        0.676192    3.725480    1.694965
     26          1           0        2.230989    2.856166    1.801022
     27          1           0        1.892359    3.914241    0.387399
 ---------------------------------------------------------------------

 SCF Done:  E(UB3LYP) =  -1001.39132349     A.U. after   33 cycles
 SCF Done:  E(UB3LYP) =  -1001.39132349     a.u. after    1 cycles

 The electronic state is 2-A.
 Alpha  occ. eigenvalues --  -19.06280 -19.06208 -19.05314 -19.00278 -19.00107
 Alpha  occ. eigenvalues --  -18.99558 -18.93162 -14.30077 -14.21409 -14.20251
 Alpha  occ. eigenvalues --  -10.19555 -10.19078 -10.18595 -10.12922 -10.12669
 Alpha  occ. eigenvalues --  -10.12304 -10.10380 -10.09672  -1.00968  -1.00109
 Alpha  occ. eigenvalues --   -0.99618  -0.98089  -0.91755  -0.91643  -0.90939
 Alpha  occ. eigenvalues --   -0.89013  -0.80915  -0.70160  -0.63615  -0.63370
 Alpha  occ. eigenvalues --   -0.60077  -0.53477  -0.48231  -0.48087  -0.45113
 Alpha  occ. eigenvalues --   -0.42254  -0.41319  -0.39990  -0.37935  -0.37462
 Alpha  occ. eigenvalues --   -0.37273  -0.36968  -0.36279  -0.36178  -0.35630
 Alpha  occ. eigenvalues --   -0.34554  -0.33135  -0.31944  -0.31379  -0.29832
 Alpha  occ. eigenvalues --   -0.29494  -0.28813  -0.27912  -0.27320  -0.26026
 Alpha  occ. eigenvalues --   -0.25540  -0.24904  -0.24187  -0.20931  -0.20003
 Alpha  occ. eigenvalues --   -0.19760  -0.18735  -0.17382  -0.16996  -0.16659
 Alpha  occ. eigenvalues --   -0.12120  -0.10821   0.05291
 Alpha virt. eigenvalues --    0.07383   0.07926   0.08234   0.10387   0.10796
 Alpha virt. eigenvalues --    0.11105   0.11447   0.11505   0.11803   0.11998
 Alpha virt. eigenvalues --    0.12338   0.12577   0.12855   0.13233   0.14779

  Beta  occ. eigenvalues --  -19.06278 -19.06192 -19.05274 -19.00244 -19.00098
  Beta  occ. eigenvalues --  -18.99500 -18.92640 -14.29626 -14.20862 -14.20493
  Beta  occ. eigenvalues --  -10.19527 -10.18982 -10.18501 -10.12922 -10.12659
  Beta  occ. eigenvalues --  -10.12303 -10.09847 -10.09725  -1.00920  -1.00071
  Beta  occ. eigenvalues --   -0.99531  -0.97317  -0.91710  -0.91600  -0.90845
  Beta  occ. eigenvalues --   -0.88104  -0.80572  -0.69926  -0.63576  -0.63311
  Beta  occ. eigenvalues --   -0.59958  -0.52674  -0.48081  -0.47960  -0.45068
  Beta  occ. eigenvalues --   -0.42072  -0.41179  -0.39742  -0.37842  -0.37374
  Beta  occ. eigenvalues --   -0.37176  -0.36922  -0.36144  -0.36069  -0.34272
  Beta  occ. eigenvalues --   -0.33689  -0.32916  -0.31802  -0.31244  -0.29115
  Beta  occ. eigenvalues --   -0.28866  -0.28444  -0.27754  -0.27043  -0.25723
  Beta  occ. eigenvalues --   -0.25431  -0.24771  -0.21927  -0.20802  -0.19937
  Beta  occ. eigenvalues --   -0.19432  -0.18598  -0.17277  -0.16850  -0.16409
  Beta  occ. eigenvalues --   -0.10761  -0.10489
  Beta virt. eigenvalues --    0.07358   0.07882   0.08203   0.10615   0.10780
  Beta virt. eigenvalues --    0.11346   0.11442   0.11735   0.11876   0.11931
  Beta virt. eigenvalues --    0.12378   0.12580   0.12830   0.13345   0.14074

 Mulliken charges and spin densities:
               1          2
     1  C   -0.146688  -0.131328
     2  O    0.052586   0.029214
     3  C   -0.210250   0.045293
     4  O   -0.207231   0.004884
     5  C   -0.575898  -0.008196
     6  C    0.142273   0.291064
     7  O   -0.340964   0.186506
     8  N    0.012445  -0.111741
     9  N    0.385226   0.109627
    10  N   -0.360344   0.328034
    11  C   -0.009338   0.040652
    12  O   -0.232386   0.010105
    13  O    0.056682  -0.000964
    14  C   -0.219524  -0.010205
    15  C   -0.219217  -0.005117
    16  O   -0.205406   0.017656
    17  O    0.060586   0.008306
    18  C   -0.229683   0.000985
    19  H    0.122496   0.022288
    20  H    0.082976   0.080536
    21  H    0.104052   0.067868
    22  H    0.164085   0.004043
    23  H    0.176900  -0.001051
    24  H    0.122762   0.015418
    25  H    0.162683   0.005856
    26  H    0.168285  -0.000420
    27  H    0.142892   0.000688
 Sum of Mulliken charges =  -1.00000   1.00000

 Dipole moment (field-independent basis, Debye):
    X=             -4.1919    Y=              0.8752    Z=              2.3810  Tot=              4.8997
 Quadrupole moment (field-independent basis, Debye-Ang):
   XX=           -131.3022   YY=           -107.8531   ZZ=           -130.1457
   XY=             11.1887   XZ=             20.5142   YZ=             -5.2468

 Summary of Natural Population Analysis:

                                       Natural Population
                Natural  -----------------------------------------------
    Atom  No    Charge         Core      Valence    Rydberg      Total
 -----------------------------------------------------------------------
      C    1   -0.10463      0.99960     2.09720    0.00782     3.10463
      O    2   -0.26263      0.99985     3.25452    0.00826     4.26263
      C    3    0.43757      0.99966     1.53277    0.03000     2.56243
      O    4   -0.30553      0.99986     3.30001    0.00566     4.30553
      C    5   -0.19388      0.99940     2.17674    0.01774     3.19388
      C    6    0.39939      0.99967     1.57275    0.02818     2.60061
      O    7   -0.25571      0.99987     3.24969    0.00616     4.25571
      N    8   -0.26652      0.99966     2.75349    0.01337     3.76652
      N    9    0.17382      0.99971     2.31008    0.01639     3.32618
      N   10    0.03117      0.99981     2.45640    0.01262     3.46883
      C   11    0.44006      0.99968     1.53409    0.02617     2.55994
      O   12   -0.30178      0.99986     3.29606    0.00585     4.30178
      O   13   -0.26748      0.99985     3.25909    0.00855     4.26748
      C   14   -0.10420      0.99961     2.09665    0.00794     3.10420
      C   15    0.44244      0.99968     1.53179    0.02609     2.55756
      O   16   -0.30120      0.99986     3.29535    0.00598     4.30120
      O   17   -0.26496      0.99985     3.25654    0.00857     4.26496
      C   18   -0.10414      0.99961     2.09649    0.00804     3.10414
      H   19    0.09026      0.00000     0.40885    0.00088     0.40974
      H   20    0.08905      0.00000     0.40939    0.00156     0.41095
      H   21    0.09096      0.00000     0.40756    0.00147     0.40904
      H   22    0.08911      0.00000     0.40982    0.00107     0.41089
      H   23    0.09191      0.00000     0.40708    0.00102     0.40809
      H   24    0.08891      0.00000     0.41034    0.00075     0.41109
      H   25    0.08903      0.00000     0.40989    0.00108     0.41097
      H   26    0.09026      0.00000     0.40865    0.00109     0.40974
      H   27    0.08871      0.00000     0.41053    0.00076     0.41129
 =======================================================================
   * Total *    0.00000     17.99509    48.75185    0.25306    67.00000

 Normal termination of Gaussian 16 at Sun Dec 13 14:49:49 2020.
