 Gaussian 16, Revision A.03,

 -----------------------------------------------------------
 # opt freq B3LYP/6-31G(d) empiricaldispersion=gd3bj scf=xqc
 -----------------------------------------------------------

 ------------------------------
 CID_79635854_JID_8357_neutraal
 ------------------------------
 Symbolic Z-matrix:
 Charge =  0 Multiplicity = 1

 SCF Done:  E(RB3LYP) =  -1540.50681490     A.U. after   15 cycles
 SCF Done:  E(RB3LYP) =  -1540.51445747     A.U. after   13 cycles
 SCF Done:  E(RB3LYP) =  -1540.51468547     A.U. after   13 cycles
 SCF Done:  E(RB3LYP) =  -1540.51516006     A.U. after   14 cycles
 SCF Done:  E(RB3LYP) =  -1540.51532394     A.U. after   13 cycles
 SCF Done:  E(RB3LYP) =  -1540.51663300     A.U. after   13 cycles
 SCF Done:  E(RB3LYP) =  -1540.51739575     A.U. after   13 cycles
 SCF Done:  E(RB3LYP) =  -1540.51757397     A.U. after   16 cycles
 SCF Done:  E(RB3LYP) =  -1540.51868589     A.U. after   13 cycles
 SCF Done:  E(RB3LYP) =  -1540.51896806     A.U. after   13 cycles
 SCF Done:  E(RB3LYP) =  -1540.51933387     A.U. after   11 cycles
 SCF Done:  E(RB3LYP) =  -1540.51933788     A.U. after   11 cycles
 SCF Done:  E(RB3LYP) =  -1540.51934356     A.U. after   10 cycles
 SCF Done:  E(RB3LYP) =  -1540.51934457     A.U. after    9 cycles
 SCF Done:  E(RB3LYP) =  -1540.51934497     A.U. after    8 cycles
 Optimization completed.
    -- Stationary point found.
 Normal termination of Gaussian 16 at Fri Dec 11 20:15:21 2020.

 --------------------------------------------------------------------
 #N Geom=AllCheck Guess=TCheck SCRF=Check GenChk RB3LYP/6-31G(d) Freq
 --------------------------------------------------------------------

 Structure from the checkpoint file:  "JID_8357.chk"
 ------------------------------
 CID_79635854_JID_8357_neutraal
 ------------------------------
 Charge =  0 Multiplicity = 1

 SCF Done:  E(RB3LYP) =  -1540.51934497     A.U. after    1 cycles

  Exact polarizability: 212.321   2.730 162.534  14.016  11.859 137.274
 Approx polarizability: 286.952  -7.688 282.015  21.322  36.788 217.017

                      1                      2                      3
                      A                      A                      A
 Frequencies --     19.4560                37.2381                48.0650
 Red. masses --      9.9163                 5.4239                 6.5948
 Frc consts  --      0.0022                 0.0044                 0.0090
 IR Inten    --      1.5243                 0.2905                 0.3214

                      4                      5                      6
                      A                      A                      A
 Frequencies --     58.9268                78.3505               105.8671
 Red. masses --      4.6461                 5.4911                 2.4786
 Frc consts  --      0.0095                 0.0199                 0.0164
 IR Inten    --      2.1784                 2.8963                 1.3779

                      7                      8                      9
                      A                      A                      A
 Frequencies --    138.3426               142.5934               150.9318
 Red. masses --      1.7527                 1.4577                 3.5254
 Frc consts  --      0.0198                 0.0175                 0.0473
 IR Inten    --      1.3684                 0.9162                 2.7053

                     10                     11                     12
                      A                      A                      A
 Frequencies --    170.8092               183.3693               205.5789
 Red. masses --      1.8695                 3.7244                 2.6780
 Frc consts  --      0.0321                 0.0738                 0.0667
 IR Inten    --      0.4784                 1.3772                 1.3835

                     13                     14                     15
                      A                      A                      A
 Frequencies --    215.9768               235.6932               258.2091
 Red. masses --      6.7269                 6.4935                 1.5429
 Frc consts  --      0.1849                 0.2125                 0.0606
 IR Inten    --      2.0877                 1.4162                 1.4208

                     16                     17                     18
                      A                      A                      A
 Frequencies --    283.1243               287.2201               314.7571
 Red. masses --      3.1030                 3.9407                 4.0635
 Frc consts  --      0.1465                 0.1915                 0.2372
 IR Inten    --      2.7229                 4.0875                 6.3698

                     19                     20                     21
                      A                      A                      A
 Frequencies --    372.2395               382.9072               388.8888
 Red. masses --      2.7874                 6.7021                 4.8380
 Frc consts  --      0.2276                 0.5790                 0.4311
 IR Inten    --      1.4216                11.6031                 3.5447

                     22                     23                     24
                      A                      A                      A
 Frequencies --    414.5185               453.5868               481.7930
 Red. masses --      3.4502                 2.8264                 4.7444
 Frc consts  --      0.3493                 0.3426                 0.6489
 IR Inten    --      2.3145                 3.8247                 2.0463

                     25                     26                     27
                      A                      A                      A
 Frequencies --    501.1516               531.9677               534.1781
 Red. masses --      5.0584                 7.9946                 3.8351
 Frc consts  --      0.7485                 1.3330                 0.6448
 IR Inten    --      3.2453                 1.7246                 0.2989

                     28                     29                     30
                      A                      A                      A
 Frequencies --    608.6444               649.5085               680.2310
 Red. masses --     13.2445                14.1336                 2.7723
 Frc consts  --      2.8908                 3.5130                 0.7558
 IR Inten    --      0.1397                 4.3276                65.1719

                     31                     32                     33
                      A                      A                      A
 Frequencies --    728.8993               746.6991               748.9346
 Red. masses --     10.6691                 3.3438                 2.0761
 Frc consts  --      3.3397                 1.0984                 0.6861
 IR Inten    --     17.2509                 4.9697                34.3046

                     34                     35                     36
                      A                      A                      A
 Frequencies --    772.6391               787.4377               799.9744
 Red. masses --      2.5054                 2.1087                 1.2019
 Frc consts  --      0.8812                 0.7704                 0.4532
 IR Inten    --     29.6025                21.1688                17.9950

                     37                     38                     39
                      A                      A                      A
 Frequencies --    809.1291               863.6154               897.0463
 Red. masses --      2.1233                 2.7507                 3.0406
 Frc consts  --      0.8190                 1.2087                 1.4416
 IR Inten    --     11.3396                18.0044                12.9378

                     40                     41                     42
                      A                      A                      A
 Frequencies --    898.9328               932.6534               949.3329
 Red. masses --      3.8914                 2.5510                 3.1901
 Frc consts  --      1.8527                 1.3074                 1.6939
 IR Inten    --     13.6766                 4.8687                 2.7212

                     43                     44                     45
                      A                      A                      A
 Frequencies --    959.3125              1035.6186              1036.5086
 Red. masses --      1.7354                 5.9623                 5.2588
 Frc consts  --      0.9409                 3.7676                 3.3288
 IR Inten    --      5.5657                17.2344                27.8375

                     46                     47                     48
                      A                      A                      A
 Frequencies --   1055.8208              1063.8022              1070.5129
 Red. masses --      2.2346                 6.7874                 2.5401
 Frc consts  --      1.4677                 4.5256                 1.7151
 IR Inten    --     21.4317               110.4512                 8.6131

                     49                     50                     51
                      A                      A                      A
 Frequencies --   1109.9477              1119.6225              1138.1898
 Red. masses --      3.4120                 2.4776                 3.0151
 Frc consts  --      2.4766                 1.8299                 2.3014
 IR Inten    --      3.0475                11.3865                 4.7873

                     52                     53                     54
                      A                      A                      A
 Frequencies --   1173.0733              1186.0246              1187.0520
 Red. masses --      1.4192                 1.2535                 1.2806
 Frc consts  --      1.1506                 1.0389                 1.0632
 IR Inten    --      5.2025                 0.7367                 4.4843

                     55                     56                     57
                      A                      A                      A
 Frequencies --   1198.3308              1218.3917              1236.8486
 Red. masses --      2.4851                 1.5149                 1.7687
 Frc consts  --      2.1026                 1.3249                 1.5942
 IR Inten    --     56.4169                 2.5404                64.2680

                     58                     59                     60
                      A                      A                      A
 Frequencies --   1260.3124              1262.9933              1270.8463
 Red. masses --      1.5034                 1.8417                 1.5076
 Frc consts  --      1.4069                 1.7309                 1.4346
 IR Inten    --     48.0138               183.4748                37.7702

                     61                     62                     63
                      A                      A                      A
 Frequencies --   1297.7453              1314.0881              1339.1214
 Red. masses --      1.5942                 1.3501                 1.3829
 Frc consts  --      1.5819                 1.3736                 1.4611
 IR Inten    --     43.7896                66.3398                 2.9386

                     64                     65                     66
                      A                      A                      A
 Frequencies --   1352.7734              1379.5474              1391.7963
 Red. masses --      1.2661                 1.3575                 1.2730
 Frc consts  --      1.3651                 1.5222                 1.4529
 IR Inten    --      7.4738                19.3440                 0.6184

                     67                     68                     69
                      A                      A                      A
 Frequencies --   1402.5545              1404.8009              1434.0861
 Red. masses --      1.3677                 1.3863                 8.5517
 Frc consts  --      1.5852                 1.6119                10.3622
 IR Inten    --      0.6129                10.8076                53.6168

                     70                     71                     72
                      A                      A                      A
 Frequencies --   1489.4092              1491.2039              1492.4823
 Red. masses --      7.8077                 1.1701                 1.1927
 Frc consts  --     10.2048                 1.5331                 1.5653
 IR Inten    --     16.7117                 2.2556                 7.4662

                     73                     74                     75
                      A                      A                      A
 Frequencies --   1509.4965              1512.4032              1519.4309
 Red. masses --      1.0728                 1.0479                 1.0786
 Frc consts  --      1.4402                 1.4122                 1.4671
 IR Inten    --      1.3647                 5.9925                 5.1473

                     76                     77                     78
                      A                      A                      A
 Frequencies --   1523.5623              1524.6530              1538.7130
 Red. masses --      1.1017                 1.0482                 1.1609
 Frc consts  --      1.5067                 1.4356                 1.6194
 IR Inten    --      9.3517                 7.5667                 7.7495

                     79                     80                     81
                      A                      A                      A
 Frequencies --   1547.1178              1550.7171              1565.6814
 Red. masses --      1.0816                 1.0947                 1.0641
 Frc consts  --      1.5253                 1.5510                 1.5369
 IR Inten    --      4.7321                 4.6308                25.1158

                     82                     83                     84
                      A                      A                      A
 Frequencies --   1815.3698              3017.5658              3048.4356
 Red. masses --     11.0762                 1.0502                 1.0835
 Frc consts  --     21.5065                 5.6340                 5.9325
 IR Inten    --    209.3078                30.2622                 7.1461

                     85                     86                     87
                      A                      A                      A
 Frequencies --   3055.5191              3077.8693              3082.4329
 Red. masses --      1.0684                 1.0295                 1.0613
 Frc consts  --      5.8769                 5.7461                 5.9414
 IR Inten    --     29.2935                39.6679                22.5520

                     88                     89                     90
                      A                      A                      A
 Frequencies --   3086.5942              3089.7735              3094.2516
 Red. masses --      1.0661                 1.0683                 1.0893
 Frc consts  --      5.9840                 6.0089                 6.1450
 IR Inten    --     33.8117                 7.0468                22.8713

                     91                     92                     93
                      A                      A                      A
 Frequencies --   3102.3876              3126.6545              3130.7540
 Red. masses --      1.0934                 1.1032                 1.1022
 Frc consts  --      6.2004                 6.3541                 6.3650
 IR Inten    --     34.5071                38.3611                21.5219

                     94                     95                     96
                      A                      A                      A
 Frequencies --   3148.9733              3153.9598              3164.1659
 Red. masses --      1.0985                 1.1076                 1.0957
 Frc consts  --      6.4178                 6.4913                 6.4631
 IR Inten    --      9.2668                18.9202                 2.9595

                     97                     98                     99
                      A                      A                      A
 Frequencies --   3184.6172              3266.1220              3529.1925
 Red. masses --      1.1075                 1.0948                 1.0740
 Frc consts  --      6.6176                 6.8809                 7.8814
 IR Inten    --     15.3042                 0.7823                14.3819

 - Thermochemistry -
 -------------------
 Temperature   298.150 Kelvin.  Pressure   1.00000 Atm.
 Atom     1 has atomic number  6 and mass  12.00000

 Molecular mass:   287.07622 amu.
 Principal axes and moments of inertia in atomic units:
                           1         2         3
     Eigenvalues --  2908.871029445.056269918.82866
           X            0.99992   0.01287   0.00130
           Y           -0.01275   0.99746  -0.07013
           Z           -0.00219   0.07011   0.99754
 This molecule is an asymmetric top.
 Rotational symmetry number  1.
 Warning -- assumption of classical behavior for rotation
           may cause significant error
 Rotational temperatures (Kelvin)      0.02978     0.00917     0.00873
 Rotational constants (GHZ):           0.62043     0.19108     0.18195
 Zero-point vibrational energy     748914.0 (Joules/Mol)
                                  178.99475 (Kcal/Mol)
 Warning -- explicit consideration of  28 degrees of freedom as
           vibrations may cause significant error
 Vibrational temperatures:     27.99    53.58    69.15    84.78   112.73
          (Kelvin)            152.32   199.04   205.16   217.16   245.76
                              263.83   295.78   310.74   339.11   371.51
                              407.35   413.25   452.87   535.57   550.92
                              559.52   596.40   652.61   693.19   721.05
                              765.38   768.56   875.70   934.50   978.70
                             1048.72  1074.33  1077.55  1111.66  1132.95
                             1150.98  1164.16  1242.55  1290.65  1293.36
                             1341.88  1365.88  1380.24  1490.02  1491.30
                             1519.09  1530.57  1540.23  1596.97  1610.89
                             1637.60  1687.79  1706.42  1707.90  1724.13
                             1752.99  1779.55  1813.31  1817.17  1828.46
                             1867.17  1890.68  1926.70  1946.34  1984.86
                             2002.48  2017.96  2021.20  2063.33  2142.93
                             2145.51  2147.35  2171.83  2176.01  2186.12
                             2192.07  2193.64  2213.86  2225.96  2231.14
                             2252.67  2611.91  4341.60  4386.02  4396.21
                             4428.37  4434.93  4440.92  4445.49  4451.94
                             4463.64  4498.56  4504.46  4530.67  4537.84
                             4552.53  4581.95  4699.22  5077.72

 Zero-point correction=                           0.285246 (Hartree/Particle)
 Thermal correction to Energy=                    0.303730
 Thermal correction to Enthalpy=                  0.304674
 Thermal correction to Gibbs Free Energy=         0.236929
 Sum of electronic and zero-point Energies=          -1540.234099
 Sum of electronic and thermal Energies=             -1540.215615
 Sum of electronic and thermal Enthalpies=           -1540.214671
 Sum of electronic and thermal Free Energies=        -1540.282416

                     E (Thermal)             CV                S
                      KCal/Mol        Cal/Mol-Kelvin    Cal/Mol-Kelvin
 Total                  190.593             68.360            142.581
 Electronic               0.000              0.000              0.000
 Translational            0.889              2.981             42.861
 Rotational               0.889              2.981             33.965
 Vibrational            188.816             62.399             65.755
 Vibration     1          0.593              1.986              6.689
 Vibration     2          0.594              1.982              5.401
 Vibration     3          0.595              1.978              4.895
 Vibration     4          0.596              1.974              4.493
 Vibration     5          0.600              1.964              3.932
 Vibration     6          0.605              1.945              3.343
 Vibration     7          0.614              1.915              2.827
 Vibration     8          0.616              1.911              2.769
 Vibration     9          0.618              1.902              2.660
 Vibration    10          0.626              1.878              2.427
 Vibration    11          0.631              1.862              2.294
 Vibration    12          0.640              1.832              2.083
 Vibration    13          0.645              1.817              1.993
 Vibration    14          0.655              1.786              1.835
 Vibration    15          0.667              1.749              1.674
 Vibration    16          0.682              1.705              1.515
 Vibration    17          0.684              1.697              1.490
 Vibration    18          0.702              1.645              1.337
 Vibration    19          0.744              1.529              1.071
 Vibration    20          0.752              1.507              1.028
 Vibration    21          0.757              1.494              1.004
 Vibration    22          0.778              1.439              0.911
 Vibration    23          0.812              1.353              0.785
 Vibration    24          0.838              1.290              0.705
 Vibration    25          0.857              1.247              0.655
 Vibration    26          0.887              1.179              0.583
 Vibration    27          0.889              1.174              0.578
 Vibration    28          0.968              1.014              0.435

                           ! Non-Optimized Parameters !
 Normal termination of Gaussian 16 at Fri Dec 11 20:31:44 2020.

 ----------------------------------------------------------------------
 # B3LYP/6-311++G(d,p) empiricaldispersion=gd3bj scf=xqc pop=npa geom=c
 heck
 ----------------------------------------------------------------------

 --------------------------------------
 CID_79635854_JID_8357_Energie_neutraal
 --------------------------------------
 Structure from the checkpoint file:  "JID_8357.chk"
 Charge =  0 Multiplicity = 1

 SCF Done:  E(RB3LYP) =  -1540.78219677     A.U. after   16 cycles
 Normal termination of Gaussian 16 at Fri Dec 11 20:38:39 2020.

 ----------------------------------------------------------------------
 # B3LYP/6-311++G(d,p) empiricaldispersion=gd3bj scf=xqc pop=npa geom=c
 heck
 ----------------------------------------------------------------------

 ------------------------------------
 CID_79635854_JID_8357_Energie_kation
 ------------------------------------
 Structure from the checkpoint file:  "JID_8357.chk"
 Charge =  1 Multiplicity = 2

 SCF Done:  E(UB3LYP) =  -1540.49563127     A.U. after   26 cycles
 Normal termination of Gaussian 16 at Fri Dec 11 20:53:55 2020.
 Gaussian 16:  ES64L-G16RevA.03 25-Dec-2016

 ----------------------------------------------------------------------
 # B3LYP/6-311++G(d,p) empiricaldispersion=gd3bj scf=xqc pop=npa geom=c
 heck
 ----------------------------------------------------------------------

 -----------------------------------
 CID_79635854_JID_8357_Energie_anion
 -----------------------------------
 Structure from the checkpoint file:  "JID_8357.chk"
 Charge = -1 Multiplicity = 2

                         Standard orientation:
 ---------------------------------------------------------------------
 Center     Atomic      Atomic             Coordinates (Angstroms)
 Number     Number       Type             X           Y           Z
 ---------------------------------------------------------------------
      1          6           0       -0.782816    2.761437    0.370073
      2          7           0       -1.952683    1.920212    0.594463
      3          6           0       -1.989106    0.570097    0.033253
      4          6           0       -2.346563    0.598588   -1.472080
      5          6           0       -1.200368    1.024489   -2.410804
      6          6           0        0.183648    0.473666   -1.983583
      7          6           0        0.010284   -0.707318   -1.027002
      8          6           0       -0.687151   -0.304825    0.276600
      9         16           0        1.578866   -1.652359   -0.723375
     10          6           0        2.639747   -0.486872    0.047217
     11          7           0        2.350753    0.739551    0.393756
     12          7           0        3.402244    1.395550    0.985963
     13          6           0        4.464429    0.658120    1.079845
     14         16           0        4.295645   -0.957576    0.435812
     15          6           0       -3.099023   -0.148810    0.815660
     16          8           0       -3.531901    0.209496    1.890334
     17          8           0       -3.493766   -1.288963    0.211189
     18          6           0       -4.463454   -2.061875    0.936854
     19          1           0       -0.740936    3.096495   -0.670369
     20          1           0        0.187341    2.302742    0.615127
     21          1           0       -0.896840    3.657242    0.988375
     22          1           0       -2.154043    1.849449    1.587754
     23          1           0       -2.674102   -0.405089   -1.754978
     24          1           0       -3.205469    1.264161   -1.600056
     25          1           0       -1.149796    2.114355   -2.483550
     26          1           0       -1.444898    0.664903   -3.417173
     27          1           0        0.764551    1.242757   -1.471424
     28          1           0        0.760391    0.163775   -2.860307
     29          1           0       -0.574189   -1.493066   -1.522891
     30          1           0        0.003858    0.274664    0.888299
     31          1           0       -0.930725   -1.212313    0.836230
     32          1           0        5.390342    1.004679    1.521144
     33          1           0       -4.062241   -2.363379    1.907875
     34          1           0       -5.374777   -1.479961    1.094384
     35          1           0       -4.665252   -2.934063    0.314911
 ---------------------------------------------------------------------

 SCF Done:  E(UB3LYP) =  -1540.78003095     A.U. after   33 cycles
 SCF Done:  E(UB3LYP) =  -1540.78003095     a.u. after    1 cycles

 The electronic state is 2-A.
 Alpha  occ. eigenvalues --  -88.76085 -88.75322 -19.08048 -19.02538 -14.21597
 Alpha  occ. eigenvalues --  -14.21113 -14.19854 -10.21030 -10.13099 -10.12964
 Alpha  occ. eigenvalues --  -10.12471 -10.11433 -10.09858 -10.08556 -10.07993
 Alpha  occ. eigenvalues --  -10.07606 -10.07382 -10.07152  -7.84751  -7.83908
 Alpha  occ. eigenvalues --   -5.81031  -5.80706  -5.80342  -5.80317  -5.79889
 Alpha  occ. eigenvalues --   -5.79315  -1.02216  -0.93446  -0.90144  -0.81596
 Alpha  occ. eigenvalues --   -0.74619  -0.71525  -0.68521  -0.67624  -0.66448
 Alpha  occ. eigenvalues --   -0.62619  -0.60611  -0.57766  -0.52802  -0.52291
 Alpha  occ. eigenvalues --   -0.49300  -0.47943  -0.45147  -0.43858  -0.43064
 Alpha  occ. eigenvalues --   -0.40158  -0.39303  -0.38512  -0.37498  -0.36006
 Alpha  occ. eigenvalues --   -0.35578  -0.35249  -0.32815  -0.32165  -0.31577
 Alpha  occ. eigenvalues --   -0.31349  -0.31094  -0.30269  -0.29136  -0.28590
 Alpha  occ. eigenvalues --   -0.27999  -0.27321  -0.26836  -0.26063  -0.25335
 Alpha  occ. eigenvalues --   -0.24013  -0.22622  -0.21990  -0.21419  -0.20194
 Alpha  occ. eigenvalues --   -0.18750  -0.17998  -0.17551  -0.14676  -0.12925
 Alpha  occ. eigenvalues --   -0.11688   0.04241
 Alpha virt. eigenvalues --    0.05580   0.07161   0.08079   0.08263   0.08704
 Alpha virt. eigenvalues --    0.09056   0.09421   0.09648   0.10212   0.10471
 Alpha virt. eigenvalues --    0.10993   0.11413   0.11801   0.12193   0.12538

  Beta  occ. eigenvalues --  -88.76038 -88.75323 -19.08042 -19.02533 -14.21558
  Beta  occ. eigenvalues --  -14.21110 -14.19851 -10.21029 -10.13051 -10.12964
  Beta  occ. eigenvalues --  -10.12069 -10.11426 -10.09524 -10.08555 -10.07990
  Beta  occ. eigenvalues --  -10.07600 -10.07373 -10.07151  -7.84708  -7.83908
  Beta  occ. eigenvalues --   -5.81017  -5.80692  -5.80325  -5.80172  -5.79895
  Beta  occ. eigenvalues --   -5.79301  -1.02206  -0.93436  -0.89899  -0.81591
  Beta  occ. eigenvalues --   -0.74528  -0.71245  -0.68213  -0.67539  -0.66395
  Beta  occ. eigenvalues --   -0.62568  -0.60545  -0.57759  -0.52750  -0.52248
  Beta  occ. eigenvalues --   -0.48900  -0.47835  -0.45063  -0.43738  -0.42911
  Beta  occ. eigenvalues --   -0.40125  -0.39271  -0.38449  -0.37467  -0.35973
  Beta  occ. eigenvalues --   -0.35541  -0.35106  -0.32712  -0.32005  -0.31328
  Beta  occ. eigenvalues --   -0.31038  -0.30754  -0.30043  -0.29102  -0.28541
  Beta  occ. eigenvalues --   -0.27882  -0.27279  -0.26800  -0.26049  -0.25243
  Beta  occ. eigenvalues --   -0.23969  -0.22598  -0.21970  -0.21374  -0.19315
  Beta  occ. eigenvalues --   -0.18541  -0.17920  -0.16672  -0.14523  -0.12816
  Beta  occ. eigenvalues --   -0.11109
  Beta virt. eigenvalues --    0.06473   0.07352   0.08085   0.08308   0.08740
  Beta virt. eigenvalues --    0.08996   0.09249   0.09645   0.10088   0.10394
  Beta virt. eigenvalues --    0.10582   0.11114   0.11473   0.11905   0.12530

 Mulliken charges and spin densities:
               1          2
     1  C   -0.424147  -0.019839
     2  N   -0.086783   0.019286
     3  C    0.710247  -0.396726
     4  C   -0.466247  -0.146547
     5  C   -0.490655  -0.066378
     6  C   -0.485055  -0.056122
     7  C    1.016107  -0.135947
     8  C   -0.878828  -0.119357
     9  S   -0.029412   0.013104
    10  C   -0.202122   0.217564
    11  N   -0.170233  -0.000620
    12  N    0.156982   0.008922
    13  C   -0.252865   0.219460
    14  S   -0.359581   0.111441
    15  C   -0.734073   0.413253
    16  O   -0.195410   0.005485
    17  O   -0.076713   0.059864
    18  C    1.016734  -1.219939
    19  H    0.136912  -0.004987
    20  H    0.220391  -0.007727
    21  H    0.122354   0.006067
    22  H    0.242727   0.025414
    23  H    0.124302   0.046665
    24  H    0.116604   0.087334
    25  H    0.136521  -0.001556
    26  H    0.071911   0.081198
    27  H    0.146712  -0.000303
    28  H    0.166890  -0.010173
    29  H    0.180376   0.112375
    30  H    0.059468   0.093967
    31  H    0.042096   0.139310
    32  H    0.209374  -0.014026
    33  H   -0.174587   0.350977
    34  H   -0.190641   0.365373
    35  H   -0.659357   0.823190
 Sum of Mulliken charges =  -1.00000   1.00000

 Dipole moment (field-independent basis, Debye):
    X=              2.3018    Y=              2.8908    Z=             -2.8091  Tot=              4.6418
 Quadrupole moment (field-independent basis, Debye-Ang):
   XX=           -205.8144   YY=           -161.8725   ZZ=           -143.4644
   XY=            -17.0342   XZ=              5.4594   YZ=             -1.7716

 Summary of Natural Population Analysis:

                                       Natural Population
                Natural  -----------------------------------------------
    Atom  No    Charge         Core      Valence    Rydberg      Total
 -----------------------------------------------------------------------
      C    1   -0.18550      0.99965     2.17894    0.00690     3.18550
      N    2   -0.34879      0.99971     2.83728    0.01180     3.84879
      C    3    0.02917      0.99952     1.95639    0.01493     2.97083
      C    4   -0.19872      0.99959     2.18835    0.01079     3.19872
      C    5   -0.18858      0.99963     2.18095    0.00799     3.18858
      C    6   -0.20496      0.99959     2.19676    0.00861     3.20496
      C    7   -0.15683      0.99953     2.14209    0.01521     3.15683
      C    8   -0.20718      0.99955     2.19519    0.01244     3.20718
      S    9    0.13901      4.99946     2.84170    0.01983     7.86099
      C   10   -0.00674      0.99962     1.98728    0.01984     3.00674
      N   11   -0.19652      0.99960     2.67893    0.01799     3.69652
      N   12   -0.14538      0.99968     2.63199    0.01372     3.64538
      C   13   -0.01571      0.99968     2.00084    0.01519     3.01571
      S   14    0.16885      4.99944     2.81288    0.01884     7.83115
      C   15    0.42171      0.99961     1.55193    0.02675     2.57829
      O   16   -0.31055      0.99987     3.30514    0.00554     4.31055
      O   17   -0.28017      0.99986     3.27105    0.00927     4.28017
      C   18   -0.10288      0.99959     2.09424    0.00904     3.10288
      H   19    0.08587      0.00000     0.41320    0.00093     0.41413
      H   20    0.09844      0.00000     0.39994    0.00162     0.40156
      H   21    0.09245      0.00000     0.40686    0.00070     0.40755
      H   22    0.18589      0.00000     0.31175    0.00236     0.31411
      H   23    0.10739      0.00000     0.39106    0.00154     0.39261
      H   24    0.10653      0.00000     0.39227    0.00121     0.39347
      H   25    0.09569      0.00000     0.40340    0.00091     0.40431
      H   26    0.09617      0.00000     0.40297    0.00085     0.40383
      H   27    0.11488      0.00000     0.38388    0.00125     0.38512
      H   28    0.10157      0.00000     0.39761    0.00082     0.39843
      H   29    0.10505      0.00000     0.39368    0.00127     0.39495
      H   30    0.12001      0.00000     0.37824    0.00174     0.37999
      H   31    0.10765      0.00000     0.39101    0.00134     0.39235
      H   32    0.09284      0.00000     0.40602    0.00114     0.40716
      H   33    0.09212      0.00000     0.40655    0.00132     0.40788
      H   34    0.09142      0.00000     0.40722    0.00136     0.40858
      H   35    0.09580      0.00000     0.40169    0.00251     0.40420
 =======================================================================
   * Total *   -0.00000     25.99315    49.73930    0.26755    76.00000

 Normal termination of Gaussian 16 at Fri Dec 11 21:12:56 2020.
