 Gaussian 16, Revision A.03,

 -----------------------------------------------------------
 # opt freq B3LYP/6-31G(d) empiricaldispersion=gd3bj scf=xqc
 -----------------------------------------------------------

 --------------------------------
 CID_136770310_JID_10648_neutraal
 --------------------------------
 Symbolic Z-matrix:
 Charge =  0 Multiplicity = 1

 SCF Done:  E(RB3LYP) =  -917.664676032     A.U. after   16 cycles
 SCF Done:  E(RB3LYP) =  -917.672750313     A.U. after   13 cycles
 SCF Done:  E(RB3LYP) =  -917.671254706     A.U. after   13 cycles
 SCF Done:  E(RB3LYP) =  -917.673810761     A.U. after   12 cycles
 SCF Done:  E(RB3LYP) =  -917.674496763     A.U. after   12 cycles
 SCF Done:  E(RB3LYP) =  -917.675155539     A.U. after   11 cycles
 SCF Done:  E(RB3LYP) =  -917.675508446     A.U. after   12 cycles
 SCF Done:  E(RB3LYP) =  -917.675821880     A.U. after   12 cycles
 SCF Done:  E(RB3LYP) =  -917.675978618     A.U. after   11 cycles
 SCF Done:  E(RB3LYP) =  -917.676075989     A.U. after   11 cycles
 SCF Done:  E(RB3LYP) =  -917.682631769     A.U. after   11 cycles
 SCF Done:  E(RB3LYP) =  -917.682636112     A.U. after    9 cycles
 SCF Done:  E(RB3LYP) =  -917.682636952     A.U. after    8 cycles
 SCF Done:  E(RB3LYP) =  -917.682637083     A.U. after    7 cycles
 SCF Done:  E(RB3LYP) =  -917.682637135     A.U. after    7 cycles
 Optimization completed.
    -- Stationary point found.
 Normal termination of Gaussian 16 at Sun Dec 13 17:09:29 2020.

 --------------------------------------------------------------------
 #N Geom=AllCheck Guess=TCheck SCRF=Check GenChk RB3LYP/6-31G(d) Freq
 --------------------------------------------------------------------

 Structure from the checkpoint file:  "JID_10648.chk"
 --------------------------------
 CID_136770310_JID_10648_neutraal
 --------------------------------
 Charge =  0 Multiplicity = 1

 SCF Done:  E(RB3LYP) =  -917.682637135     A.U. after    1 cycles

  Exact polarizability: 211.925   3.146 178.730  -9.544   7.466 139.744
 Approx polarizability: 330.708  16.716 276.723  -7.797  16.295 210.435

                      1                      2                      3
                      A                      A                      A
 Frequencies --     41.2694                46.9987                60.7954
 Red. masses --      3.7313                 4.4679                 5.5213
 Frc consts  --      0.0037                 0.0058                 0.0120
 IR Inten    --      0.9125                 0.5405                 0.6332

                      4                      5                      6
                      A                      A                      A
 Frequencies --     68.4737                76.0611                91.1455
 Red. masses --      3.6874                 3.3638                 3.4502
 Frc consts  --      0.0102                 0.0115                 0.0169
 IR Inten    --      0.1427                 3.1268                 5.5875

                      7                      8                      9
                      A                      A                      A
 Frequencies --    107.5747               126.4297               147.8606
 Red. masses --      3.1341                 2.9229                 3.8163
 Frc consts  --      0.0214                 0.0275                 0.0492
 IR Inten    --      2.6015                 6.2442                 0.9181

                     10                     11                     12
                      A                      A                      A
 Frequencies --    165.2166               180.2939               192.4993
 Red. masses --      1.3914                 2.0964                 2.9492
 Frc consts  --      0.0224                 0.0401                 0.0644
 IR Inten    --      0.3554                 2.0087                 1.1627

                     13                     14                     15
                      A                      A                      A
 Frequencies --    196.7343               220.1197               256.6624
 Red. masses --      4.5952                 3.3856                 1.4864
 Frc consts  --      0.1048                 0.0967                 0.0577
 IR Inten    --      3.2879                 1.7505                 1.1757

                     16                     17                     18
                      A                      A                      A
 Frequencies --    267.3099               301.0546               305.8109
 Red. masses --      1.3720                 2.4594                 3.7066
 Frc consts  --      0.0578                 0.1313                 0.2042
 IR Inten    --      0.4122                 0.4732                 0.4777

                     19                     20                     21
                      A                      A                      A
 Frequencies --    315.2617               358.7586               377.8325
 Red. masses --      3.5603                 2.4368                 5.4156
 Frc consts  --      0.2085                 0.1848                 0.4555
 IR Inten    --      1.8995                 3.1195                 6.0580

                     22                     23                     24
                      A                      A                      A
 Frequencies --    388.7804               433.8042               488.7264
 Red. masses --      3.8108                 3.2835                 5.0659
 Frc consts  --      0.3394                 0.3641                 0.7129
 IR Inten    --      2.0811                 6.6022                 6.0735

                     25                     26                     27
                      A                      A                      A
 Frequencies --    512.9434               530.5296               541.5537
 Red. masses --      4.6079                 5.8405                 4.9382
 Frc consts  --      0.7143                 0.9685                 0.8533
 IR Inten    --      1.5614                14.0572                 6.2766

                     28                     29                     30
                      A                      A                      A
 Frequencies --    565.8769               573.1073               616.0767
 Red. masses --      5.3473                 4.9101                 4.3319
 Frc consts  --      1.0089                 0.9502                 0.9687
 IR Inten    --      5.1508                 4.8797                 8.8388

                     31                     32                     33
                      A                      A                      A
 Frequencies --    652.3724               665.6906               680.3537
 Red. masses --      3.9217                 3.2549                 2.5735
 Frc consts  --      0.9834                 0.8498                 0.7018
 IR Inten    --      2.1903                11.5087                19.0496

                     34                     35                     36
                      A                      A                      A
 Frequencies --    740.2444               744.5426               757.9089
 Red. masses --      1.8525                 4.1420                 1.8790
 Frc consts  --      0.5981                 1.3528                 0.6359
 IR Inten    --     26.0343                 8.5278                41.9796

                     37                     38                     39
                      A                      A                      A
 Frequencies --    781.0952               805.8998               815.8342
 Red. masses --      2.2691                 2.8874                 4.8719
 Frc consts  --      0.8157                 1.1049                 1.9105
 IR Inten    --      6.1216                17.1418                 8.1423

                     40                     41                     42
                      A                      A                      A
 Frequencies --    845.2936               861.9406               869.6260
 Red. masses --      2.1888                 2.8339                 1.4847
 Frc consts  --      0.9215                 1.2405                 0.6615
 IR Inten    --      3.1090                 1.1512                 0.3655

                     43                     44                     45
                      A                      A                      A
 Frequencies --    904.0224               928.4233               943.9746
 Red. masses --      1.9829                 1.4684                 4.2961
 Frc consts  --      0.9548                 0.7458                 2.2555
 IR Inten    --      4.3370                 3.9058                10.3555

                     46                     47                     48
                      A                      A                      A
 Frequencies --    955.8432               958.3972              1048.5855
 Red. masses --      1.4156                 2.5412                 2.1761
 Frc consts  --      0.7620                 1.3752                 1.4097
 IR Inten    --      2.2414                10.3725                12.6231

                     49                     50                     51
                      A                      A                      A
 Frequencies --   1067.0769              1070.8708              1101.0789
 Red. masses --      5.8034                 3.3708                 2.3325
 Frc consts  --      3.8933                 2.2775                 1.6661
 IR Inten    --     50.3444                13.2082                13.8415

                     52                     53                     54
                      A                      A                      A
 Frequencies --   1119.8119              1126.0362              1143.0170
 Red. masses --      1.6803                 2.5342                 3.8973
 Frc consts  --      1.2414                 1.8932                 3.0000
 IR Inten    --      9.7838                37.5184               211.5709

                     55                     56                     57
                      A                      A                      A
 Frequencies --   1153.5283              1186.6847              1187.8689
 Red. masses --      2.5293                 1.2709                 1.2621
 Frc consts  --      1.9829                 1.0544                 1.0493
 IR Inten    --     19.4593                 0.9478                 1.5278

                     58                     59                     60
                      A                      A                      A
 Frequencies --   1201.5787              1206.4470              1221.0429
 Red. masses --      1.8835                 1.3565                 1.4131
 Frc consts  --      1.6022                 1.1633                 1.2413
 IR Inten    --     27.4209                19.7506                 1.1896

                     61                     62                     63
                      A                      A                      A
 Frequencies --   1222.7923              1237.5328              1281.6245
 Red. masses --      1.3791                 2.4503                 2.0976
 Frc consts  --      1.2150                 2.2110                 2.0300
 IR Inten    --      1.8689                 1.0424               150.3599

                     64                     65                     66
                      A                      A                      A
 Frequencies --   1289.3175              1303.3694              1322.6081
 Red. masses --      1.6845                 1.2420                 4.6354
 Frc consts  --      1.6499                 1.2431                 4.7775
 IR Inten    --     30.4902                 4.0278                46.3360

                     67                     68                     69
                      A                      A                      A
 Frequencies --   1351.9707              1373.9215              1381.6425
 Red. masses --      5.3458                 2.2058                 1.4111
 Frc consts  --      5.7570                 2.4532                 1.5871
 IR Inten    --     13.9046                 2.0416                 6.9724

                     70                     71                     72
                      A                      A                      A
 Frequencies --   1397.3243              1433.5228              1448.0762
 Red. masses --      1.5773                 2.0010                 1.2694
 Frc consts  --      1.8145                 2.4227                 1.5683
 IR Inten    --      2.7160                41.4046                 5.3496

                     73                     74                     75
                      A                      A                      A
 Frequencies --   1478.6895              1482.5549              1497.2266
 Red. masses --      2.0884                 1.6182                 1.3531
 Frc consts  --      2.6904                 2.0955                 1.7871
 IR Inten    --     37.8145                42.1513                14.3152

                     76                     77                     78
                      A                      A                      A
 Frequencies --   1505.1371              1515.0535              1521.2878
 Red. masses --      1.1253                 1.0635                 1.5571
 Frc consts  --      1.5020                 1.4383                 2.1232
 IR Inten    --      3.8923                 1.2259                 5.9470

                     79                     80                     81
                      A                      A                      A
 Frequencies --   1521.6868              1523.5209              1525.5403
 Red. masses --      1.3000                 1.1612                 1.5333
 Frc consts  --      1.7735                 1.5880                 2.1024
 IR Inten    --      4.3226                22.8381                76.0007

                     82                     83                     84
                      A                      A                      A
 Frequencies --   1532.8501              1538.3667              1538.6742
 Red. masses --      1.0546                 1.0625                 1.1997
 Frc consts  --      1.4600                 1.4815                 1.6735
 IR Inten    --      7.5111                 6.1480                 4.9037

                     85                     86                     87
                      A                      A                      A
 Frequencies --   1543.5579              1599.6203              1643.1746
 Red. masses --      1.0722                 6.3316                 6.5168
 Frc consts  --      1.5051                 9.5455                10.3670
 IR Inten    --     13.7925                37.1726               107.6629

                     88                     89                     90
                      A                      A                      A
 Frequencies --   1655.0170              1669.3046              1781.1975
 Red. masses --      6.8425                 6.7173                 8.9085
 Frc consts  --     11.0425                11.0285                16.6525
 IR Inten    --     36.2374               195.7338               520.9542

                     91                     92                     93
                      A                      A                      A
 Frequencies --   3028.9628              3035.8387              3043.9368
 Red. masses --      1.0346                 1.0351                 1.0625
 Frc consts  --      5.5923                 5.6206                 5.8002
 IR Inten    --     59.7102                68.4468                37.7480

                     94                     95                     96
                      A                      A                      A
 Frequencies --   3047.7600              3073.4159              3089.2564
 Red. masses --      1.0414                 1.0646                 1.1058
 Frc consts  --      5.6992                 5.9249                 6.2178
 IR Inten    --     25.6570                19.8196                23.9465

                     97                     98                     99
                      A                      A                      A
 Frequencies --   3089.5319              3109.4050              3111.1768
 Red. masses --      1.0992                 1.1012                 1.1008
 Frc consts  --      6.1818                 6.2728                 6.2779
 IR Inten    --     22.0647                41.7005                26.8919

                    100                    101                    102
                      A                      A                      A
 Frequencies --   3131.6288              3137.9901              3153.9405
 Red. masses --      1.1002                 1.0976                 1.1049
 Frc consts  --      6.3569                 6.3678                 6.4756
 IR Inten    --     20.1623                33.0051                27.5997

                    103                    104                    105
                      A                      A                      A
 Frequencies --   3162.8180              3188.3940              3193.9736
 Red. masses --      1.1000                 1.0924                 1.0877
 Frc consts  --      6.4832                 6.5431                 6.5374
 IR Inten    --     19.3945                18.6710                10.3051

                    106                    107                    108
                      A                      A                      A
 Frequencies --   3217.2500              3235.9399              3586.2771
 Red. masses --      1.0935                 1.0918                 1.0782
 Frc consts  --      6.6686                 6.7356                 8.1701
 IR Inten    --     12.3631                10.6543                50.6118

 - Thermochemistry -
 -------------------
 Temperature   298.150 Kelvin.  Pressure   1.00000 Atm.
 Atom     1 has atomic number  6 and mass  12.00000

 Molecular mass:   274.13174 amu.
 Principal axes and moments of inertia in atomic units:
                           1         2         3
     Eigenvalues --  4082.743255999.024996888.09762
           X            0.99982  -0.01535   0.01131
           Y            0.01529   0.99987   0.00519
           Z           -0.01139  -0.00501   0.99992
 This molecule is an asymmetric top.
 Rotational symmetry number  1.
 Warning -- assumption of classical behavior for rotation
           may cause significant error
 Rotational temperatures (Kelvin)      0.02121     0.01444     0.01257
 Rotational constants (GHZ):           0.44204     0.30084     0.26201
 Zero-point vibrational energy     825748.2 (Joules/Mol)
                                  197.35855 (Kcal/Mol)
 Warning -- explicit consideration of  30 degrees of freedom as
           vibrations may cause significant error
 Vibrational temperatures:     59.38    67.62    87.47    98.52   109.43
          (Kelvin)            131.14   154.78   181.90   212.74   237.71
                              259.40   276.96   283.06   316.70   369.28
                              384.60   433.15   439.99   453.59   516.17
                              543.62   559.37   624.15   703.17   738.01
                              763.31   779.17   814.17   824.57   886.40
                              938.62   957.78   978.88  1065.05  1071.23
                             1090.46  1123.82  1159.51  1173.80  1216.19
                             1240.14  1251.20  1300.69  1335.79  1358.17
                             1375.25  1378.92  1508.68  1535.29  1540.74
                             1584.21  1611.16  1620.12  1644.55  1659.67
                             1707.37  1709.08  1728.80  1735.81  1756.81
                             1759.33  1780.53  1843.97  1855.04  1875.26
                             1902.94  1945.18  1976.77  1987.88  2010.44
                             2062.52  2083.46  2127.50  2133.07  2154.18
                             2165.56  2179.82  2188.79  2189.37  2192.01
                             2194.91  2205.43  2213.37  2213.81  2220.84
                             2301.50  2364.16  2381.20  2401.76  2562.75
                             4358.00  4367.89  4379.55  4385.05  4421.96
                             4444.75  4445.15  4473.74  4476.29  4505.72
                             4514.87  4537.82  4550.59  4587.39  4595.42
                             4628.91  4655.80  5159.85

 Zero-point correction=                           0.314511 (Hartree/Particle)
 Thermal correction to Energy=                    0.333715
 Thermal correction to Enthalpy=                  0.334660
 Thermal correction to Gibbs Free Energy=         0.266811
 Sum of electronic and zero-point Energies=           -917.368126
 Sum of electronic and thermal Energies=              -917.348922
 Sum of electronic and thermal Enthalpies=            -917.347978
 Sum of electronic and thermal Free Energies=         -917.415826

                     E (Thermal)             CV                S
                      KCal/Mol        Cal/Mol-Kelvin    Cal/Mol-Kelvin
 Total                  209.410             72.049            142.798
 Electronic               0.000              0.000              0.000
 Translational            0.889              2.981             42.724
 Rotational               0.889              2.981             33.489
 Vibrational            207.632             66.087             66.586
 Vibration     1          0.594              1.981              5.197
 Vibration     2          0.595              1.979              4.940
 Vibration     3          0.597              1.973              4.431
 Vibration     4          0.598              1.969              4.197
 Vibration     5          0.599              1.965              3.990
 Vibration     6          0.602              1.955              3.635
 Vibration     7          0.606              1.943              3.312
 Vibration     8          0.611              1.927              3.000
 Vibration     9          0.617              1.905              2.700
 Vibration    10          0.624              1.885              2.489
 Vibration    11          0.629              1.866              2.325
 Vibration    12          0.634              1.850              2.204
 Vibration    13          0.636              1.844              2.163
 Vibration    14          0.647              1.810              1.958
 Vibration    15          0.666              1.752              1.684
 Vibration    16          0.672              1.733              1.614
 Vibration    17          0.693              1.672              1.411
 Vibration    18          0.696              1.663              1.385
 Vibration    19          0.703              1.645              1.335
 Vibration    20          0.734              1.557              1.127
 Vibration    21          0.748              1.517              1.048
 Vibration    22          0.757              1.494              1.005
 Vibration    23          0.795              1.397              0.846
 Vibration    24          0.845              1.275              0.687
 Vibration    25          0.868              1.221              0.627
 Vibration    26          0.885              1.182              0.586
 Vibration    27          0.897              1.158              0.562
 Vibration    28          0.922              1.105              0.512
 Vibration    29          0.929              1.089              0.498
 Vibration    30          0.976              0.998              0.423

 Optimization completed.
    -- Stationary point found.
 Normal termination of Gaussian 16 at Sun Dec 13 17:30:20 2020.

 ----------------------------------------------------------------------
 # B3LYP/6-311++G(d,p) empiricaldispersion=gd3bj scf=xqc pop=npa geom=c
 heck
 ----------------------------------------------------------------------

 ----------------------------------------
 CID_136770310_JID_10648_Energie_neutraal
 ----------------------------------------
 Structure from the checkpoint file:  "JID_10648.chk"
 Charge =  0 Multiplicity = 1

 SCF Done:  E(RB3LYP) =  -917.934831517     A.U. after   16 cycles
 Normal termination of Gaussian 16 at Sun Dec 13 17:38:33 2020.

 ----------------------------------------------------------------------
 # B3LYP/6-311++G(d,p) empiricaldispersion=gd3bj scf=xqc pop=npa geom=c
 heck
 ----------------------------------------------------------------------

 --------------------------------------
 CID_136770310_JID_10648_Energie_kation
 --------------------------------------
 Structure from the checkpoint file:  "JID_10648.chk"
 Charge =  1 Multiplicity = 2

 SCF Done:  E(UB3LYP) =  -917.646953997     A.U. after   28 cycles
 Normal termination of Gaussian 16 at Sun Dec 13 17:57:38 2020.
 Gaussian 16:  ES64L-G16RevA.03 25-Dec-2016

 ----------------------------------------------------------------------
 # B3LYP/6-311++G(d,p) empiricaldispersion=gd3bj scf=xqc pop=npa geom=c
 heck
 ----------------------------------------------------------------------

 -------------------------------------
 CID_136770310_JID_10648_Energie_anion
 -------------------------------------
 Structure from the checkpoint file:  "JID_10648.chk"
 Charge = -1 Multiplicity = 2

                         Standard orientation:
 ---------------------------------------------------------------------
 Center     Atomic      Atomic             Coordinates (Angstroms)
 Number     Number       Type             X           Y           Z
 ---------------------------------------------------------------------
      1          6           0       -0.718390    0.603050   -2.937287
      2          6           0       -1.625710   -0.588820   -2.625140
      3          6           0       -1.251229   -1.314838   -1.315408
      4          6           0       -1.487250   -0.467040   -0.095680
      5          6           0       -0.511424    0.185683    0.616283
      6          7           0       -0.770153    1.009713    1.702688
      7          6           0       -2.007875    1.143014    2.056246
      8          7           0       -3.041689    0.522578    1.430590
      9          6           0       -2.879478   -0.316138    0.309953
     10          8           0       -3.860165   -0.832547   -0.215382
     11          6           0        0.932767    0.076214    0.268921
     12          6           0        1.642988   -1.129073    0.437298
     13          6           0        3.005503   -1.199507    0.131963
     14          6           0        3.662930   -0.062680   -0.343740
     15          6           0        2.982647    1.136960   -0.516168
     16          6           0        1.621551    1.197319   -0.203772
     17          8           0        0.913295    2.357216   -0.421187
     18          6           0        1.151124    3.385481    0.542440
     19          8           0        0.913180   -2.179283    0.912258
     20          6           0        1.562872   -3.428789    1.074890
     21          1           0       -0.750307    1.357107   -2.144630
     22          1           0       -1.015158    1.086889   -3.874995
     23          1           0        0.326749    0.286422   -3.039787
     24          1           0       -2.671679   -0.268719   -2.561871
     25          1           0       -1.572460   -1.318295   -3.443909
     26          1           0       -1.867432   -2.216139   -1.224491
     27          1           0       -0.206315   -1.628876   -1.359417
     28          1           0       -2.266902    1.780226    2.899141
     29          1           0       -3.997800    0.652113    1.742950
     30          1           0        3.555928   -2.123030    0.260739
     31          1           0        4.719516   -0.125153   -0.587898
     32          1           0        3.478218    2.019100   -0.907562
     33          1           0        0.826467    3.054325    1.534244
     34          1           0        2.211746    3.666907    0.571043
     35          1           0        0.558296    4.245130    0.222146
     36          1           0        1.959877   -3.801735    0.121981
     37          1           0        2.378842   -3.365362    1.806303
     38          1           0        0.798661   -4.115045    1.442758
 ---------------------------------------------------------------------

 SCF Done:  E(UB3LYP) =  -917.932932663     A.U. after   33 cycles
 SCF Done:  E(UB3LYP) =  -917.932932663     a.u. after    2 cycles

 The electronic state is 2-A.
 Alpha  occ. eigenvalues --  -19.03911 -19.01391 -18.93389 -14.20677 -14.15559
 Alpha  occ. eigenvalues --  -10.12406 -10.11424 -10.11136 -10.10113 -10.09630
 Alpha  occ. eigenvalues --  -10.08844 -10.05218 -10.05062 -10.04653 -10.04515
 Alpha  occ. eigenvalues --  -10.04031 -10.02831 -10.02407 -10.02230 -10.00580
 Alpha  occ. eigenvalues --   -0.95613  -0.93074  -0.89079  -0.82835  -0.74799
 Alpha  occ. eigenvalues --   -0.72715  -0.66841  -0.64661  -0.63399  -0.61253
 Alpha  occ. eigenvalues --   -0.58873  -0.57221  -0.55138  -0.51497  -0.49699
 Alpha  occ. eigenvalues --   -0.47197  -0.46496  -0.44624  -0.42052  -0.40094
 Alpha  occ. eigenvalues --   -0.38654  -0.37758  -0.36832  -0.36479  -0.36173
 Alpha  occ. eigenvalues --   -0.34286  -0.33444  -0.33127  -0.31854  -0.30733
 Alpha  occ. eigenvalues --   -0.30238  -0.29289  -0.28960  -0.27718  -0.26788
 Alpha  occ. eigenvalues --   -0.26231  -0.25999  -0.25826  -0.23507  -0.23280
 Alpha  occ. eigenvalues --   -0.22153  -0.21544  -0.20820  -0.20632  -0.19708
 Alpha  occ. eigenvalues --   -0.19409  -0.15937  -0.15741  -0.12830  -0.12047
 Alpha  occ. eigenvalues --   -0.11133  -0.10633  -0.08361   0.05555
 Alpha virt. eigenvalues --    0.07090   0.08098   0.08616   0.09355   0.09471
 Alpha virt. eigenvalues --    0.10431   0.10872   0.10915   0.11395   0.11757
 Alpha virt. eigenvalues --    0.11946   0.12009   0.12780   0.13145   0.13581

  Beta  occ. eigenvalues --  -19.03911 -19.01381 -18.93336 -14.20376 -14.15710
  Beta  occ. eigenvalues --  -10.12402 -10.11384 -10.11096 -10.10105 -10.09520
  Beta  occ. eigenvalues --  -10.08501 -10.05087 -10.05034 -10.04684 -10.04152
  Beta  occ. eigenvalues --  -10.03969 -10.02797 -10.02407 -10.02251 -10.00319
  Beta  occ. eigenvalues --   -0.95597  -0.93016  -0.88858  -0.82475  -0.74436
  Beta  occ. eigenvalues --   -0.72557  -0.66551  -0.64517  -0.63238  -0.60931
  Beta  occ. eigenvalues --   -0.58779  -0.57124  -0.54881  -0.51070  -0.49395
  Beta  occ. eigenvalues --   -0.47107  -0.46254  -0.44523  -0.41979  -0.39841
  Beta  occ. eigenvalues --   -0.38519  -0.37559  -0.36730  -0.36423  -0.36053
  Beta  occ. eigenvalues --   -0.34182  -0.33383  -0.32916  -0.31629  -0.30541
  Beta  occ. eigenvalues --   -0.30169  -0.28870  -0.28372  -0.27626  -0.26659
  Beta  occ. eigenvalues --   -0.26040  -0.25911  -0.25691  -0.23419  -0.23167
  Beta  occ. eigenvalues --   -0.21790  -0.21222  -0.20607  -0.20410  -0.19567
  Beta  occ. eigenvalues --   -0.19289  -0.15773  -0.14345  -0.12848  -0.11584
  Beta  occ. eigenvalues --   -0.10955  -0.10321  -0.06903
  Beta virt. eigenvalues --    0.07019   0.08047   0.08548   0.09227   0.09395
  Beta virt. eigenvalues --    0.10361   0.10659   0.11079   0.11224   0.11748
  Beta virt. eigenvalues --    0.11842   0.11979   0.12597   0.12891   0.13241

 Mulliken charges and spin densities:
               1          2
     1  C   -0.544562  -0.028728
     2  C   -0.382673  -0.048744
     3  C   -0.445499   0.004794
     4  C    0.768824   0.198258
     5  C   -0.428742   0.189019
     6  N   -0.077955  -0.101709
     7  C    0.199108   0.272668
     8  N   -0.275839   0.093298
     9  C   -0.012877  -0.005802
    10  O   -0.423164   0.025368
    11  C    0.214698   0.051481
    12  C   -0.161504   0.015408
    13  C   -0.078978  -0.027302
    14  C   -0.389688   0.135179
    15  C   -0.049617  -0.023637
    16  C   -0.740242   0.060155
    17  O   -0.008294   0.003026
    18  C   -0.274730  -0.000815
    19  O   -0.030007   0.002283
    20  C   -0.257282  -0.015669
    21  H    0.205430   0.000876
    22  H    0.114646   0.000648
    23  H    0.102691   0.013455
    24  H    0.170637  -0.003597
    25  H    0.022634   0.095162
    26  H    0.159096   0.030117
    27  H    0.079978   0.016358
    28  H    0.105373   0.007678
    29  H    0.294343   0.000466
    30  H    0.110553   0.016151
    31  H    0.130230  -0.009778
    32  H    0.127978   0.005472
    33  H    0.154614   0.000764
    34  H    0.106825  -0.000110
    35  H    0.113118   0.002076
    36  H    0.141160   0.002575
    37  H    0.101947   0.020720
    38  H    0.157769   0.002436
 Sum of Mulliken charges =  -1.00000   1.00000

 Dipole moment (field-independent basis, Debye):
    X=              4.6420    Y=              0.4738    Z=              1.4592  Tot=              4.8890
 Quadrupole moment (field-independent basis, Debye-Ang):
   XX=           -158.6124   YY=           -125.3892   ZZ=           -139.2312
   XY=            -11.3070   XZ=             -6.8285   YZ=             -1.5973

 Summary of Natural Population Analysis:

                                       Natural Population
                Natural  -----------------------------------------------
    Atom  No    Charge         Core      Valence    Rydberg      Total
 -----------------------------------------------------------------------
      C    1   -0.29051      0.99967     2.28649    0.00436     3.29051
      C    2   -0.18356      0.99964     2.17534    0.00857     3.18356
      C    3   -0.19999      0.99961     2.18847    0.01190     3.19999
      C    4   -0.03009      0.99941     2.02017    0.01052     3.03009
      C    5    0.16194      0.99942     1.82166    0.01698     2.83806
      N    6   -0.29490      0.99968     2.78473    0.01049     3.79490
      C    7    0.20716      0.99967     1.77783    0.01534     2.79284
      N    8   -0.26314      0.99966     2.75337    0.01010     3.76314
      C    9    0.32812      0.99959     1.65135    0.02095     2.67188
      O   10   -0.34704      0.99988     3.34078    0.00638     4.34704
      C   11   -0.04607      0.99940     2.03303    0.01364     3.04607
      C   12    0.17600      0.99935     1.81124    0.01341     2.82400
      C   13   -0.15835      0.99953     2.15157    0.00725     3.15835
      C   14   -0.07036      0.99959     2.06214    0.00863     3.07036
      C   15   -0.14680      0.99951     2.13899    0.00830     3.14680
      C   16    0.18597      0.99932     1.80062    0.01408     2.81403
      O   17   -0.28984      0.99986     3.27928    0.01070     4.28984
      C   18   -0.09609      0.99960     2.08886    0.00763     3.09609
      O   19   -0.26644      0.99985     3.25792    0.00867     4.26644
      C   20   -0.09933      0.99961     2.09167    0.00804     3.09933
      H   21    0.10910      0.00000     0.38987    0.00103     0.39090
      H   22    0.08768      0.00000     0.41152    0.00080     0.41232
      H   23    0.09328      0.00000     0.40527    0.00146     0.40672
      H   24    0.09987      0.00000     0.39896    0.00116     0.40013
      H   25    0.08366      0.00000     0.41459    0.00175     0.41634
      H   26    0.10495      0.00000     0.39366    0.00140     0.39505
      H   27    0.09748      0.00000     0.40094    0.00158     0.40252
      H   28    0.07055      0.00000     0.42799    0.00146     0.42945
      H   29    0.18877      0.00000     0.30936    0.00187     0.31123
      H   30    0.09733      0.00000     0.40161    0.00106     0.40267
      H   31    0.08974      0.00000     0.40885    0.00141     0.41026
      H   32    0.09715      0.00000     0.40144    0.00141     0.40285
      H   33    0.09658      0.00000     0.40224    0.00118     0.40342
      H   34    0.07293      0.00000     0.42583    0.00124     0.42707
      H   35    0.08294      0.00000     0.41617    0.00088     0.41706
      H   36    0.08088      0.00000     0.41782    0.00130     0.41912
      H   37    0.07965      0.00000     0.41890    0.00144     0.42035
      H   38    0.09078      0.00000     0.40843    0.00080     0.40922
 =======================================================================
   * Total *   -0.00000     19.99184    52.76897    0.23919    73.00000

 Normal termination of Gaussian 16 at Sun Dec 13 18:54:26 2020.
