 Gaussian 16, Revision A.03,

 -----------------------------------------------------------
 # opt freq B3LYP/6-31G(d) empiricaldispersion=gd3bj scf=xqc
 -----------------------------------------------------------

 -----------------------------
 CID_18970512_JID_167_neutraal
 -----------------------------
 Symbolic Z-matrix:
 Charge =  0 Multiplicity = 1

 SCF Done:  E(RB3LYP) =  -2183.91205141     A.U. after   15 cycles
 SCF Done:  E(RB3LYP) =  -2183.91495094     A.U. after   13 cycles
 SCF Done:  E(RB3LYP) =  -2183.91315297     A.U. after   13 cycles
 SCF Done:  E(RB3LYP) =  -2183.91544610     A.U. after   12 cycles
 SCF Done:  E(RB3LYP) =  -2183.91548087     A.U. after   11 cycles
 SCF Done:  E(RB3LYP) =  -2183.91548923     A.U. after   10 cycles
 SCF Done:  E(RB3LYP) =  -2183.91549092     A.U. after    9 cycles
 SCF Done:  E(RB3LYP) =  -2183.91549125     A.U. after    8 cycles
 Optimization completed.
    -- Stationary point found.
 Normal termination of Gaussian 16 at Sun Dec 13 19:53:53 2020.

 --------------------------------------------------------------------
 #N Geom=AllCheck Guess=TCheck SCRF=Check GenChk RB3LYP/6-31G(d) Freq
 --------------------------------------------------------------------

 Structure from the checkpoint file:  "JID_167.chk"
 -----------------------------
 CID_18970512_JID_167_neutraal
 -----------------------------
 Charge =  0 Multiplicity = 1

 SCF Done:  E(RB3LYP) =  -2183.91549125     A.U. after    1 cycles

  Exact polarizability: 215.287  -4.595 130.907   1.537  -0.809  72.188
 Approx polarizability: 358.649  -8.846 254.560   4.495  -5.872 123.362

                      1                      2                      3
                      A                      A                      A
 Frequencies --     53.9426               107.6500               119.4999
 Red. masses --     11.3939                11.8688                 6.5067
 Frc consts  --      0.0195                 0.0810                 0.0547
 IR Inten    --      0.6097                 0.2907                 1.0718

                      4                      5                      6
                      A                      A                      A
 Frequencies --    172.2992               246.9467               275.8540
 Red. masses --     13.8570                 4.8692                 3.8578
 Frc consts  --      0.2424                 0.1750                 0.1730
 IR Inten    --      0.2503                 0.7591                 0.6147

                      7                      8                      9
                      A                      A                      A
 Frequencies --    287.7128               303.4189               367.6578
 Red. masses --      4.5413                15.2168                14.6317
 Frc consts  --      0.2215                 0.8254                 1.1653
 IR Inten    --      1.7241                 0.3056                 3.9783

                     10                     11                     12
                      A                      A                      A
 Frequencies --    384.3272               456.4068               472.1802
 Red. masses --      6.9045                12.8834                 7.4211
 Frc consts  --      0.6009                 1.5812                 0.9748
 IR Inten    --      6.1917                 1.7800                 2.0890

                     13                     14                     15
                      A                      A                      A
 Frequencies --    495.0096               514.3738               526.6097
 Red. masses --     15.6952                24.0381                 7.5666
 Frc consts  --      2.2659                 3.7472                 1.2363
 IR Inten    --      0.4761                22.6292                 0.0598

                     16                     17                     18
                      A                      A                      A
 Frequencies --    556.3733               665.1469               782.2391
 Red. masses --      6.0537                 4.8572                 2.9574
 Frc consts  --      1.1041                 1.2661                 1.0662
 IR Inten    --      2.0672                 3.2681                 4.1551

                     19                     20                     21
                      A                      A                      A
 Frequencies --    847.3745               892.6420               947.4200
 Red. masses --      4.3545                 7.1346                 3.1855
 Frc consts  --      1.8422                 3.3494                 1.6847
 IR Inten    --     13.6338                25.4488                 3.6662

                     22                     23                     24
                      A                      A                      A
 Frequencies --    991.6005              1011.1560              1099.7612
 Red. masses --      3.1733                 2.2203                12.7183
 Frc consts  --      1.8383                 1.3375                 9.0631
 IR Inten    --      2.3982                 3.5614               358.7719

                     25                     26                     27
                      A                      A                      A
 Frequencies --   1110.9291              1202.0636              1248.7374
 Red. masses --      3.1059                 1.1200                 1.2628
 Frc consts  --      2.2584                 0.9535                 1.1601
 IR Inten    --     16.6046                 0.4768                 0.2975

                     28                     29                     30
                      A                      A                      A
 Frequencies --   1339.0952              1395.4030              1485.6809
 Red. masses --      1.2017                 1.5069                 1.0874
 Frc consts  --      1.2696                 1.7288                 1.4142
 IR Inten    --      8.6709                 3.2532                 7.6464

                     31                     32                     33
                      A                      A                      A
 Frequencies --   1498.0307              1609.9505              3038.9662
 Red. masses --      1.1127                 7.5372                 1.0607
 Frc consts  --      1.4711                11.5103                 5.7717
 IR Inten    --      1.6830                 4.0841                15.0625

                     34                     35                     36
                      A                      A                      A
 Frequencies --   3073.1750              3088.5669              3145.1104
 Red. masses --      1.0987                 1.0616                 1.1082
 Frc consts  --      6.1137                 5.9668                 6.4585
 IR Inten    --      5.0773                15.9864                 2.9624

 - Thermochemistry -
 -------------------
 Temperature   298.150 Kelvin.  Pressure   1.00000 Atm.
 Atom     1 has atomic number  6 and mass  12.00000

 Molecular mass:   223.89166 amu.
 Principal axes and moments of inertia in atomic units:
                           1         2         3
     Eigenvalues --  1137.850794441.859835427.31294
           X            0.99984  -0.01752  -0.00427
           Y            0.01756   0.99981   0.00842
           Z            0.00412  -0.00850   0.99996
 This molecule is an asymmetric top.
 Rotational symmetry number  1.
 Warning -- assumption of classical behavior for rotation
           may cause significant error
 Rotational temperatures (Kelvin)      0.07612     0.01950     0.01596
 Rotational constants (GHZ):           1.58610     0.40630     0.33253
 Zero-point vibrational energy     214211.2 (Joules/Mol)
                                   51.19770 (Kcal/Mol)
 Warning -- explicit consideration of  16 degrees of freedom as
           vibrations may cause significant error
 Vibrational temperatures:     77.61   154.88   171.93   247.90   355.30
          (Kelvin)            396.89   413.95   436.55   528.98   552.96
                              656.67   679.36   712.21   740.07   757.67
                              800.50   957.00  1125.47  1219.18  1284.31
                             1363.13  1426.69  1454.83  1582.31  1598.38
                             1729.50  1796.65  1926.66  2007.67  2137.56
                             2155.33  2316.36  4372.39  4421.61  4443.76
                             4525.11

 Zero-point correction=                           0.081589 (Hartree/Particle)
 Thermal correction to Energy=                    0.091629
 Thermal correction to Enthalpy=                  0.092573
 Thermal correction to Gibbs Free Energy=         0.044586
 Sum of electronic and zero-point Energies=          -2183.833903
 Sum of electronic and thermal Energies=             -2183.823862
 Sum of electronic and thermal Enthalpies=           -2183.822918
 Sum of electronic and thermal Free Energies=        -2183.870906

                     E (Thermal)             CV                S
                      KCal/Mol        Cal/Mol-Kelvin    Cal/Mol-Kelvin
 Total                   57.498             36.263            100.998
 Electronic               0.000              0.000              0.000
 Translational            0.889              2.981             42.121
 Rotational               0.889              2.981             31.684
 Vibrational             55.721             30.302             27.193
 Vibration     1          0.596              1.976              4.667
 Vibration     2          0.606              1.943              3.311
 Vibration     3          0.609              1.933              3.108
 Vibration     4          0.626              1.877              2.410
 Vibration     5          0.661              1.768              1.752
 Vibration     6          0.677              1.718              1.559
 Vibration     7          0.685              1.697              1.487
 Vibration     8          0.695              1.667              1.398
 Vibration     9          0.740              1.539              1.090
 Vibration    10          0.753              1.504              1.022
 Vibration    11          0.815              1.347              0.777
 Vibration    12          0.829              1.312              0.731
 Vibration    13          0.851              1.261              0.671
 Vibration    14          0.869              1.218              0.623
 Vibration    15          0.882              1.191              0.595
 Vibration    16          0.912              1.126              0.531

 Optimization completed.
    -- Stationary point found.
 Normal termination of Gaussian 16 at Sun Dec 13 19:56:13 2020.

 ----------------------------------------------------------------------
 # B3LYP/6-311++G(d,p) empiricaldispersion=gd3bj scf=xqc pop=npa geom=c
 heck
 ----------------------------------------------------------------------

 -------------------------------------
 CID_18970512_JID_167_Energie_neutraal
 -------------------------------------
 Structure from the checkpoint file:  "JID_167.chk"
 Charge =  0 Multiplicity = 1

 SCF Done:  E(RB3LYP) =  -2184.09642628     A.U. after   15 cycles
 Normal termination of Gaussian 16 at Sun Dec 13 19:57:13 2020.

 ----------------------------------------------------------------------
 # B3LYP/6-311++G(d,p) empiricaldispersion=gd3bj scf=xqc pop=npa geom=c
 heck
 ----------------------------------------------------------------------

 -----------------------------------
 CID_18970512_JID_167_Energie_kation
 -----------------------------------
 Structure from the checkpoint file:  "JID_167.chk"
 Charge =  1 Multiplicity = 2

 SCF Done:  E(UB3LYP) =  -2183.80816774     A.U. after   26 cycles
 Normal termination of Gaussian 16 at Sun Dec 13 19:59:15 2020.
 Gaussian 16:  ES64L-G16RevA.03 25-Dec-2016

 ----------------------------------------------------------------------
 # B3LYP/6-311++G(d,p) empiricaldispersion=gd3bj scf=xqc pop=npa geom=c
 heck
 ----------------------------------------------------------------------

 ----------------------------------
 CID_18970512_JID_167_Energie_anion
 ----------------------------------
 Structure from the checkpoint file:  "JID_167.chk"
 Charge = -1 Multiplicity = 2

                         Standard orientation:
 ---------------------------------------------------------------------
 Center     Atomic      Atomic             Coordinates (Angstroms)
 Number     Number       Type             X           Y           Z
 ---------------------------------------------------------------------
      1          6           0       -1.395009    1.824381    0.128999
      2          6           0       -2.775481    1.247932    0.453237
      3         16           0       -3.174441   -0.210992   -0.592057
      4         16           0       -1.796505   -1.511405    0.296943
      5          6           0       -0.325552   -0.525063    0.134968
      6          6           0       -0.261787    0.825034    0.099376
      7         16           0        1.363918    1.498216   -0.044832
      8          6           0        2.268118   -0.013406   -0.033866
      9         16           0        3.906650   -0.113992   -0.111303
     10         16           0        1.196739   -1.413487    0.046337
     11          1           0       -1.433263    2.333049   -0.842447
     12          1           0       -1.167625    2.597453    0.875868
     13          1           0       -3.547976    1.995100    0.247905
     14          1           0       -2.854644    0.947676    1.500980
 ---------------------------------------------------------------------

 SCF Done:  E(UB3LYP) =  -2184.12328835     A.U. after   27 cycles

 The electronic state is 2-A.
 Alpha  occ. eigenvalues --  -88.75278 -88.74644 -88.74407 -88.73748 -88.66245
 Alpha  occ. eigenvalues --  -10.11086 -10.11007 -10.10319 -10.08958 -10.08831
 Alpha  occ. eigenvalues --   -7.83823  -7.83179  -7.83042  -7.82332  -7.74986
 Alpha  occ. eigenvalues --   -5.80180  -5.79762  -5.79622  -5.79394  -5.79316
 Alpha  occ. eigenvalues --   -5.79233  -5.78993  -5.78772  -5.78554  -5.78506
 Alpha  occ. eigenvalues --   -5.78411  -5.77644  -5.71342  -5.70892  -5.70553
 Alpha  occ. eigenvalues --   -0.77138  -0.71842  -0.67641  -0.64969  -0.61708
 Alpha  occ. eigenvalues --   -0.57196  -0.52203  -0.50361  -0.41214  -0.39923
 Alpha  occ. eigenvalues --   -0.35794  -0.35410  -0.31655  -0.29682  -0.27921
 Alpha  occ. eigenvalues --   -0.27229  -0.26286  -0.23899  -0.23410  -0.21960
 Alpha  occ. eigenvalues --   -0.20409  -0.19013  -0.15711  -0.14330  -0.11017
 Alpha  occ. eigenvalues --   -0.08195  -0.07672   0.02722
 Alpha virt. eigenvalues --    0.05462   0.07537   0.09862   0.10247   0.10606
 Alpha virt. eigenvalues --    0.11040   0.11412   0.12764   0.13435   0.13833
 Alpha virt. eigenvalues --    0.14065   0.14925   0.15216   0.15579   0.15658

  Beta  occ. eigenvalues --  -88.75288 -88.74553 -88.74369 -88.73640 -88.66185
  Beta  occ. eigenvalues --  -10.11160 -10.10363 -10.10320 -10.08846 -10.08810
  Beta  occ. eigenvalues --   -7.83829  -7.83085  -7.83007  -7.82224  -7.74932
  Beta  occ. eigenvalues --   -5.80195  -5.79776  -5.79442  -5.79385  -5.79331
  Beta  occ. eigenvalues --   -5.79121  -5.78985  -5.78518  -5.78445  -5.78408
  Beta  occ. eigenvalues --   -5.78310  -5.77570  -5.71329  -5.70690  -5.70514
  Beta  occ. eigenvalues --   -0.76855  -0.71442  -0.67386  -0.64424  -0.61493
  Beta  occ. eigenvalues --   -0.56889  -0.51994  -0.50031  -0.40532  -0.39745
  Beta  occ. eigenvalues --   -0.35625  -0.35251  -0.31269  -0.29504  -0.27552
  Beta  occ. eigenvalues --   -0.26991  -0.25858  -0.23305  -0.22860  -0.21335
  Beta  occ. eigenvalues --   -0.20156  -0.18208  -0.15049  -0.13791  -0.10637
  Beta  occ. eigenvalues --   -0.08064  -0.06872
  Beta virt. eigenvalues --    0.06709   0.07664   0.08831   0.09983   0.10290
  Beta virt. eigenvalues --    0.10727   0.11266   0.11524   0.12915   0.13505
  Beta virt. eigenvalues --    0.13956   0.14126   0.14941   0.15255   0.15608

 Mulliken charges and spin densities:
               1          2
     1  C   -0.624949   0.160784
     2  C   -0.156529  -0.167513
     3  S    0.002795   0.152565
     4  S   -0.919766   0.246805
     5  C    0.573780  -0.107247
     6  C    0.806389  -0.038770
     7  S   -0.724435   0.113253
     8  C    0.865358   0.256861
     9  S   -0.678339   0.195444
    10  S   -0.611732   0.024452
    11  H    0.064968   0.069469
    12  H    0.119768   0.003702
    13  H    0.107755   0.084673
    14  H    0.174936   0.005522
 Sum of Mulliken charges =  -1.00000   1.00000

 Dipole moment (field-independent basis, Debye):
    X=             -5.9372    Y=              2.1444    Z=              1.1279  Tot=              6.4126
 Quadrupole moment (field-independent basis, Debye-Ang):
   XX=           -155.5891   YY=           -106.9074   ZZ=           -105.6946
   XY=             -5.1048   XZ=             -3.3036   YZ=              1.9794

 Summary of Natural Population Analysis:

                                       Natural Population
                Natural  -----------------------------------------------
    Atom  No    Charge         Core      Valence    Rydberg      Total
 -----------------------------------------------------------------------
      C    1   -0.20790      0.99957     2.19757    0.01076     3.20790
      C    2   -0.25470      0.99960     2.24166    0.01344     3.25470
      S    3    0.06450      4.99969     2.91283    0.02298     7.93550
      S    4    0.10023      4.99950     2.87730    0.02296     7.89977
      C    5   -0.21484      0.99927     2.20154    0.01403     3.21484
      C    6   -0.09733      0.99931     2.08455    0.01347     3.09733
      S    7    0.21053      4.99932     2.76775    0.02241     7.78947
      C    8   -0.17224      0.99978     2.15639    0.01607     3.17224
      S    9   -0.04832      4.99943     3.03101    0.01789     8.04832
      S   10    0.20209      4.99929     2.77587    0.02274     7.79791
      H   11    0.10731      0.00000     0.39066    0.00203     0.39269
      H   12    0.10486      0.00000     0.39395    0.00119     0.39514
      H   13    0.10300      0.00000     0.39523    0.00177     0.39700
      H   14    0.10281      0.00000     0.39599    0.00120     0.39719
 =======================================================================
   * Total *   -0.00000     29.99476    26.82230    0.18294    57.00000

 Normal termination of Gaussian 16 at Sun Dec 13 20:01:20 2020.
