 Gaussian 16, Revision A.03,

 -----------------------------------------------------------
 # opt freq B3LYP/6-31G(d) empiricaldispersion=gd3bj scf=xqc
 -----------------------------------------------------------

 ------------------------------
 CID_82476040_JID_7145_neutraal
 ------------------------------
 Symbolic Z-matrix:
 Charge =  0 Multiplicity = 1

 SCF Done:  E(RB3LYP) =  -731.522585306     A.U. after   14 cycles
 SCF Done:  E(RB3LYP) =  -731.528459434     A.U. after   12 cycles
 SCF Done:  E(RB3LYP) =  -731.529349817     A.U. after   11 cycles
 SCF Done:  E(RB3LYP) =  -731.530082034     A.U. after   13 cycles
 SCF Done:  E(RB3LYP) =  -731.530836541     A.U. after   12 cycles
 SCF Done:  E(RB3LYP) =  -731.531299326     A.U. after   11 cycles
 SCF Done:  E(RB3LYP) =  -731.531572284     A.U. after   11 cycles
 SCF Done:  E(RB3LYP) =  -731.531654639     A.U. after   10 cycles
 SCF Done:  E(RB3LYP) =  -731.531680102     A.U. after   11 cycles
 SCF Done:  E(RB3LYP) =  -731.531688762     A.U. after    9 cycles
 SCF Done:  E(RB3LYP) =  -731.531754771     A.U. after   10 cycles
 SCF Done:  E(RB3LYP) =  -731.531766279     A.U. after   10 cycles
 SCF Done:  E(RB3LYP) =  -731.531766827     A.U. after    8 cycles
 SCF Done:  E(RB3LYP) =  -731.531766432     A.U. after    9 cycles
 SCF Done:  E(RB3LYP) =  -731.531766716     A.U. after    8 cycles
 Optimization completed.
    -- Stationary point found.
 Normal termination of Gaussian 16 at Mon Dec 14 13:29:03 2020.

 --------------------------------------------------------------------
 #N Geom=AllCheck Guess=TCheck SCRF=Check GenChk RB3LYP/6-31G(d) Freq
 --------------------------------------------------------------------

 Structure from the checkpoint file:  "JID_7145.chk"
 ------------------------------
 CID_82476040_JID_7145_neutraal
 ------------------------------
 Charge =  0 Multiplicity = 1

 SCF Done:  E(RB3LYP) =  -731.531766716     A.U. after    1 cycles

  Exact polarizability: 184.431   1.512 173.225  19.858  -4.555 120.698
 Approx polarizability: 240.519   6.115 278.884  38.307 -12.952 184.872

                      1                      2                      3
                      A                      A                      A
 Frequencies --     17.4668                30.5497                39.1679
 Red. masses --      3.1290                 4.1026                 4.4303
 Frc consts  --      0.0006                 0.0023                 0.0040
 IR Inten    --      0.0727                 0.1741                 0.5272

                      4                      5                      6
                      A                      A                      A
 Frequencies --     77.4501               110.2507               147.3204
 Red. masses --      3.8884                 4.2078                 2.8569
 Frc consts  --      0.0137                 0.0301                 0.0365
 IR Inten    --      0.7595                 0.0832                 1.3332

                      7                      8                      9
                      A                      A                      A
 Frequencies --    193.1641               215.0184               226.7853
 Red. masses --      4.9121                 2.9241                 2.9081
 Frc consts  --      0.1080                 0.0797                 0.0881
 IR Inten    --      0.2952                 0.4246                 2.3701

                     10                     11                     12
                      A                      A                      A
 Frequencies --    231.9881               243.4722               272.3735
 Red. masses --      2.1930                 2.9095                 3.1234
 Frc consts  --      0.0695                 0.1016                 0.1365
 IR Inten    --      4.4759                 2.6596                14.2055

                     13                     14                     15
                      A                      A                      A
 Frequencies --    299.5554               328.6082               338.5860
 Red. masses --      1.0488                 1.3719                 1.8252
 Frc consts  --      0.0554                 0.0873                 0.1233
 IR Inten    --     14.9549                99.4338                 6.5153

                     16                     17                     18
                      A                      A                      A
 Frequencies --    357.6912               378.7417               427.2588
 Red. masses --      3.1267                 2.7399                 3.0454
 Frc consts  --      0.2357                 0.2316                 0.3275
 IR Inten    --     33.5792                 0.0306                 2.8094

                     19                     20                     21
                      A                      A                      A
 Frequencies --    438.2636               449.8501               455.3384
 Red. masses --      2.9152                 3.3628                 2.0239
 Frc consts  --      0.3299                 0.4009                 0.2472
 IR Inten    --      3.4673                 5.5567                 1.5860

                     22                     23                     24
                      A                      A                      A
 Frequencies --    474.0051               536.9113               542.6332
 Red. masses --      2.7086                 6.1674                 1.9338
 Frc consts  --      0.3586                 1.0475                 0.3355
 IR Inten    --     12.8531                13.7740                 5.5309

                     25                     26                     27
                      A                      A                      A
 Frequencies --    561.9877               598.8749               636.4093
 Red. masses --      3.6013                 1.6557                 3.4646
 Frc consts  --      0.6701                 0.3499                 0.8267
 IR Inten    --      4.7480               223.3071                27.8639

                     28                     29                     30
                      A                      A                      A
 Frequencies --    654.3951               685.4658               717.6116
 Red. masses --      2.3947                 1.6657                 2.3198
 Frc consts  --      0.6042                 0.4611                 0.7039
 IR Inten    --     98.2186               111.6210                 7.4622

                     31                     32                     33
                      A                      A                      A
 Frequencies --    752.4469               798.5994               799.7012
 Red. masses --      3.7004                 1.6005                 1.5163
 Frc consts  --      1.2344                 0.6014                 0.5713
 IR Inten    --      1.7029                 8.7771                32.2942

                     34                     35                     36
                      A                      A                      A
 Frequencies --    812.4725               857.4749               867.5362
 Red. masses --      1.9427                 2.2766                 1.4662
 Frc consts  --      0.7556                 0.9862                 0.6501
 IR Inten    --      8.0840                 3.4302                15.6021

                     37                     38                     39
                      A                      A                      A
 Frequencies --    884.2721               900.8132               910.8474
 Red. masses --      1.3760                 1.7479                 1.8477
 Frc consts  --      0.6339                 0.8357                 0.9032
 IR Inten    --      1.4506                 3.1717                 9.3426

                     40                     41                     42
                      A                      A                      A
 Frequencies --    922.9636               941.0029               967.2590
 Red. masses --      2.6358                 1.5972                 1.2733
 Frc consts  --      1.3229                 0.8333                 0.7019
 IR Inten    --      4.7057                 0.5685                 1.2470

                     43                     44                     45
                      A                      A                      A
 Frequencies --    970.6308               993.6035              1016.2417
 Red. masses --      2.3376                 2.5110                 6.0330
 Frc consts  --      1.2976                 1.4606                 3.6709
 IR Inten    --      8.4791                53.0101                 2.8056

                     46                     47                     48
                      A                      A                      A
 Frequencies --   1032.9015              1045.3418              1068.7122
 Red. masses --      2.1483                 1.7848                 1.3870
 Frc consts  --      1.3504                 1.1491                 0.9333
 IR Inten    --     18.6302                 0.8162                 0.8526

                     49                     50                     51
                      A                      A                      A
 Frequencies --   1081.7921              1099.9209              1108.1728
 Red. masses --      2.5710                 1.1565                 2.7422
 Frc consts  --      1.7727                 0.8244                 1.9841
 IR Inten    --     33.5386                 0.2754                 0.7297

                     52                     53                     54
                      A                      A                      A
 Frequencies --   1111.5189              1119.5759              1146.9171
 Red. masses --      2.2026                 2.6906                 1.3800
 Frc consts  --      1.6034                 1.9870                 1.0695
 IR Inten    --     10.5452                16.0697                 3.4016

                     55                     56                     57
                      A                      A                      A
 Frequencies --   1161.6697              1188.3586              1199.6094
 Red. masses --      1.7450                 2.3900                 1.3343
 Frc consts  --      1.3874                 1.9886                 1.1313
 IR Inten    --     59.6588                17.8039                 5.5666

                     58                     59                     60
                      A                      A                      A
 Frequencies --   1204.6386              1219.8362              1251.0292
 Red. masses --      1.4500                 1.5468                 1.4118
 Frc consts  --      1.2397                 1.3560                 1.3018
 IR Inten    --      1.9677                 4.8408                14.6945

                     61                     62                     63
                      A                      A                      A
 Frequencies --   1270.7019              1297.8336              1301.2291
 Red. masses --      1.2013                 1.2277                 1.2780
 Frc consts  --      1.1429                 1.2184                 1.2749
 IR Inten    --     19.7040                 4.5354                 3.6981

                     64                     65                     66
                      A                      A                      A
 Frequencies --   1309.3116              1333.7482              1340.7015
 Red. masses --      1.3726                 1.9794                 2.0678
 Frc consts  --      1.3864                 2.0746                 2.1899
 IR Inten    --      4.3352                27.2737                14.8113

                     67                     68                     69
                      A                      A                      A
 Frequencies --   1349.7684              1363.4304              1368.5815
 Red. masses --      1.3125                 1.2569                 1.9029
 Frc consts  --      1.4088                 1.3766                 2.0999
 IR Inten    --      1.4355                 3.0888                 7.0836

                     70                     71                     72
                      A                      A                      A
 Frequencies --   1383.4475              1385.8561              1392.8461
 Red. masses --      1.5519                 1.4667                 1.3566
 Frc consts  --      1.7500                 1.6597                 1.5506
 IR Inten    --      9.5472                 3.1991                 4.0226

                     73                     74                     75
                      A                      A                      A
 Frequencies --   1399.7999              1402.5253              1407.0227
 Red. masses --      1.4793                 1.5348                 1.5670
 Frc consts  --      1.7078                 1.7788                 1.8277
 IR Inten    --      0.6115                14.3571                40.7812

                     76                     77                     78
                      A                      A                      A
 Frequencies --   1411.8405              1425.7827              1508.9818
 Red. masses --      1.3685                 1.4330                 1.1565
 Frc consts  --      1.6072                 1.7164                 1.5516
 IR Inten    --     17.1534                 2.1397                 5.8419

                     79                     80                     81
                      A                      A                      A
 Frequencies --   1510.9765              1514.8540              1515.2667
 Red. masses --      1.6143                 1.1630                 1.3023
 Frc consts  --      2.1714                 1.5725                 1.7617
 IR Inten    --     18.6178                 5.2423                 4.4027

                     82                     83                     84
                      A                      A                      A
 Frequencies --   1517.9602              1521.5550              1530.1273
 Red. masses --      1.1049                 1.0934                 1.2426
 Frc consts  --      1.4999                 1.4915                 1.7141
 IR Inten    --      1.7174                 5.6856                62.6441

                     85                     86                     87
                      A                      A                      A
 Frequencies --   1536.9282              1547.6484              1649.2750
 Red. masses --      1.1169                 2.5159                 5.4800
 Frc consts  --      1.5545                 3.5505                 8.7824
 IR Inten    --      7.3892                28.0987                17.9655

                     88                     89                     90
                      A                      A                      A
 Frequencies --   1668.9139              1695.1010              3000.2104
 Red. masses --      3.9443                 1.2662                 1.0758
 Frc consts  --      6.4728                 2.1436                 5.7051
 IR Inten    --     43.5231               108.5463                 4.0613

                     91                     92                     93
                      A                      A                      A
 Frequencies --   3007.6211              3018.1897              3019.3323
 Red. masses --      1.0735                 1.0761                 1.0710
 Frc consts  --      5.7214                 5.7758                 5.7527
 IR Inten    --      8.7505                74.8700                13.6779

                     94                     95                     96
                      A                      A                      A
 Frequencies --   3021.5766              3025.8189              3030.1212
 Red. masses --      1.0738                 1.0651                 1.0619
 Frc consts  --      5.7764                 5.7453                 5.7444
 IR Inten    --      9.7916                10.1698                82.5901

                     97                     98                     99
                      A                      A                      A
 Frequencies --   3038.4089              3070.7702              3072.6430
 Red. masses --      1.0674                 1.0983                 1.0928
 Frc consts  --      5.8059                 6.1019                 6.0789
 IR Inten    --     71.7050                54.6300                74.2343

                    100                    101                    102
                      A                      A                      A
 Frequencies --   3077.2240              3087.4217              3094.3552
 Red. masses --      1.1027                 1.0947                 1.0933
 Frc consts  --      6.1524                 6.1478                 6.1678
 IR Inten    --     63.2792                36.0937                33.5991

                    103                    104                    105
                      A                      A                      A
 Frequencies --   3096.0062              3172.7624              3175.5962
 Red. masses --      1.0996                 1.0889                 1.0870
 Frc consts  --      6.2098                 6.4583                 6.4582
 IR Inten    --     49.9580                16.8803                12.5271

                    106                    107                    108
                      A                      A                      A
 Frequencies --   3194.3658              3218.7275              3507.4013
 Red. masses --      1.0922                 1.0929                 1.0732
 Frc consts  --      6.5664                 6.6709                 7.7783
 IR Inten    --     24.7344                 7.0039                 3.5818

                    109                    110                    111
                      A                      A                      A
 Frequencies --   3551.0790              3649.8831              3737.9701
 Red. masses --      1.0479                 1.0981                 1.0662
 Frc consts  --      7.7852                 8.6190                 8.7774
 IR Inten    --     10.4057                 8.5055                12.1782

 - Thermochemistry -
 -------------------
 Temperature   298.150 Kelvin.  Pressure   1.00000 Atm.
 Atom     1 has atomic number  6 and mass  12.00000

 Molecular mass:   234.17321 amu.
 Principal axes and moments of inertia in atomic units:
                           1         2         3
     Eigenvalues --  2603.218786928.490818243.79967
           X            0.99998  -0.00516   0.00461
           Y            0.00517   0.99999  -0.00069
           Z           -0.00461   0.00071   0.99999
 This molecule is an asymmetric top.
 Rotational symmetry number  1.
 Warning -- assumption of classical behavior for rotation
           may cause significant error
 Rotational temperatures (Kelvin)      0.03327     0.01250     0.01051
 Rotational constants (GHZ):           0.69327     0.26048     0.21892
 Zero-point vibrational energy     914261.3 (Joules/Mol)
                                  218.51370 (Kcal/Mol)
 Warning -- explicit consideration of  26 degrees of freedom as
           vibrations may cause significant error
 Vibrational temperatures:     25.13    43.95    56.35   111.43   158.63
          (Kelvin)            211.96   277.92   309.36   326.29   333.78
                              350.30   391.88   430.99   472.79   487.15
                              514.64   544.92   614.73   630.56   647.23
                              655.13   681.99   772.50   780.73   808.57
                              861.65   915.65   941.53   986.23  1032.48
                             1082.60  1149.01  1150.59  1168.97  1233.72
                             1248.19  1272.27  1296.07  1310.51  1327.94
                             1353.89  1391.67  1396.52  1429.57  1462.15
                             1486.11  1504.01  1537.64  1556.46  1582.54
                             1594.41  1599.23  1610.82  1650.16  1671.38
                             1709.78  1725.97  1733.21  1755.07  1799.95
                             1828.26  1867.29  1872.18  1883.81  1918.97
                             1928.97  1942.02  1961.67  1969.08  1990.47
                             1993.94  2003.99  2014.00  2017.92  2024.39
                             2031.32  2051.38  2171.09  2173.96  2179.54
                             2180.13  2184.01  2189.18  2201.51  2211.30
                             2226.72  2372.94  2401.19  2438.87  4316.63
                             4327.30  4342.50  4344.15  4347.37  4353.48
                             4359.67  4371.59  4418.15  4420.85  4427.44
                             4442.11  4452.09  4454.46  4564.90  4568.97
                             4595.98  4631.03  5046.37  5109.21  5251.37
                             5378.11

 Zero-point correction=                           0.348224 (Hartree/Particle)
 Thermal correction to Energy=                    0.364749
 Thermal correction to Enthalpy=                  0.365693
 Thermal correction to Gibbs Free Energy=         0.302984
 Sum of electronic and zero-point Energies=           -731.183543
 Sum of electronic and thermal Energies=              -731.167018
 Sum of electronic and thermal Enthalpies=            -731.166074
 Sum of electronic and thermal Free Energies=         -731.228782

                     E (Thermal)             CV                S
                      KCal/Mol        Cal/Mol-Kelvin    Cal/Mol-Kelvin
 Total                  228.883             65.670            131.981
 Electronic               0.000              0.000              0.000
 Translational            0.889              2.981             42.254
 Rotational               0.889              2.981             33.363
 Vibrational            227.106             59.708             56.363
 Vibration     1          0.593              1.986              6.903
 Vibration     2          0.594              1.984              5.793
 Vibration     3          0.594              1.981              5.301
 Vibration     4          0.599              1.964              3.954
 Vibration     5          0.606              1.941              3.264
 Vibration     6          0.617              1.906              2.707
 Vibration     7          0.635              1.849              2.197
 Vibration     8          0.645              1.818              2.001
 Vibration     9          0.650              1.800              1.904
 Vibration    10          0.653              1.792              1.864
 Vibration    11          0.659              1.774              1.777
 Vibration    12          0.675              1.724              1.581
 Vibration    13          0.692              1.675              1.419
 Vibration    14          0.712              1.618              1.267
 Vibration    15          0.719              1.598              1.219
 Vibration    16          0.733              1.559              1.132
 Vibration    17          0.749              1.515              1.044
 Vibration    18          0.789              1.411              0.868
 Vibration    19          0.798              1.387              0.832
 Vibration    20          0.809              1.361              0.796
 Vibration    21          0.814              1.349              0.780
 Vibration    22          0.831              1.308              0.726
 Vibration    23          0.892              1.168              0.572
 Vibration    24          0.898              1.156              0.560
 Vibration    25          0.918              1.114              0.520
 Vibration    26          0.957              1.034              0.452

 Optimization completed.
    -- Stationary point found.
 Normal termination of Gaussian 16 at Mon Dec 14 13:44:15 2020.

 ----------------------------------------------------------------------
 # B3LYP/6-311++G(d,p) empiricaldispersion=gd3bj scf=xqc pop=npa geom=c
 heck
 ----------------------------------------------------------------------

 --------------------------------------
 CID_82476040_JID_7145_Energie_neutraal
 --------------------------------------
 Structure from the checkpoint file:  "JID_7145.chk"
 Charge =  0 Multiplicity = 1

 SCF Done:  E(RB3LYP) =  -731.748890303     A.U. after   15 cycles
 Normal termination of Gaussian 16 at Mon Dec 14 13:52:29 2020.

 ----------------------------------------------------------------------
 # B3LYP/6-311++G(d,p) empiricaldispersion=gd3bj scf=xqc pop=npa geom=c
 heck
 ----------------------------------------------------------------------

 ------------------------------------
 CID_82476040_JID_7145_Energie_kation
 ------------------------------------
 Structure from the checkpoint file:  "JID_7145.chk"
 Charge =  1 Multiplicity = 2

 SCF Done:  E(UB3LYP) =  -731.476364603     A.U. after   22 cycles
 Normal termination of Gaussian 16 at Mon Dec 14 14:10:00 2020.
 Gaussian 16:  ES64L-G16RevA.03 25-Dec-2016

 ----------------------------------------------------------------------
 # B3LYP/6-311++G(d,p) empiricaldispersion=gd3bj scf=xqc pop=npa geom=c
 heck
 ----------------------------------------------------------------------

 -----------------------------------
 CID_82476040_JID_7145_Energie_anion
 -----------------------------------
 Structure from the checkpoint file:  "JID_7145.chk"
 Charge = -1 Multiplicity = 2

                         Standard orientation:
 ---------------------------------------------------------------------
 Center     Atomic      Atomic             Coordinates (Angstroms)
 Number     Number       Type             X           Y           Z
 ---------------------------------------------------------------------
      1          6           0       -4.252779    1.180644   -0.484732
      2          6           0       -3.586360    0.132466   -1.383561
      3          6           0       -2.149075   -0.162883   -0.930762
      4          6           0       -2.086793   -0.604281    0.547813
      5          6           0       -2.772409    0.443297    1.437128
      6          6           0       -4.206168    0.748316    0.986086
      7          7           0       -0.760381   -0.874922    1.094883
      8          6           0        0.010767   -1.980721    0.555230
      9          6           0        0.957965   -1.668657   -0.627899
     10          6           0        1.948767   -0.580103   -0.269659
     11          6           0        1.694562    0.744329   -0.631495
     12          6           0        2.565918    1.779806   -0.256094
     13          6           0        3.710016    1.458712    0.491517
     14          6           0        3.964754    0.136366    0.846481
     15          6           0        3.093490   -0.887120    0.476263
     16          7           0        2.331319    3.091630   -0.676794
     17          8           0        1.599730   -2.909660   -0.920585
     18          1           0       -5.289224    1.352354   -0.800733
     19          1           0       -3.726037    2.140009   -0.596934
     20          1           0       -4.172147   -0.797716   -1.346415
     21          1           0       -3.593084    0.462259   -2.429951
     22          1           0       -1.534006    0.742098   -1.050509
     23          1           0       -1.708600   -0.933813   -1.572867
     24          1           0       -2.655786   -1.542698    0.635038
     25          1           0       -2.178556    1.370864    1.403239
     26          1           0       -2.750156    0.094026    2.474945
     27          1           0       -4.645766    1.522212    1.627437
     28          1           0       -4.823567   -0.152424    1.115519
     29          1           0       -0.200529   -0.026338    1.136544
     30          1           0        0.643615   -2.405089    1.346221
     31          1           0       -0.678106   -2.772704    0.240518
     32          1           0        0.365838   -1.335923   -1.492208
     33          1           0        0.817983    0.977247   -1.232342
     34          1           0        4.399385    2.247777    0.782458
     35          1           0        4.855225   -0.095009    1.425026
     36          1           0        3.288311   -1.917238    0.754782
     37          1           0        2.758587    3.804843   -0.099043
     38          1           0        1.361529    3.307454   -0.871562
     39          1           0        2.314746   -2.722908   -1.549000
 ---------------------------------------------------------------------

 SCF Done:  E(UB3LYP) =  -731.739292651     A.U. after   33 cycles
 SCF Done:  E(UB3LYP) =  -731.739292651     a.u. after    1 cycles

 The electronic state is 2-A.
 Alpha  occ. eigenvalues --  -19.04133 -14.21349 -14.19978 -10.13480 -10.12027
 Alpha  occ. eigenvalues --  -10.10457 -10.10256 -10.08805 -10.08373 -10.07467
 Alpha  occ. eigenvalues --  -10.07429 -10.07357 -10.07355 -10.07177 -10.07048
 Alpha  occ. eigenvalues --  -10.06889 -10.06873  -0.94368  -0.82033  -0.81569
 Alpha  occ. eigenvalues --   -0.75006  -0.73095  -0.67818  -0.65103  -0.64659
 Alpha  occ. eigenvalues --   -0.63451  -0.60700  -0.54094  -0.52015  -0.51623
 Alpha  occ. eigenvalues --   -0.51045  -0.48631  -0.46746  -0.43920  -0.42204
 Alpha  occ. eigenvalues --   -0.40805  -0.40138  -0.38156  -0.36931  -0.36193
 Alpha  occ. eigenvalues --   -0.35405  -0.34893  -0.34230  -0.33295  -0.33065
 Alpha  occ. eigenvalues --   -0.32350  -0.30910  -0.29187  -0.28904  -0.28748
 Alpha  occ. eigenvalues --   -0.28222  -0.27281  -0.26118  -0.25212  -0.25020
 Alpha  occ. eigenvalues --   -0.24386  -0.23062  -0.22345  -0.21751  -0.21297
 Alpha  occ. eigenvalues --   -0.19745  -0.15913  -0.12718  -0.11421   0.04149
 Alpha virt. eigenvalues --    0.06054   0.06498   0.07045   0.07279   0.07929
 Alpha virt. eigenvalues --    0.08038   0.08634   0.08880   0.09362   0.10043
 Alpha virt. eigenvalues --    0.10389   0.10629   0.11113   0.11472   0.12236

  Beta  occ. eigenvalues --  -19.04127 -14.21269 -14.19973 -10.13477 -10.12022
  Beta  occ. eigenvalues --  -10.10457 -10.10255 -10.08805 -10.08369 -10.07460
  Beta  occ. eigenvalues --  -10.07413 -10.07345 -10.07337 -10.07174 -10.07027
  Beta  occ. eigenvalues --  -10.06879 -10.06859  -0.94354  -0.81956  -0.81552
  Beta  occ. eigenvalues --   -0.74971  -0.73073  -0.67799  -0.65079  -0.64636
  Beta  occ. eigenvalues --   -0.63398  -0.60678  -0.54073  -0.51980  -0.51586
  Beta  occ. eigenvalues --   -0.51013  -0.48587  -0.46702  -0.43872  -0.42175
  Beta  occ. eigenvalues --   -0.40751  -0.40103  -0.38094  -0.36908  -0.36159
  Beta  occ. eigenvalues --   -0.35383  -0.34870  -0.34204  -0.33271  -0.33029
  Beta  occ. eigenvalues --   -0.32327  -0.30889  -0.29161  -0.28881  -0.28730
  Beta  occ. eigenvalues --   -0.28197  -0.27268  -0.26093  -0.25182  -0.24986
  Beta  occ. eigenvalues --   -0.24369  -0.23032  -0.22319  -0.21719  -0.21275
  Beta  occ. eigenvalues --   -0.19732  -0.15900  -0.12708  -0.11375
  Beta virt. eigenvalues --    0.06138   0.06535   0.07218   0.07289   0.07629
  Beta virt. eigenvalues --    0.08175   0.08371   0.08903   0.09046   0.09628
  Beta virt. eigenvalues --    0.10310   0.10664   0.10833   0.11342   0.11628

 Mulliken charges and spin densities:
               1          2
     1  C    0.319115  -0.680365
     2  C   -0.282657  -0.409745
     3  C    0.234185  -0.041291
     4  C   -0.870155   0.064118
     5  C    0.032554  -0.026076
     6  C   -0.438398  -0.051633
     7  N    0.130311  -0.003627
     8  C   -0.026321  -0.251171
     9  C    0.715458  -0.874390
    10  C    0.241061   0.168617
    11  C   -1.121709   0.859290
    12  C    0.310118  -0.513499
    13  C    0.953380  -1.068787
    14  C   -0.212032  -0.222064
    15  C   -0.095570  -0.139518
    16  N   -0.272647  -0.004608
    17  O   -0.204671   0.005683
    18  H   -0.112167   0.272801
    19  H   -0.258223   0.401592
    20  H    0.087896   0.032863
    21  H   -0.233355   0.406965
    22  H    0.564116  -0.450196
    23  H    0.016523   0.123863
    24  H    0.098233   0.044474
    25  H   -0.164091   0.302680
    26  H    0.160137   0.017831
    27  H   -0.042545   0.215434
    28  H    0.095001   0.011946
    29  H    0.235093  -0.020487
    30  H    0.194815   0.008198
    31  H    0.150460  -0.011733
    32  H    0.096747   0.116364
    33  H   -0.354863   0.518140
    34  H   -0.511306   0.666150
    35  H   -0.003187   0.163765
    36  H    0.129621   0.028467
    37  H   -0.344896   0.603018
    38  H   -0.398217   0.656350
    39  H    0.182191   0.080579
 Sum of Mulliken charges =  -1.00000   1.00000

 Dipole moment (field-independent basis, Debye):
    X=             -1.4220    Y=             -9.1731    Z=              1.1433  Tot=              9.3528
 Quadrupole moment (field-independent basis, Debye-Ang):
   XX=           -173.0324   YY=           -176.1260   ZZ=           -137.8191
   XY=             -7.3669   XZ=             -4.8821   YZ=              4.0267

 Summary of Natural Population Analysis:

                                       Natural Population
                Natural  -----------------------------------------------
    Atom  No    Charge         Core      Valence    Rydberg      Total
 -----------------------------------------------------------------------
      C    1   -0.19067      0.99963     2.18264    0.00840     3.19067
      C    2   -0.18942      0.99963     2.18069    0.00910     3.18942
      C    3   -0.20057      0.99960     2.19165    0.00931     3.20057
      C    4   -0.00316      0.99958     1.99176    0.01182     3.00316
      C    5   -0.19230      0.99961     2.18281    0.00988     3.19230
      C    6   -0.18903      0.99963     2.18073    0.00866     3.18903
      N    7   -0.34587      0.99973     2.83494    0.01120     3.84587
      C    8   -0.08596      0.99961     2.07424    0.01212     3.08596
      C    9    0.05071      0.99950     1.93654    0.01325     2.94929
      C   10   -0.03038      0.99949     2.01903    0.01185     3.03038
      C   11   -0.12942      0.99947     2.11951    0.01045     3.12942
      C   12    0.09212      0.99949     1.89583    0.01256     2.90788
      C   13   -0.12573      0.99952     2.11579    0.01043     3.12573
      C   14   -0.08992      0.99957     2.08115    0.00920     3.08992
      C   15   -0.13106      0.99950     2.12223    0.00933     3.13106
      N   16   -0.39148      0.99971     2.88128    0.01049     3.89148
      O   17   -0.37118      0.99989     3.36533    0.00596     4.37118
      H   18    0.09646      0.00000     0.40260    0.00094     0.40354
      H   19    0.09866      0.00000     0.39956    0.00178     0.40134
      H   20    0.08907      0.00000     0.40982    0.00110     0.41093
      H   21    0.10130      0.00000     0.39771    0.00099     0.39870
      H   22    0.09716      0.00000     0.40054    0.00230     0.40284
      H   23    0.09581      0.00000     0.40278    0.00140     0.40419
      H   24    0.08491      0.00000     0.41373    0.00136     0.41509
      H   25    0.09720      0.00000     0.40129    0.00151     0.40280
      H   26    0.10174      0.00000     0.39720    0.00107     0.39826
      H   27    0.09913      0.00000     0.40003    0.00084     0.40087
      H   28    0.08904      0.00000     0.40986    0.00109     0.41096
      H   29    0.17992      0.00000     0.31713    0.00295     0.32008
      H   30    0.09376      0.00000     0.40501    0.00123     0.40624
      H   31    0.09504      0.00000     0.40398    0.00098     0.40496
      H   32    0.08259      0.00000     0.41508    0.00233     0.41741
      H   33    0.10358      0.00000     0.39421    0.00221     0.39642
      H   34    0.10253      0.00000     0.39631    0.00116     0.39747
      H   35    0.09796      0.00000     0.40126    0.00078     0.40204
      H   36    0.10486      0.00000     0.39405    0.00109     0.39514
      H   37    0.19043      0.00000     0.30068    0.00889     0.30957
      H   38    0.19203      0.00000     0.30064    0.00733     0.30797
      H   39    0.23016      0.00000     0.26727    0.00257     0.26984
 =======================================================================
   * Total *    0.00000     16.99316    46.78693    0.21991    64.00000

 Normal termination of Gaussian 16 at Mon Dec 14 14:36:25 2020.
