 Gaussian 16, Revision A.03,

 -----------------------------------------------------------
 # opt freq B3LYP/6-31G(d) empiricaldispersion=gd3bj scf=xqc
 -----------------------------------------------------------

 -------------------------------
 CID_117100316_JID_4255_neutraal
 -------------------------------
 Symbolic Z-matrix:
 Charge =  0 Multiplicity = 1

 SCF Done:  E(RB3LYP) =  -655.731084212     A.U. after   14 cycles
 SCF Done:  E(RB3LYP) =  -655.734876119     A.U. after   12 cycles
 SCF Done:  E(RB3LYP) =  -655.732098137     A.U. after   12 cycles
 SCF Done:  E(RB3LYP) =  -655.734437184     A.U. after   12 cycles
 SCF Done:  E(RB3LYP) =  -655.735357177     A.U. after    8 cycles
 SCF Done:  E(RB3LYP) =  -655.735287025     A.U. after   12 cycles
 SCF Done:  E(RB3LYP) =  -655.735551401     A.U. after   11 cycles
 SCF Done:  E(RB3LYP) =  -655.735577191     A.U. after   11 cycles
 SCF Done:  E(RB3LYP) =  -655.735587459     A.U. after   10 cycles
 SCF Done:  E(RB3LYP) =  -655.735590874     A.U. after    8 cycles
 SCF Done:  E(RB3LYP) =  -655.735591311     A.U. after    8 cycles
 SCF Done:  E(RB3LYP) =  -655.735591565     A.U. after    7 cycles
 SCF Done:  E(RB3LYP) =  -655.735591626     A.U. after    7 cycles
 Optimization completed.
    -- Stationary point found.
 Normal termination of Gaussian 16 at Thu Dec 10 09:24:07 2020.

 --------------------------------------------------------------------
 #N Geom=AllCheck Guess=TCheck SCRF=Check GenChk RB3LYP/6-31G(d) Freq
 --------------------------------------------------------------------

 Structure from the checkpoint file:  "JID_4255.chk"
 -------------------------------
 CID_117100316_JID_4255_neutraal
 -------------------------------
 Charge =  0 Multiplicity = 1

 SCF Done:  E(RB3LYP) =  -655.735591626     A.U. after    1 cycles

  Exact polarizability: 123.595   0.563 120.676   1.711  -1.584 103.582
 Approx polarizability: 164.148   3.800 166.017   6.821  -2.479 166.756

                      1                      2                      3
                      A                      A                      A
 Frequencies --     46.7108                87.7575                99.3544
 Red. masses --      4.4507                 4.1437                 3.6995
 Frc consts  --      0.0057                 0.0188                 0.0215
 IR Inten    --      3.5413                 4.1759                 5.3067

                      4                      5                      6
                      A                      A                      A
 Frequencies --    118.7937               140.5281               160.8870
 Red. masses --      2.1374                 2.3670                 1.8677
 Frc consts  --      0.0178                 0.0275                 0.0285
 IR Inten    --      1.5500                 0.0185                 1.6071

                      7                      8                      9
                      A                      A                      A
 Frequencies --    196.4103               218.0415               250.4264
 Red. masses --      2.7250                 3.6423                 3.2192
 Frc consts  --      0.0619                 0.1020                 0.1189
 IR Inten    --      1.3267                 2.2869                 1.9752

                     10                     11                     12
                      A                      A                      A
 Frequencies --    258.5188               314.8841               358.7197
 Red. masses --      4.6933                 2.0482                 3.2329
 Frc consts  --      0.1848                 0.1197                 0.2451
 IR Inten    --      5.6291                 3.7358                 6.8679

                     13                     14                     15
                      A                      A                      A
 Frequencies --    366.8805               412.2355               441.0512
 Red. masses --      3.3141                 2.4143                 2.9701
 Frc consts  --      0.2628                 0.2417                 0.3404
 IR Inten    --      5.0909                 2.1174                11.9074

                     16                     17                     18
                      A                      A                      A
 Frequencies --    455.5172               473.3251               498.1855
 Red. masses --      1.3486                 1.6622                 2.4778
 Frc consts  --      0.1649                 0.2194                 0.3623
 IR Inten    --    140.4901                78.1317                29.7549

                     19                     20                     21
                      A                      A                      A
 Frequencies --    575.0928               623.3824               744.8425
 Red. masses --      2.3614                 3.6205                 5.5202
 Frc consts  --      0.4601                 0.8290                 1.8044
 IR Inten    --     14.9901                 1.8280                 4.8203

                     22                     23                     24
                      A                      A                      A
 Frequencies --    757.4766               782.5016               810.4416
 Red. masses --      3.2368                 4.2044                 3.1876
 Frc consts  --      1.0942                 1.5168                 1.2336
 IR Inten    --      1.4507                 1.6259                 0.1625

                     25                     26                     27
                      A                      A                      A
 Frequencies --    826.3645               852.4785               867.3133
 Red. masses --      1.4741                 2.6524                 2.3579
 Frc consts  --      0.5931                 1.1357                 1.0450
 IR Inten    --      0.8020                 5.8143                 0.7114

                     28                     29                     30
                      A                      A                      A
 Frequencies --    892.8813               909.4572               937.0693
 Red. masses --      2.6617                 2.4515                 2.9766
 Frc consts  --      1.2502                 1.1947                 1.5400
 IR Inten    --      3.1424                 7.0689                 1.2471

                     31                     32                     33
                      A                      A                      A
 Frequencies --    951.4479               965.5350               972.1859
 Red. masses --      2.1807                 1.6432                 2.2739
 Frc consts  --      1.1631                 0.9025                 1.2663
 IR Inten    --      6.6055                 0.6988                 0.1459

                     34                     35                     36
                      A                      A                      A
 Frequencies --    979.4557              1010.8344              1023.0266
 Red. masses --      1.7439                 2.0140                 3.5859
 Frc consts  --      0.9857                 1.2124                 2.2112
 IR Inten    --      1.2019                 7.3011                 4.2647

                     37                     38                     39
                      A                      A                      A
 Frequencies --   1035.6898              1051.5329              1082.3505
 Red. masses --      1.7542                 2.8559                 1.7113
 Frc consts  --      1.1086                 1.8606                 1.1812
 IR Inten    --     15.0621                 6.3186                 3.4272

                     40                     41                     42
                      A                      A                      A
 Frequencies --   1101.1016              1114.1683              1147.7162
 Red. masses --      1.5084                 3.5119                 1.7713
 Frc consts  --      1.0775                 2.5686                 1.3747
 IR Inten    --     35.5643                38.2334                 5.9890

                     43                     44                     45
                      A                      A                      A
 Frequencies --   1154.9243              1175.4072              1185.2213
 Red. masses --      1.1309                 1.1472                 1.2826
 Frc consts  --      0.8888                 0.9338                 1.0615
 IR Inten    --     13.1994                23.7284                 1.6828

                     46                     47                     48
                      A                      A                      A
 Frequencies --   1199.1707              1213.0170              1223.0079
 Red. masses --      2.0980                 1.4700                 1.6061
 Frc consts  --      1.7775                 1.2744                 1.4154
 IR Inten    --     17.8713                24.1722                15.3737

                     49                     50                     51
                      A                      A                      A
 Frequencies --   1238.7459              1270.5828              1277.3472
 Red. masses --      1.9918                 1.3800                 1.4981
 Frc consts  --      1.8007                 1.3126                 1.4402
 IR Inten    --     94.5220                12.3958                10.4125

                     52                     53                     54
                      A                      A                      A
 Frequencies --   1283.5399              1297.9484              1313.5615
 Red. masses --      1.4588                 1.4024                 1.5655
 Frc consts  --      1.4160                 1.3920                 1.5915
 IR Inten    --     77.2799                 2.4360                14.5221

                     55                     56                     57
                      A                      A                      A
 Frequencies --   1340.2503              1343.2723              1346.0931
 Red. masses --      1.5001                 2.1059                 1.5650
 Frc consts  --      1.5876                 2.2388                 1.6708
 IR Inten    --      3.8274                74.6822                 1.8167

                     58                     59                     60
                      A                      A                      A
 Frequencies --   1364.7723              1375.0494              1398.7841
 Red. masses --      1.5678                 1.5174                 1.3545
 Frc consts  --      1.7205                 1.6904                 1.5614
 IR Inten    --      1.5200                11.3143                 8.2482

                     61                     62                     63
                      A                      A                      A
 Frequencies --   1406.2601              1453.7383              1489.8068
 Red. masses --      1.3000                 1.2530                 1.2159
 Frc consts  --      1.5147                 1.5602                 1.5900
 IR Inten    --      0.5931                57.6679                 7.6255

                     64                     65                     66
                      A                      A                      A
 Frequencies --   1508.1923              1512.6160              1517.7143
 Red. masses --      1.0897                 1.0491                 1.0867
 Frc consts  --      1.4605                 1.4143                 1.4748
 IR Inten    --      4.7864                 5.1524                 2.4921

                     67                     68                     69
                      A                      A                      A
 Frequencies --   1521.9143              1526.6526              1533.1228
 Red. masses --      1.0490                 1.0897                 1.0916
 Frc consts  --      1.4315                 1.4963                 1.5117
 IR Inten    --      5.3373                 4.9916                 6.5389

                     70                     71                     72
                      A                      A                      A
 Frequencies --   1542.7765              1554.4206              1780.1600
 Red. masses --      1.0877                 1.1030                10.9996
 Frc consts  --      1.5254                 1.5702                20.5375
 IR Inten    --      0.5869                 6.7839               172.7127

                     73                     74                     75
                      A                      A                      A
 Frequencies --   2998.3161              3059.1682              3064.1412
 Red. masses --      1.0729                 1.0603                 1.0652
 Frc consts  --      5.6826                 5.8465                 5.8922
 IR Inten    --     89.9309                10.5895                19.6155

                     76                     77                     78
                      A                      A                      A
 Frequencies --   3066.3970              3069.6701              3075.5317
 Red. masses --      1.0656                 1.0649                 1.0646
 Frc consts  --      5.9035                 5.9121                 5.9329
 IR Inten    --     16.3288                50.9837                44.9083

                     79                     80                     81
                      A                      A                      A
 Frequencies --   3077.7410              3089.4482              3105.8010
 Red. masses --      1.0292                 1.0949                 1.0949
 Frc consts  --      5.7440                 6.1574                 6.2227
 IR Inten    --     32.3940                14.5689                 0.8042

                     82                     83                     84
                      A                      A                      A
 Frequencies --   3107.0287              3110.0135              3115.6703
 Red. masses --      1.0942                 1.0993                 1.1036
 Frc consts  --      6.2235                 6.2645                 6.3118
 IR Inten    --     88.7316                14.3073                50.9096

                     85                     86                     87
                      A                      A                      A
 Frequencies --   3119.9800              3126.8807              3154.2391
 Red. masses --      1.0885                 1.1024                 1.0981
 Frc consts  --      6.2429                 6.3507                 6.4369
 IR Inten    --     27.7365                48.6274                11.8744

                     88                     89                     90
                      A                      A                      A
 Frequencies --   3154.5489              3184.0267              3725.2895
 Red. masses --      1.1040                 1.1073                 1.0661
 Frc consts  --      6.4730                 6.6143                 8.7168
 IR Inten    --     17.3311                16.0613                24.2402

 - Thermochemistry -
 -------------------
 Temperature   298.150 Kelvin.  Pressure   1.00000 Atm.
 Atom     1 has atomic number  6 and mass  12.00000

 Molecular mass:   198.12559 amu.
 Principal axes and moments of inertia in atomic units:
                           1         2         3
     Eigenvalues --  1855.758302711.630663592.15036
           X            0.99999   0.00157  -0.00276
           Y           -0.00160   0.99994  -0.01103
           Z            0.00275   0.01104   0.99994
 This molecule is an asymmetric top.
 Rotational symmetry number  1.
 Warning -- assumption of classical behavior for rotation
           may cause significant error
 Rotational temperatures (Kelvin)      0.04667     0.03194     0.02411
 Rotational constants (GHZ):           0.97251     0.66556     0.50241
 Zero-point vibrational energy     745659.5 (Joules/Mol)
                                  178.21690 (Kcal/Mol)
 Warning -- explicit consideration of  19 degrees of freedom as
           vibrations may cause significant error
 Vibrational temperatures:     67.21   126.26   142.95   170.92   202.19
          (Kelvin)            231.48   282.59   313.71   360.31   371.95
                              453.05   516.12   527.86   593.11   634.57
                              655.39   681.01   716.78   827.43   896.91
                             1071.66  1089.84  1125.85  1166.04  1188.95
                             1226.53  1247.87  1284.66  1308.51  1348.23
                             1368.92  1389.19  1398.76  1409.22  1454.37
                             1471.91  1490.13  1512.92  1557.26  1584.24
                             1603.04  1651.31  1661.68  1691.15  1705.27
                             1725.34  1745.26  1759.64  1782.28  1828.09
                             1837.82  1846.73  1867.46  1889.92  1928.32
                             1932.67  1936.73  1963.60  1978.39  2012.54
                             2023.29  2091.61  2143.50  2169.95  2176.32
                             2183.65  2189.70  2196.51  2205.82  2219.71
                             2236.46  2561.25  4313.91  4401.46  4408.62
                             4411.86  4416.57  4425.00  4428.18  4445.03
                             4468.55  4470.32  4474.62  4482.75  4488.96
                             4498.88  4538.25  4538.69  4581.10  5359.86

 Zero-point correction=                           0.284007 (Hartree/Particle)
 Thermal correction to Energy=                    0.297313
 Thermal correction to Enthalpy=                  0.298257
 Thermal correction to Gibbs Free Energy=         0.244540
 Sum of electronic and zero-point Energies=           -655.451585
 Sum of electronic and thermal Energies=              -655.438279
 Sum of electronic and thermal Enthalpies=            -655.437335
 Sum of electronic and thermal Free Energies=         -655.491051

                     E (Thermal)             CV                S
                      KCal/Mol        Cal/Mol-Kelvin    Cal/Mol-Kelvin
 Total                  186.567             52.164            113.056
 Electronic               0.000              0.000              0.000
 Translational            0.889              2.981             41.756
 Rotational               0.889              2.981             31.270
 Vibrational            184.789             46.202             40.030
 Vibration     1          0.595              1.979              4.952
 Vibration     2          0.601              1.958              3.709
 Vibration     3          0.604              1.950              3.467
 Vibration     4          0.609              1.934              3.120
 Vibration     5          0.615              1.913              2.797
 Vibration     6          0.622              1.890              2.539
 Vibration     7          0.636              1.845              2.166
 Vibration     8          0.646              1.814              1.975
 Vibration     9          0.663              1.762              1.728
 Vibration    10          0.667              1.748              1.672
 Vibration    11          0.702              1.645              1.337
 Vibration    12          0.734              1.557              1.128
 Vibration    13          0.740              1.540              1.093
 Vibration    14          0.776              1.444              0.919
 Vibration    15          0.801              1.381              0.823
 Vibration    16          0.814              1.349              0.779
 Vibration    17          0.830              1.309              0.728
 Vibration    18          0.854              1.254              0.663
 Vibration    19          0.931              1.085              0.495

                           ! Non-Optimized Parameters !
 Normal termination of Gaussian 16 at Thu Dec 10 09:35:14 2020.

 ----------------------------------------------------------------------
 # B3LYP/6-311++G(d,p) empiricaldispersion=gd3bj scf=xqc pop=npa geom=c
 heck
 ----------------------------------------------------------------------

 ---------------------------------------
 CID_117100316_JID_4255_Energie_neutraal
 ---------------------------------------
 Structure from the checkpoint file:  "JID_4255.chk"
 Charge =  0 Multiplicity = 1

 SCF Done:  E(RB3LYP) =  -655.928199117     A.U. after   14 cycles
 Normal termination of Gaussian 16 at Thu Dec 10 09:40:05 2020.

 ----------------------------------------------------------------------
 # B3LYP/6-311++G(d,p) empiricaldispersion=gd3bj scf=xqc pop=npa geom=c
 heck
 ----------------------------------------------------------------------

 -------------------------------------
 CID_117100316_JID_4255_Energie_kation
 -------------------------------------
 Structure from the checkpoint file:  "JID_4255.chk"
 Charge =  1 Multiplicity = 2

 SCF Done:  E(UB3LYP) =  -655.585594418     A.U. after   27 cycles
 Normal termination of Gaussian 16 at Thu Dec 10 09:53:33 2020.
 Gaussian 16:  ES64L-G16RevA.03 25-Dec-2016

 ----------------------------------------------------------------------
 # B3LYP/6-311++G(d,p) empiricaldispersion=gd3bj scf=xqc pop=npa geom=c
 heck
 ----------------------------------------------------------------------

 ------------------------------------
 CID_117100316_JID_4255_Energie_anion
 ------------------------------------
 Structure from the checkpoint file:  "JID_4255.chk"
 Charge = -1 Multiplicity = 2

                         Standard orientation:
 ---------------------------------------------------------------------
 Center     Atomic      Atomic             Coordinates (Angstroms)
 Number     Number       Type             X           Y           Z
 ---------------------------------------------------------------------
      1          6           0        1.605224    2.767956   -0.416566
      2          8           0        0.765999    1.616832   -0.593624
      3          6           0        0.851842    0.689221    0.377372
      4          8           0        1.545221    0.842877    1.368332
      5          6           0       -0.048082   -0.521624    0.162909
      6          6           0       -0.692528   -0.645615   -1.259129
      7          6           0       -2.204724   -0.496948   -0.993045
      8          6           0       -2.500629    0.960580   -0.565886
      9          6           0       -1.951884    1.018250    0.894567
     10          6           0       -1.316168   -0.376729    1.082453
     11          6           0       -2.345585   -1.254707    0.341926
     12          6           0        0.763710   -1.771395    0.568705
     13          6           0        1.959027   -2.073361   -0.337611
     14          8           0        2.842717   -0.970425   -0.502001
     15          1           0        1.392607    3.416986   -1.266129
     16          1           0        2.656000    2.467548   -0.414750
     17          1           0        1.374480    3.271682    0.525275
     18          1           0       -0.308095    0.095885   -1.959853
     19          1           0       -0.482179   -1.636282   -1.677112
     20          1           0       -2.827677   -0.851868   -1.818701
     21          1           0       -2.004929    1.681974   -1.221935
     22          1           0       -3.575750    1.167313   -0.594244
     23          1           0       -1.250532    1.840557    1.056967
     24          1           0       -2.765533    1.145156    1.616732
     25          1           0       -1.102874   -0.630356    2.123551
     26          1           0       -3.346587   -1.184845    0.782363
     27          1           0       -2.067317   -2.311160    0.272857
     28          1           0        1.115717   -1.629901    1.597118
     29          1           0        0.104608   -2.647410    0.573762
     30          1           0        2.492346   -2.953111    0.057197
     31          1           0        1.624404   -2.327362   -1.348665
     32          1           0        3.018596   -0.602845    0.379742
 ---------------------------------------------------------------------

 SCF Done:  E(UB3LYP) =  -655.913298774     A.U. after   32 cycles

 The electronic state is 2-A.
 Alpha  occ. eigenvalues --  -19.07470 -19.02734 -19.01360 -10.20432 -10.12902
 Alpha  occ. eigenvalues --  -10.12067 -10.09691 -10.07925 -10.07422 -10.06892
 Alpha  occ. eigenvalues --  -10.06323 -10.06307 -10.06133 -10.05873  -1.01546
 Alpha  occ. eigenvalues --   -0.93143  -0.92188  -0.78054  -0.69433  -0.64529
 Alpha  occ. eigenvalues --   -0.63303  -0.61483  -0.59206  -0.54107  -0.50890
 Alpha  occ. eigenvalues --   -0.47639  -0.45499  -0.44422  -0.41319  -0.41228
 Alpha  occ. eigenvalues --   -0.40155  -0.38317  -0.37472  -0.36736  -0.35619
 Alpha  occ. eigenvalues --   -0.34401  -0.33555  -0.30856  -0.30382  -0.29164
 Alpha  occ. eigenvalues --   -0.27627  -0.27426  -0.26564  -0.25932  -0.24857
 Alpha  occ. eigenvalues --   -0.24289  -0.23422  -0.22903  -0.21832  -0.21546
 Alpha  occ. eigenvalues --   -0.20929  -0.20010  -0.18049  -0.17864   0.04404
 Alpha virt. eigenvalues --    0.06326   0.06911   0.07734   0.08743   0.09138
 Alpha virt. eigenvalues --    0.09494   0.09585   0.09900   0.09973   0.11048
 Alpha virt. eigenvalues --    0.11329   0.11975   0.12551   0.12953   0.13527

  Beta  occ. eigenvalues --  -19.07467 -19.02727 -19.01352 -10.20428 -10.12868
  Beta  occ. eigenvalues --  -10.12050 -10.09693 -10.07921 -10.07406 -10.06882
  Beta  occ. eigenvalues --  -10.06308 -10.06294 -10.06105 -10.05855  -1.01536
  Beta  occ. eigenvalues --   -0.93129  -0.92176  -0.78030  -0.69406  -0.64488
  Beta  occ. eigenvalues --   -0.63276  -0.61447  -0.59161  -0.54067  -0.50849
  Beta  occ. eigenvalues --   -0.47599  -0.45457  -0.44393  -0.41286  -0.41193
  Beta  occ. eigenvalues --   -0.40124  -0.38288  -0.37439  -0.36712  -0.35588
  Beta  occ. eigenvalues --   -0.34371  -0.33520  -0.30827  -0.30358  -0.29136
  Beta  occ. eigenvalues --   -0.27595  -0.27402  -0.26545  -0.25906  -0.24824
  Beta  occ. eigenvalues --   -0.24263  -0.23396  -0.22876  -0.21812  -0.21519
  Beta  occ. eigenvalues --   -0.20904  -0.19987  -0.18035  -0.17845
  Beta virt. eigenvalues --    0.06563   0.07291   0.07658   0.08380   0.09246
  Beta virt. eigenvalues --    0.09619   0.09846   0.09947   0.10251   0.10497
  Beta virt. eigenvalues --    0.11554   0.11841   0.12459   0.12897   0.13266

 Mulliken charges and spin densities:
               1          2
     1  C    0.740180  -0.925267
     2  O   -0.024680   0.053841
     3  C   -1.825634   0.438946
     4  O   -0.200949   0.014302
     5  C    1.861620  -0.889540
     6  C    0.752536  -1.305302
     7  C   -1.688133   2.045895
     8  C    1.206735  -1.828157
     9  C   -0.254383  -0.159990
    10  C   -1.687096   2.029958
    11  C    1.690036  -2.345566
    12  C    0.262902  -0.444766
    13  C    0.746592  -1.266827
    14  O   -0.218042   0.018897
    15  H   -0.414912   0.567030
    16  H   -0.012243   0.180375
    17  H   -0.121280   0.297750
    18  H    0.133524   0.069691
    19  H   -0.093684   0.209753
    20  H   -0.612969   0.854619
    21  H    0.014679   0.130437
    22  H   -0.264394   0.422183
    23  H    0.193762  -0.032556
    24  H   -0.405463   0.589193
    25  H   -0.091949   0.324347
    26  H   -0.337559   0.521771
    27  H   -0.294781   0.420269
    28  H    0.063929   0.156191
    29  H   -0.109592   0.258467
    30  H   -0.150423   0.303299
    31  H   -0.033706   0.210837
    32  H    0.175379   0.079920
 Sum of Mulliken charges =  -1.00000   1.00000

 Dipole moment (field-independent basis, Debye):
    X=              3.7358    Y=              0.4100    Z=              0.8204  Tot=              3.8468
 Quadrupole moment (field-independent basis, Debye-Ang):
   XX=           -149.9901   YY=           -138.7178   ZZ=           -122.8988
   XY=             -3.3000   XZ=              2.0694   YZ=              0.4973

 Summary of Natural Population Analysis:

                                       Natural Population
                Natural  -----------------------------------------------
    Atom  No    Charge         Core      Valence    Rydberg      Total
 -----------------------------------------------------------------------
      C    1   -0.10460      0.99959     2.09567    0.00934     3.10460
      O    2   -0.27661      0.99985     3.26743    0.00933     4.27661
      C    3    0.43104      0.99957     1.54166    0.02773     2.56896
      O    4   -0.33027      0.99987     3.32474    0.00567     4.33027
      C    5   -0.07976      0.99949     2.06413    0.01614     3.07976
      C    6   -0.18767      0.99960     2.17780    0.01027     3.18767
      C    7   -0.11084      0.99960     2.09829    0.01295     3.11084
      C    8   -0.19255      0.99963     2.18413    0.00879     3.19255
      C    9   -0.19421      0.99962     2.18543    0.00916     3.19421
      C   10   -0.09830      0.99958     2.08619    0.01253     3.09830
      C   11   -0.19149      0.99961     2.18187    0.01000     3.19149
      C   12   -0.20220      0.99959     2.19133    0.01128     3.20220
      C   13   -0.00890      0.99959     1.99699    0.01232     3.00890
      O   14   -0.36932      0.99990     3.36277    0.00665     4.36932
      H   15    0.09375      0.00000     0.40499    0.00126     0.40625
      H   16    0.09186      0.00000     0.40714    0.00100     0.40814
      H   17    0.09216      0.00000     0.40666    0.00118     0.40784
      H   18    0.11119      0.00000     0.38706    0.00175     0.38881
      H   19    0.09980      0.00000     0.39873    0.00147     0.40020
      H   20    0.10296      0.00000     0.39554    0.00150     0.39704
      H   21    0.10088      0.00000     0.39766    0.00146     0.39912
      H   22    0.10019      0.00000     0.39835    0.00146     0.39981
      H   23    0.10011      0.00000     0.39857    0.00132     0.39989
      H   24    0.10167      0.00000     0.39704    0.00129     0.39833
      H   25    0.10640      0.00000     0.39249    0.00111     0.39360
      H   26    0.10362      0.00000     0.39467    0.00171     0.39638
      H   27    0.10177      0.00000     0.39648    0.00175     0.39823
      H   28    0.10482      0.00000     0.39385    0.00132     0.39518
      H   29    0.10825      0.00000     0.39010    0.00165     0.39175
      H   30    0.07728      0.00000     0.42141    0.00130     0.42272
      H   31    0.08625      0.00000     0.41240    0.00135     0.41375
      H   32    0.23270      0.00000     0.26421    0.00308     0.26730
 =======================================================================
   * Total *    0.00000     13.99507    39.81581    0.18912    54.00000

 Normal termination of Gaussian 16 at Thu Dec 10 10:09:32 2020.
