 Gaussian 16, Revision A.03,

 -----------------------------------------------------------
 # opt freq B3LYP/6-31G(d) empiricaldispersion=gd3bj scf=xqc
 -----------------------------------------------------------

 -------------------------------
 CID_64546402_JID_10485_neutraal
 -------------------------------
 Symbolic Z-matrix:
 Charge =  0 Multiplicity = 1

 SCF Done:  E(RB3LYP) =  -983.098938281     A.U. after   15 cycles
 SCF Done:  E(RB3LYP) =  -983.100051387     A.U. after   14 cycles
 SCF Done:  E(RB3LYP) =  -983.108186010     A.U. after   14 cycles
 SCF Done:  E(RB3LYP) =  -983.109019136     A.U. after   13 cycles
 SCF Done:  E(RB3LYP) =  -983.109133937     A.U. after   13 cycles
 SCF Done:  E(RB3LYP) =  -983.112089995     A.U. after   13 cycles
 SCF Done:  E(RB3LYP) =  -983.018395203     A.U. after   15 cycles
 SCF Done:  E(RB3LYP) =  -983.110178786     A.U. after   14 cycles
 SCF Done:  E(RB3LYP) =  -983.112801964     A.U. after   11 cycles
 SCF Done:  E(RB3LYP) =  -983.112839750     A.U. after   13 cycles
 SCF Done:  E(RB3LYP) =  -983.114008310     A.U. after    9 cycles
 SCF Done:  E(RB3LYP) =  -983.114010044     A.U. after    9 cycles
 SCF Done:  E(RB3LYP) =  -983.114010856     A.U. after    8 cycles
 SCF Done:  E(RB3LYP) =  -983.114011170     A.U. after    8 cycles
 Optimization completed.
    -- Stationary point found.
 Normal termination of Gaussian 16 at Sun Dec 13 17:01:18 2020.

 --------------------------------------------------------------------
 #N Geom=AllCheck Guess=TCheck SCRF=Check GenChk RB3LYP/6-31G(d) Freq
 --------------------------------------------------------------------

 Structure from the checkpoint file:  "JID_10485.chk"
 -------------------------------
 CID_64546402_JID_10485_neutraal
 -------------------------------
 Charge =  0 Multiplicity = 1

 SCF Done:  E(RB3LYP) =  -983.114011170     A.U. after    1 cycles

  Exact polarizability: 162.785  -7.297 143.949  -5.848   3.447 141.329
 Approx polarizability: 224.144 -17.675 205.654 -18.573   9.814 256.715

                      1                      2                      3
                      A                      A                      A
 Frequencies --     29.5373                48.6904                62.7174
 Red. masses --      5.5156                 6.1180                 5.4149
 Frc consts  --      0.0028                 0.0085                 0.0125
 IR Inten    --      2.4441                 0.8846                 0.9076

                      4                      5                      6
                      A                      A                      A
 Frequencies --     71.0805                73.5285                97.6608
 Red. masses --      6.8981                 7.0571                 5.9965
 Frc consts  --      0.0205                 0.0225                 0.0337
 IR Inten    --      1.5595                 1.3259                 0.3124

                      7                      8                      9
                      A                      A                      A
 Frequencies --    109.4583               121.7586               130.8867
 Red. masses --      4.7273                 5.5032                 5.1841
 Frc consts  --      0.0334                 0.0481                 0.0523
 IR Inten    --      2.4276                 3.0819                 2.3026

                     10                     11                     12
                      A                      A                      A
 Frequencies --    147.4664               201.0201               207.0530
 Red. masses --      4.1909                 2.2224                 1.4002
 Frc consts  --      0.0537                 0.0529                 0.0354
 IR Inten    --      3.5260                 1.9001                 1.6828

                     13                     14                     15
                      A                      A                      A
 Frequencies --    234.0097               251.0222               261.9839
 Red. masses --      3.5583                 1.3246                 3.1143
 Frc consts  --      0.1148                 0.0492                 0.1259
 IR Inten    --      4.6897                 0.9164                 0.5352

                     16                     17                     18
                      A                      A                      A
 Frequencies --    280.6264               300.1641               321.9628
 Red. masses --      3.8726                 2.7858                 3.9607
 Frc consts  --      0.1797                 0.1479                 0.2419
 IR Inten    --      1.6439                 1.3284                 6.7681

                     19                     20                     21
                      A                      A                      A
 Frequencies --    333.9662               347.4794               383.4765
 Red. masses --      2.5261                 2.3392                 5.0752
 Frc consts  --      0.1660                 0.1664                 0.4397
 IR Inten    --      0.7740                 3.4983                 6.6349

                     22                     23                     24
                      A                      A                      A
 Frequencies --    441.4454               449.2299               468.0887
 Red. masses --      1.4052                 3.3439                 3.3036
 Frc consts  --      0.1613                 0.3976                 0.4265
 IR Inten    --    114.2250                 1.7207                 7.6204

                     25                     26                     27
                      A                      A                      A
 Frequencies --    483.0520               529.5361               579.6967
 Red. masses --      2.5789                 2.3341                 4.1443
 Frc consts  --      0.3545                 0.3856                 0.8205
 IR Inten    --     12.1946                19.9008                17.6100

                     28                     29                     30
                      A                      A                      A
 Frequencies --    606.7627               636.6485               647.2918
 Red. masses --      1.9578                 4.6089                 3.4259
 Frc consts  --      0.4247                 1.1006                 0.8457
 IR Inten    --     77.2348                49.8258                 2.7017

                     31                     32                     33
                      A                      A                      A
 Frequencies --    654.9714               671.0334               689.0908
 Red. masses --      3.2166                 3.7914                 3.4950
 Frc consts  --      0.8130                 1.0059                 0.9778
 IR Inten    --     13.5628                31.0064                14.3042

                     34                     35                     36
                      A                      A                      A
 Frequencies --    731.1239               746.5219               754.8936
 Red. masses --      1.9894                 8.7343                 6.5143
 Frc consts  --      0.6266                 2.8679                 2.1872
 IR Inten    --     38.2877                 6.7598                12.5314

                     37                     38                     39
                      A                      A                      A
 Frequencies --    767.1198               779.1352               808.8263
 Red. masses --      1.9297                 4.1303                 3.5105
 Frc consts  --      0.6691                 1.4773                 1.3531
 IR Inten    --     10.6027                12.5274                28.0703

                     40                     41                     42
                      A                      A                      A
 Frequencies --    890.7753               903.0169               915.0309
 Red. masses --      1.3618                 2.6221                 2.9756
 Frc consts  --      0.6366                 1.2598                 1.4679
 IR Inten    --     10.2905                 4.1421                 5.2073

                     43                     44                     45
                      A                      A                      A
 Frequencies --    948.9776               959.6067               959.7220
 Red. masses --      2.2739                 2.7961                 1.5728
 Frc consts  --      1.2065                 1.5170                 0.8535
 IR Inten    --     11.8958                10.4979                 0.9348

                     46                     47                     48
                      A                      A                      A
 Frequencies --    989.6671               990.3984              1029.5233
 Red. masses --      4.7461                 2.3234                 2.1154
 Frc consts  --      2.7388                 1.3427                 1.3211
 IR Inten    --      0.6382                20.8119                 4.7083

                     49                     50                     51
                      A                      A                      A
 Frequencies --   1035.9720              1047.3742              1063.6747
 Red. masses --      1.4912                 2.2917                 2.8480
 Frc consts  --      0.9429                 1.4812                 1.8985
 IR Inten    --      2.2539                 5.5516                19.0722

                     52                     53                     54
                      A                      A                      A
 Frequencies --   1138.7710              1141.2312              1153.1505
 Red. masses --      3.6134                 2.3656                 3.3533
 Frc consts  --      2.7608                 1.8152                 2.6272
 IR Inten    --     42.1788                22.4605                25.7426

                     55                     56                     57
                      A                      A                      A
 Frequencies --   1195.2851              1205.9155              1210.5751
 Red. masses --      3.0162                 2.8703                 2.0795
 Frc consts  --      2.5389                 2.4593                 1.7955
 IR Inten    --     10.9714                26.8835                14.2223

                     58                     59                     60
                      A                      A                      A
 Frequencies --   1227.1260              1249.0207              1289.8519
 Red. masses --      1.8893                 2.4240                 1.4341
 Frc consts  --      1.6762                 2.2281                 1.4057
 IR Inten    --      6.0196                 7.5268                31.9870

                     61                     62                     63
                      A                      A                      A
 Frequencies --   1301.9130              1309.2133              1333.8293
 Red. masses --      2.0521                 2.4959                 1.9766
 Frc consts  --      2.0493                 2.5206                 2.0720
 IR Inten    --     43.6474                38.1330                62.2016

                     64                     65                     66
                      A                      A                      A
 Frequencies --   1343.3010              1362.1712              1386.3333
 Red. masses --      1.8422                 1.5798                 1.4069
 Frc consts  --      1.9585                 1.7271                 1.5931
 IR Inten    --     26.1384                73.8462                16.5602

                     67                     68                     69
                      A                      A                      A
 Frequencies --   1396.4837              1415.0727              1426.0765
 Red. masses --      1.7088                 1.7794                 1.3211
 Frc consts  --      1.9634                 2.0994                 1.5830
 IR Inten    --     73.7514                23.5040                21.1810

                     70                     71                     72
                      A                      A                      A
 Frequencies --   1428.5289              1441.1470              1453.6224
 Red. masses --      1.9088                 1.7518                 2.2619
 Frc consts  --      2.2950                 2.1436                 2.8159
 IR Inten    --     33.1930                80.0962                20.9766

                     73                     74                     75
                      A                      A                      A
 Frequencies --   1460.2156              1502.4962              1505.3180
 Red. masses --      2.1385                 2.8788                 1.2045
 Frc consts  --      2.6866                 3.8290                 1.6081
 IR Inten    --    104.5293                16.1813                14.1067

                     76                     77                     78
                      A                      A                      A
 Frequencies --   1509.2598              1511.8277              1512.7171
 Red. masses --      1.3010                 1.2688                 1.0531
 Frc consts  --      1.7460                 1.7086                 1.4198
 IR Inten    --     15.3912                26.1877                 0.8813

                     79                     80                     81
                      A                      A                      A
 Frequencies --   1514.5972              1529.7596              1532.1542
 Red. masses --      1.1956                 1.1391                 1.0732
 Frc consts  --      1.6159                 1.5706                 1.4844
 IR Inten    --     41.9044                20.7893                 7.2285

                     82                     83                     84
                      A                      A                      A
 Frequencies --   1536.7021              1608.4644              1797.7800
 Red. masses --      1.0715                 3.3860                10.0213
 Frc consts  --      1.4908                 5.1613                19.0831
 IR Inten    --     16.8242                58.2598               354.2273

                     85                     86                     87
                      A                      A                      A
 Frequencies --   1809.8438              1874.7114              3059.9611
 Red. masses --      9.2327                11.0393                 1.0347
 Frc consts  --     17.8181                22.8592                 5.7080
 IR Inten    --    524.3312               229.3254                14.1846

                     88                     89                     90
                      A                      A                      A
 Frequencies --   3072.4149              3079.2897              3097.3462
 Red. masses --      1.0371                 1.0626                 1.0589
 Frc consts  --      5.7680                 5.9366                 5.9852
 IR Inten    --     13.5447                21.6267                 7.2132

                     91                     92                     93
                      A                      A                      A
 Frequencies --   3103.7425              3130.1043              3132.4285
 Red. masses --      1.0630                 1.1038                 1.1035
 Frc consts  --      6.0334                 6.3715                 6.3796
 IR Inten    --     10.2945                 4.9491                13.2028

                     94                     95                     96
                      A                      A                      A
 Frequencies --   3143.1118              3149.5032              3153.2494
 Red. masses --      1.1015                 1.1029                 1.1062
 Frc consts  --      6.4117                 6.4460                 6.4807
 IR Inten    --     14.9001                13.1586                 5.2917

                     97                     98                     99
                      A                      A                      A
 Frequencies --   3155.8391              3164.4574              3277.7647
 Red. masses --      1.1008                 1.1020                 1.0970
 Frc consts  --      6.4593                 6.5018                 6.9443
 IR Inten    --     21.3307                 5.1079                 8.7323

                    100                    101                    102
                      A                      A                      A
 Frequencies --   3550.3115              3595.6458              3638.8673
 Red. masses --      1.0858                 1.0760                 1.0786
 Frc consts  --      8.0636                 8.1961                 8.4149
 IR Inten    --    258.5974                27.1318                52.4215

 - Thermochemistry -
 -------------------
 Temperature   298.150 Kelvin.  Pressure   1.00000 Atm.
 Atom     1 has atomic number  6 and mass  12.00000

 Molecular mass:   280.12839 amu.
 Principal axes and moments of inertia in atomic units:
                           1         2         3
     Eigenvalues --  3805.916606083.901807308.72694
           X            0.99922   0.03642   0.01540
           Y           -0.03685   0.99892   0.02843
           Z           -0.01435  -0.02898   0.99948
 This molecule is an asymmetric top.
 Rotational symmetry number  1.
 Warning -- assumption of classical behavior for rotation
           may cause significant error
 Rotational temperatures (Kelvin)      0.02276     0.01424     0.01185
 Rotational constants (GHZ):           0.47419     0.29664     0.24693
 Zero-point vibrational energy     767477.7 (Joules/Mol)
                                  183.43158 (Kcal/Mol)
 Warning -- explicit consideration of  28 degrees of freedom as
           vibrations may cause significant error
 Vibrational temperatures:     42.50    70.05    90.24   102.27   105.79
          (Kelvin)            140.51   157.49   175.18   188.32   212.17
                              289.22   297.90   336.69   361.16   376.94
                              403.76   431.87   463.23   480.50   499.95
                              551.74   635.14   646.34   673.48   695.00
                              761.88   834.05   873.00   916.00   931.31
                              942.36   965.47   991.45  1051.92  1074.08
                             1086.12  1103.71  1121.00  1163.72  1281.63
                             1299.24  1316.53  1365.37  1380.66  1380.83
                             1423.91  1424.96  1481.25  1490.53  1506.94
                             1530.39  1638.44  1641.98  1659.13  1719.75
                             1735.04  1741.75  1765.56  1797.06  1855.81
                             1873.16  1883.67  1919.08  1932.71  1959.86
                             1994.62  2009.23  2035.97  2051.81  2055.33
                             2073.49  2091.44  2100.92  2161.76  2165.82
                             2171.49  2175.18  2176.46  2179.17  2200.98
                             2204.43  2210.97  2314.22  2586.60  2603.96
                             2697.29  4402.60  4420.52  4430.41  4456.39
                             4465.59  4503.52  4506.87  4522.24  4531.43
                             4536.82  4540.55  4552.95  4715.97  5108.11
                             5173.33  5235.52

 Zero-point correction=                           0.292317 (Hartree/Particle)
 Thermal correction to Energy=                    0.311164
 Thermal correction to Enthalpy=                  0.312108
 Thermal correction to Gibbs Free Energy=         0.244660
 Sum of electronic and zero-point Energies=           -982.821694
 Sum of electronic and thermal Energies=              -982.802847
 Sum of electronic and thermal Enthalpies=            -982.801903
 Sum of electronic and thermal Free Energies=         -982.869351

                     E (Thermal)             CV                S
                      KCal/Mol        Cal/Mol-Kelvin    Cal/Mol-Kelvin
 Total                  195.258             70.526            141.956
 Electronic               0.000              0.000              0.000
 Translational            0.889              2.981             42.788
 Rotational               0.889              2.981             33.492
 Vibrational            193.481             64.564             65.675
 Vibration     1          0.593              1.984              5.860
 Vibration     2          0.595              1.978              4.870
 Vibration     3          0.597              1.972              4.370
 Vibration     4          0.598              1.968              4.123
 Vibration     5          0.599              1.966              4.057
 Vibration     6          0.603              1.951              3.500
 Vibration     7          0.606              1.942              3.278
 Vibration     8          0.609              1.931              3.072
 Vibration     9          0.612              1.922              2.933
 Vibration    10          0.617              1.905              2.705
 Vibration    11          0.638              1.838              2.124
 Vibration    12          0.641              1.830              2.070
 Vibration    13          0.654              1.789              1.848
 Vibration    14          0.663              1.761              1.723
 Vibration    15          0.669              1.742              1.649
 Vibration    16          0.680              1.709              1.530
 Vibration    17          0.693              1.673              1.416
 Vibration    18          0.707              1.631              1.300
 Vibration    19          0.715              1.608              1.241
 Vibration    20          0.725              1.580              1.178
 Vibration    21          0.753              1.505              1.025
 Vibration    22          0.801              1.380              0.822
 Vibration    23          0.808              1.363              0.798
 Vibration    24          0.825              1.321              0.743
 Vibration    25          0.839              1.288              0.702
 Vibration    26          0.884              1.185              0.588
 Vibration    27          0.936              1.075              0.486
 Vibration    28          0.965              1.017              0.438

                           ! Non-Optimized Parameters !
 Normal termination of Gaussian 16 at Sun Dec 13 17:21:19 2020.

 ----------------------------------------------------------------------
 # B3LYP/6-311++G(d,p) empiricaldispersion=gd3bj scf=xqc pop=npa geom=c
 heck
 ----------------------------------------------------------------------

 ---------------------------------------
 CID_64546402_JID_10485_Energie_neutraal
 ---------------------------------------
 Structure from the checkpoint file:  "JID_10485.chk"
 Charge =  0 Multiplicity = 1

 SCF Done:  E(RB3LYP) =  -983.399830217     A.U. after   16 cycles
 Normal termination of Gaussian 16 at Sun Dec 13 17:28:39 2020.

 ----------------------------------------------------------------------
 # B3LYP/6-311++G(d,p) empiricaldispersion=gd3bj scf=xqc pop=npa geom=c
 heck
 ----------------------------------------------------------------------

 -------------------------------------
 CID_64546402_JID_10485_Energie_kation
 -------------------------------------
 Structure from the checkpoint file:  "JID_10485.chk"
 Charge =  1 Multiplicity = 2

 SCF Done:  E(UB3LYP) =  -983.067829799     A.U. after   33 cycles
 SCF Done:  E(UB3LYP) =  -983.067829799     a.u. after    1 cycles
 Normal termination of Gaussian 16 at Sun Dec 13 17:49:26 2020.
 Gaussian 16:  ES64L-G16RevA.03 25-Dec-2016

 ----------------------------------------------------------------------
 # B3LYP/6-311++G(d,p) empiricaldispersion=gd3bj scf=xqc pop=npa geom=c
 heck
 ----------------------------------------------------------------------

 ------------------------------------
 CID_64546402_JID_10485_Energie_anion
 ------------------------------------
 Structure from the checkpoint file:  "JID_10485.chk"
 Charge = -1 Multiplicity = 2

                         Standard orientation:
 ---------------------------------------------------------------------
 Center     Atomic      Atomic             Coordinates (Angstroms)
 Number     Number       Type             X           Y           Z
 ---------------------------------------------------------------------
      1          6           0       -3.143675   -2.020185   -1.096362
      2          6           0       -1.966506   -1.603309   -0.195918
      3          6           0       -1.266192   -0.396700   -0.842594
      4          8           0       -0.548283   -0.421539   -1.828259
      5          7           0       -1.599446    0.711180   -0.103855
      6          6           0       -2.330431    0.365114    1.063650
      7          8           0       -2.730740    1.159041    1.890220
      8          7           0       -2.425568   -1.000616    1.059233
      9          6           0       -1.321793    2.090929   -0.473121
     10          6           0        0.137247    2.388659   -0.839332
     11          8           0        0.395131    2.956414   -1.888469
     12          7           0        1.112190    2.025813    0.046325
     13          6           0        1.008884    1.549591    1.417017
     14          6           0        1.202907    0.021476    1.574467
     15          6           0        2.307306   -0.529887    0.734395
     16          7           0        3.540863   -0.811641    1.139704
     17          6           0        4.146772   -1.251039   -0.001121
     18          7           0        3.379182   -1.260692   -1.082356
     19          7           0        2.202501   -0.794263   -0.592133
     20          6           0       -0.995689   -2.766453    0.018554
     21          1           0       -3.689867   -2.851261   -0.637316
     22          1           0       -2.769621   -2.345073   -2.071290
     23          1           0       -3.836587   -1.186323   -1.245953
     24          1           0       -3.091312   -1.447062    1.674407
     25          1           0       -1.904593    2.362433   -1.355255
     26          1           0       -1.653059    2.702037    0.371615
     27          1           0        2.041298    2.235107   -0.298583
     28          1           0        1.778738    2.065406    1.999182
     29          1           0        0.041715    1.836751    1.838220
     30          1           0        1.432223   -0.198091    2.620918
     31          1           0        0.266419   -0.487065    1.339459
     32          1           0        5.177705   -1.575439   -0.034625
     33          1           0        1.407137   -0.659415   -1.211401
     34          1           0       -1.523307   -3.625496    0.445578
     35          1           0       -0.565607   -3.063462   -0.941664
     36          1           0       -0.181189   -2.492016    0.692528
 ---------------------------------------------------------------------

 SCF Done:  E(UB3LYP) =  -983.399325799     A.U. after   33 cycles
 SCF Done:  E(UB3LYP) =  -983.399325800     a.u. after    1 cycles

 The electronic state is 2-A.
 Alpha  occ. eigenvalues --  -19.00795 -19.00548 -19.00447 -14.29748 -14.27162
 Alpha  occ. eigenvalues --  -14.26002 -14.25013 -14.24311 -14.21754 -10.20785
 Alpha  occ. eigenvalues --  -10.19673 -10.17080 -10.15585 -10.14117 -10.13880
 Alpha  occ. eigenvalues --  -10.13758 -10.13038 -10.10328 -10.07672 -10.06825
 Alpha  occ. eigenvalues --   -0.98630  -0.98181  -0.96108  -0.95037  -0.88213
 Alpha  occ. eigenvalues --   -0.85045  -0.82382  -0.80677  -0.75135  -0.69588
 Alpha  occ. eigenvalues --   -0.68681  -0.66616  -0.60564  -0.59027  -0.56214
 Alpha  occ. eigenvalues --   -0.53980  -0.53563  -0.52557  -0.51193  -0.48687
 Alpha  occ. eigenvalues --   -0.44986  -0.42706  -0.42296  -0.40334  -0.40131
 Alpha  occ. eigenvalues --   -0.39663  -0.38149  -0.37523  -0.36325  -0.35552
 Alpha  occ. eigenvalues --   -0.34988  -0.34398  -0.34252  -0.33863  -0.33459
 Alpha  occ. eigenvalues --   -0.31865  -0.31656  -0.30684  -0.29685  -0.29530
 Alpha  occ. eigenvalues --   -0.28758  -0.28392  -0.28008  -0.26540  -0.24221
 Alpha  occ. eigenvalues --   -0.21360  -0.19922  -0.19766  -0.19545  -0.18269
 Alpha  occ. eigenvalues --   -0.17991  -0.17446  -0.17055  -0.16842   0.04093
 Alpha virt. eigenvalues --    0.06170   0.06574   0.07855   0.08157   0.08539
 Alpha virt. eigenvalues --    0.08801   0.08942   0.09393   0.09661   0.10078
 Alpha virt. eigenvalues --    0.10962   0.11503   0.11999   0.12049   0.12892

  Beta  occ. eigenvalues --  -19.00795 -19.00370 -19.00365 -14.29739 -14.27191
  Beta  occ. eigenvalues --  -14.26001 -14.24999 -14.24268 -14.21749 -10.20693
  Beta  occ. eigenvalues --  -10.19671 -10.16762 -10.15570 -10.14111 -10.13908
  Beta  occ. eigenvalues --  -10.13755 -10.13039 -10.10309 -10.07622 -10.06746
  Beta  occ. eigenvalues --   -0.98607  -0.97981  -0.96098  -0.94717  -0.88079
  Beta  occ. eigenvalues --   -0.85039  -0.82334  -0.80659  -0.75108  -0.69457
  Beta  occ. eigenvalues --   -0.68652  -0.66527  -0.60432  -0.58987  -0.55893
  Beta  occ. eigenvalues --   -0.53946  -0.53502  -0.52519  -0.51140  -0.48605
  Beta  occ. eigenvalues --   -0.44949  -0.42644  -0.42153  -0.40255  -0.39942
  Beta  occ. eigenvalues --   -0.39424  -0.38094  -0.37482  -0.36256  -0.35403
  Beta  occ. eigenvalues --   -0.34942  -0.34313  -0.34161  -0.33842  -0.33334
  Beta  occ. eigenvalues --   -0.31650  -0.31388  -0.30507  -0.29638  -0.29445
  Beta  occ. eigenvalues --   -0.28558  -0.28063  -0.27791  -0.26349  -0.24189
  Beta  occ. eigenvalues --   -0.21318  -0.19790  -0.19674  -0.19377  -0.18217
  Beta  occ. eigenvalues --   -0.17881  -0.17388  -0.16914  -0.16690
  Beta virt. eigenvalues --    0.06439   0.07161   0.07842   0.08065   0.08578
  Beta virt. eigenvalues --    0.08933   0.09104   0.09298   0.09849   0.09977
  Beta virt. eigenvalues --    0.10220   0.11248   0.11615   0.12019   0.12221

 Mulliken charges and spin densities:
               1          2
     1  C    0.266159  -0.788417
     2  C   -1.060793   1.925126
     3  C    1.124932  -1.841106
     4  O   -0.249384   0.092947
     5  N    0.098454   0.010309
     6  C    0.303640  -0.231162
     7  O   -0.380192   0.050356
     8  N   -0.228171  -0.019033
     9  C   -0.119210  -0.150739
    10  C    0.107747  -0.054367
    11  O   -0.288214   0.002545
    12  N   -0.204426  -0.009243
    13  C   -0.159668  -0.212974
    14  C   -0.009704  -0.315364
    15  C   -0.356985   0.080981
    16  N   -0.081076   0.030700
    17  C   -0.060703   0.054070
    18  N    0.155776   0.007293
    19  N   -0.305010   0.008059
    20  C    0.294808  -0.914849
    21  H   -0.268410   0.443977
    22  H    0.086013   0.074276
    23  H    0.030380   0.121505
    24  H   -0.377840   0.736915
    25  H    0.197754   0.016161
    26  H    0.223244  -0.018133
    27  H    0.322371   0.017263
    28  H    0.148445   0.042853
    29  H    0.080522   0.117726
    30  H   -0.118874   0.363720
    31  H    0.142975  -0.010337
    32  H    0.138549   0.015707
    33  H    0.346436   0.005430
    34  H   -0.818801   1.010563
    35  H    0.172856   0.019455
    36  H   -0.153602   0.317787
 Sum of Mulliken charges =  -1.00000   1.00000

 Dipole moment (field-independent basis, Debye):
    X=              3.4960    Y=              5.1652    Z=             -1.2300  Tot=              6.3572
 Quadrupole moment (field-independent basis, Debye-Ang):
   XX=           -170.1300   YY=           -170.4828   ZZ=           -165.2131
   XY=             -9.7656   XZ=             16.3040   YZ=             14.1928

 Summary of Natural Population Analysis:

                                       Natural Population
                Natural  -----------------------------------------------
    Atom  No    Charge         Core      Valence    Rydberg      Total
 -----------------------------------------------------------------------
      C    1   -0.27715      0.99961     2.27122    0.00632     3.27715
      C    2    0.02077      0.99955     1.96514    0.01454     2.97923
      C    3    0.39804      0.99958     1.57755    0.02483     2.60196
      O    4   -0.30834      0.99987     3.30343    0.00504     4.30834
      N    5   -0.27527      0.99958     2.76596    0.00972     3.77527
      C    6    0.42645      0.99967     1.55042    0.02346     2.57355
      O    7   -0.31765      0.99987     3.31243    0.00535     4.31765
      N    8   -0.32860      0.99965     2.81610    0.01285     3.82860
      C    9   -0.12970      0.99957     2.12023    0.00990     3.12970
      C   10    0.34120      0.99968     1.63606    0.02306     2.65880
      O   11   -0.31450      0.99987     3.30881    0.00582     4.31450
      N   12   -0.32199      0.99966     2.81331    0.00902     3.82199
      C   13   -0.08720      0.99961     2.07705    0.01054     3.08720
      C   14   -0.22166      0.99957     2.21344    0.00864     3.22166
      C   15    0.19050      0.99963     1.79185    0.01802     2.80950
      N   16   -0.26931      0.99970     2.76112    0.00849     3.76931
      C   17    0.07889      0.99971     1.90205    0.01935     2.92111
      N   18   -0.15504      0.99974     2.64484    0.01046     3.65504
      N   19   -0.18337      0.99963     2.67155    0.01219     3.68337
      C   20   -0.28295      0.99961     2.27557    0.00777     3.28295
      H   21    0.10413      0.00000     0.39485    0.00103     0.39587
      H   22    0.10679      0.00000     0.39239    0.00082     0.39321
      H   23    0.10083      0.00000     0.39817    0.00100     0.39917
      H   24    0.20645      0.00000     0.28447    0.00908     0.29355
      H   25    0.11203      0.00000     0.38685    0.00112     0.38797
      H   26    0.12132      0.00000     0.37751    0.00117     0.37868
      H   27    0.19604      0.00000     0.30184    0.00212     0.30396
      H   28    0.09776      0.00000     0.40135    0.00089     0.40224
      H   29    0.10904      0.00000     0.38989    0.00107     0.39096
      H   30    0.11651      0.00000     0.38219    0.00130     0.38349
      H   31    0.11330      0.00000     0.38414    0.00256     0.38670
      H   32    0.09033      0.00000     0.40891    0.00076     0.40967
      H   33    0.22377      0.00000     0.27347    0.00276     0.27623
      H   34    0.10834      0.00000     0.38808    0.00357     0.39166
      H   35    0.10790      0.00000     0.39099    0.00110     0.39210
      H   36    0.10234      0.00000     0.39594    0.00172     0.39766
 =======================================================================
   * Total *   -0.00000     19.99339    53.72916    0.27745    74.00000

 Normal termination of Gaussian 16 at Sun Dec 13 18:10:29 2020.
