 Gaussian 16, Revision A.03,

 -----------------------------------------------------------
 # opt freq B3LYP/6-31G(d) empiricaldispersion=gd3bj scf=xqc
 -----------------------------------------------------------

 ------------------------------
 CID_64048716_JID_3718_neutraal
 ------------------------------
 Symbolic Z-matrix:
 Charge =  0 Multiplicity = 1

 SCF Done:  E(RB3LYP) =  -1273.36747331     A.U. after   15 cycles
 SCF Done:  E(RB3LYP) =  -1273.37130014     A.U. after   13 cycles
 SCF Done:  E(RB3LYP) =  -1273.37236263     A.U. after   13 cycles
 SCF Done:  E(RB3LYP) =  -1273.37271252     A.U. after   14 cycles
 SCF Done:  E(RB3LYP) =  -1273.37241560     A.U. after   13 cycles
 SCF Done:  E(RB3LYP) =  -1273.37339917     A.U. after   12 cycles
 SCF Done:  E(RB3LYP) =  -1273.37357499     A.U. after   13 cycles
 SCF Done:  E(RB3LYP) =  -1273.37373513     A.U. after   12 cycles
 SCF Done:  E(RB3LYP) =  -1273.37375475     A.U. after   12 cycles
 SCF Done:  E(RB3LYP) =  -1273.37379092     A.U. after   10 cycles
 SCF Done:  E(RB3LYP) =  -1273.37379541     A.U. after   10 cycles
 SCF Done:  E(RB3LYP) =  -1273.37379631     A.U. after   10 cycles
 SCF Done:  E(RB3LYP) =  -1273.37379660     A.U. after    9 cycles
 SCF Done:  E(RB3LYP) =  -1273.37379663     A.U. after    8 cycles
 SCF Done:  E(RB3LYP) =  -1273.37379660     A.U. after    7 cycles
 Optimization completed.
    -- Stationary point found.
 Normal termination of Gaussian 16 at Sun Dec 13 15:59:40 2020.

 --------------------------------------------------------------------
 #N Geom=AllCheck Guess=TCheck SCRF=Check GenChk RB3LYP/6-31G(d) Freq
 --------------------------------------------------------------------

 Structure from the checkpoint file:  "JID_3718.chk"
 ------------------------------
 CID_64048716_JID_3718_neutraal
 ------------------------------
 Charge =  0 Multiplicity = 1

 SCF Done:  E(RB3LYP) =  -1273.37379660     A.U. after    1 cycles

  Exact polarizability: 176.939  -4.145 135.815  -3.350  -1.174  93.080
 Approx polarizability: 256.214  -5.164 226.749  -9.059  -2.498 138.800

                      1                      2                      3
                      A                      A                      A
 Frequencies --     13.9391                63.2799                75.1715
 Red. masses --      8.0192                 4.1626                 3.1233
 Frc consts  --      0.0009                 0.0098                 0.0104
 IR Inten    --      0.7325                 0.1809                 1.1897

                      4                      5                      6
                      A                      A                      A
 Frequencies --    146.1210               188.6247               226.3679
 Red. masses --      3.5313                 8.0925                 5.2637
 Frc consts  --      0.0444                 0.1696                 0.1589
 IR Inten    --      0.8524                 4.4958                 6.3628

                      7                      8                      9
                      A                      A                      A
 Frequencies --    234.3967               258.4267               262.9791
 Red. masses --      1.8809                 4.5934                 6.0355
 Frc consts  --      0.0609                 0.1807                 0.2459
 IR Inten    --      0.0645                 1.0371                 3.4800

                     10                     11                     12
                      A                      A                      A
 Frequencies --    321.0758               343.9685               364.2790
 Red. masses --      2.2047                 1.3798                 2.3170
 Frc consts  --      0.1339                 0.0962                 0.1812
 IR Inten    --      1.0271                32.2538                14.8215

                     13                     14                     15
                      A                      A                      A
 Frequencies --    399.4724               425.6381               443.5679
 Red. masses --      5.0637                 3.8181                 3.1284
 Frc consts  --      0.4761                 0.4076                 0.3627
 IR Inten    --      1.5672                 1.0095                 0.0702

                     16                     17                     18
                      A                      A                      A
 Frequencies --    467.1186               493.4035               515.7639
 Red. masses --      1.3613                 2.5682                 2.3731
 Frc consts  --      0.1750                 0.3684                 0.3719
 IR Inten    --    282.3789                 2.7953                 0.8677

                     19                     20                     21
                      A                      A                      A
 Frequencies --    599.1260               618.5337               678.4109
 Red. masses --      8.4069                 6.2018                 5.2112
 Frc consts  --      1.7780                 1.3980                 1.4131
 IR Inten    --      2.2583                22.0250                 5.1802

                     22                     23                     24
                      A                      A                      A
 Frequencies --    694.1760               728.7633               765.8792
 Red. masses --     12.0597                 2.9451                13.4119
 Frc consts  --      3.4240                 0.9215                 4.6351
 IR Inten    --     15.8266                 8.4892                13.6174

                     25                     26                     27
                      A                      A                      A
 Frequencies --    806.4748               829.8676               867.3225
 Red. masses --      1.4454                 3.1657                 1.7613
 Frc consts  --      0.5539                 1.2845                 0.7806
 IR Inten    --      0.1185                 3.4225                 0.0362

                     28                     29                     30
                      A                      A                      A
 Frequencies --    905.6149               911.7651               940.8367
 Red. masses --      1.9838                 2.0112                 1.4454
 Frc consts  --      0.9586                 0.9851                 0.7538
 IR Inten    --      3.8029                 2.6448                 1.2335

                     31                     32                     33
                      A                      A                      A
 Frequencies --    955.0561              1023.4240              1047.2504
 Red. masses --      9.9697                 2.2257                 1.9071
 Frc consts  --      5.3579                 1.3735                 1.2323
 IR Inten    --     21.3914                12.9287                 2.0219

                     34                     35                     36
                      A                      A                      A
 Frequencies --   1071.6505              1100.4314              1101.4498
 Red. masses --      1.4356                 1.2219                 2.0359
 Frc consts  --      0.9714                 0.8718                 1.4552
 IR Inten    --      0.4421                 0.4348                14.5396

                     37                     38                     39
                      A                      A                      A
 Frequencies --   1109.9924              1170.1852              1216.7489
 Red. masses --      2.4135                 2.1248                 1.4293
 Frc consts  --      1.7520                 1.7142                 1.2467
 IR Inten    --      0.0588                 0.2913                 0.4846

                     40                     41                     42
                      A                      A                      A
 Frequencies --   1251.9604              1280.4268              1301.0002
 Red. masses --      2.0237                 2.0525                 1.2906
 Frc consts  --      1.8688                 1.9827                 1.2870
 IR Inten    --    109.1268                90.0910                 1.0577

                     43                     44                     45
                      A                      A                      A
 Frequencies --   1313.8428              1326.3798              1331.9714
 Red. masses --      1.4409                 1.2925                 3.0494
 Frc consts  --      1.4654                 1.3397                 3.1875
 IR Inten    --     17.6214                 0.2158                44.7171

                     46                     47                     48
                      A                      A                      A
 Frequencies --   1342.4848              1381.9058              1389.4692
 Red. masses --      1.2516                 1.3716                 1.3290
 Frc consts  --      1.3290                 1.5433                 1.5118
 IR Inten    --      0.1926                 0.5831                 0.9899

                     49                     50                     51
                      A                      A                      A
 Frequencies --   1400.1699              1400.3956              1406.3397
 Red. masses --      1.4381                 1.4431                 1.4265
 Frc consts  --      1.6611                 1.6674                 1.6623
 IR Inten    --     17.1139                10.8042                 1.2228

                     52                     53                     54
                      A                      A                      A
 Frequencies --   1475.4294              1514.3775              1514.7539
 Red. masses --      8.8998                 1.0890                 1.0900
 Frc consts  --     11.4147                 1.4715                 1.4735
 IR Inten    --    138.4562                 0.9087                 2.3816

                     55                     56                     57
                      A                      A                      A
 Frequencies --   1523.0133              1525.3559              1540.0013
 Red. masses --      1.0909                 1.0882                 1.0951
 Frc consts  --      1.4908                 1.4917                 1.5301
 IR Inten    --      3.1433                 4.7884                 0.4256

                     58                     59                     60
                      A                      A                      A
 Frequencies --   1582.4510              1676.0243              3021.0825
 Red. masses --      3.8476                 1.3894                 1.0705
 Frc consts  --      5.6768                 2.2995                 5.7567
 IR Inten    --    224.5592               211.1148                18.4753

                     61                     62                     63
                      A                      A                      A
 Frequencies --   3022.0854              3026.4460              3029.0784
 Red. masses --      1.0677                 1.0800                 1.0620
 Frc consts  --      5.7453                 5.8281                 5.7413
 IR Inten    --     17.5506                 9.8477                53.4826

                     64                     65                     66
                      A                      A                      A
 Frequencies --   3064.6240              3066.2021              3074.6031
 Red. masses --      1.0719                 1.0725                 1.0855
 Frc consts  --      5.9316                 5.9409                 6.0461
 IR Inten    --      1.1944                30.5258                86.2561

                     67                     68                     69
                      A                      A                      A
 Frequencies --   3075.5426              3079.2176              3116.3988
 Red. masses --      1.0919                 1.0954                 1.1035
 Frc consts  --      6.0855                 6.1194                 6.3146
 IR Inten    --     60.3565                31.7493                11.4546

                     70                     71                     72
                      A                      A                      A
 Frequencies --   3123.0846              3577.7163              3690.2320
 Red. masses --      1.1014                 1.0468                 1.1014
 Frc consts  --      6.3296                 7.8945                 8.8372
 IR Inten    --     26.2648                53.5955                40.6450

 - Thermochemistry -
 -------------------
 Temperature   298.150 Kelvin.  Pressure   1.00000 Atm.
 Atom     1 has atomic number  6 and mass  12.00000

 Molecular mass:   215.05509 amu.
 Principal axes and moments of inertia in atomic units:
                           1         2         3
     Eigenvalues --  1598.269854825.498805668.12314
           X            1.00000   0.00153   0.00266
           Y           -0.00150   0.99996  -0.00911
           Z           -0.00267   0.00910   0.99995
 This molecule is an asymmetric top.
 Rotational symmetry number  1.
 Warning -- assumption of classical behavior for rotation
           may cause significant error
 Rotational temperatures (Kelvin)      0.05419     0.01795     0.01528
 Rotational constants (GHZ):           1.12918     0.37400     0.31840
 Zero-point vibrational energy     561231.7 (Joules/Mol)
                                  134.13761 (Kcal/Mol)
 Warning -- explicit consideration of  20 degrees of freedom as
           vibrations may cause significant error
 Vibrational temperatures:     20.06    91.05   108.15   210.24   271.39
          (Kelvin)            325.69   337.24   371.82   378.37   461.96
                              494.89   524.12   574.75   612.40   638.20
                              672.08   709.90   742.07   862.01   889.93
                              976.08   998.76  1048.53  1101.93  1160.34
                             1193.99  1247.88  1302.98  1311.83  1353.65
                             1374.11  1472.48  1506.76  1541.87  1583.28
                             1584.74  1597.03  1683.64  1750.63  1801.29
                             1842.25  1871.85  1890.33  1908.36  1916.41
                             1931.54  1988.25  1999.14  2014.53  2014.86
                             2023.41  2122.81  2178.85  2179.39  2191.28
                             2194.65  2215.72  2276.79  2411.43  4346.66
                             4348.11  4354.38  4358.17  4409.31  4411.58
                             4423.67  4425.02  4430.31  4483.80  4493.42
                             5147.54  5309.42

 Zero-point correction=                           0.213762 (Hartree/Particle)
 Thermal correction to Energy=                    0.226452
 Thermal correction to Enthalpy=                  0.227396
 Thermal correction to Gibbs Free Energy=         0.173172
 Sum of electronic and zero-point Energies=          -1273.160035
 Sum of electronic and thermal Energies=             -1273.147345
 Sum of electronic and thermal Enthalpies=           -1273.146401
 Sum of electronic and thermal Free Energies=        -1273.200624

                     E (Thermal)             CV                S
                      KCal/Mol        Cal/Mol-Kelvin    Cal/Mol-Kelvin
 Total                  142.101             48.733            114.123
 Electronic               0.000              0.000              0.000
 Translational            0.889              2.981             42.000
 Rotational               0.889              2.981             32.147
 Vibrational            140.323             42.772             39.976
 Vibration     1          0.593              1.986              7.351
 Vibration     2          0.597              1.972              4.352
 Vibration     3          0.599              1.966              4.013
 Vibration     4          0.617              1.907              2.722
 Vibration     5          0.633              1.855              2.241
 Vibration     6          0.650              1.801              1.908
 Vibration     7          0.654              1.788              1.845
 Vibration     8          0.667              1.749              1.672
 Vibration     9          0.670              1.741              1.642
 Vibration    10          0.707              1.633              1.305
 Vibration    11          0.723              1.588              1.194
 Vibration    12          0.738              1.546              1.104
 Vibration    13          0.766              1.471              0.965
 Vibration    14          0.787              1.414              0.873
 Vibration    15          0.803              1.375              0.815
 Vibration    16          0.824              1.323              0.746
 Vibration    17          0.849              1.265              0.675
 Vibration    18          0.871              1.215              0.620
 Vibration    19          0.957              1.034              0.451
 Vibration    20          0.978              0.993              0.419

 Optimization completed.
    -- Stationary point found.
 Normal termination of Gaussian 16 at Sun Dec 13 16:05:47 2020.

 ----------------------------------------------------------------------
 # B3LYP/6-311++G(d,p) empiricaldispersion=gd3bj scf=xqc pop=npa geom=c
 heck
 ----------------------------------------------------------------------

 --------------------------------------
 CID_64048716_JID_3718_Energie_neutraal
 --------------------------------------
 Structure from the checkpoint file:  "JID_3718.chk"
 Charge =  0 Multiplicity = 1

 SCF Done:  E(RB3LYP) =  -1273.56036307     A.U. after   14 cycles
 Normal termination of Gaussian 16 at Sun Dec 13 16:08:08 2020.

 ----------------------------------------------------------------------
 # B3LYP/6-311++G(d,p) empiricaldispersion=gd3bj scf=xqc pop=npa geom=c
 heck
 ----------------------------------------------------------------------

 ------------------------------------
 CID_64048716_JID_3718_Energie_kation
 ------------------------------------
 Structure from the checkpoint file:  "JID_3718.chk"
 Charge =  1 Multiplicity = 2

 SCF Done:  E(UB3LYP) =  -1273.27314427     A.U. after   21 cycles
 Normal termination of Gaussian 16 at Sun Dec 13 16:13:10 2020.
 Gaussian 16:  ES64L-G16RevA.03 25-Dec-2016

 ----------------------------------------------------------------------
 # B3LYP/6-311++G(d,p) empiricaldispersion=gd3bj scf=xqc pop=npa geom=c
 heck
 ----------------------------------------------------------------------

 -----------------------------------
 CID_64048716_JID_3718_Energie_anion
 -----------------------------------
 Structure from the checkpoint file:  "JID_3718.chk"
 Charge = -1 Multiplicity = 2

                         Standard orientation:
 ---------------------------------------------------------------------
 Center     Atomic      Atomic             Coordinates (Angstroms)
 Number     Number       Type             X           Y           Z
 ---------------------------------------------------------------------
      1          6           0        3.392484    1.389093    0.132597
      2          6           0        3.133931    0.502530    1.357259
      3          6           0        1.765354   -0.191185    1.270550
      4          6           0        1.642429   -0.981159   -0.038774
      5          6           0        1.908727   -0.112581   -1.275365
      6          6           0        3.276445    0.579443   -1.165016
      7         16           0        0.091757   -1.983151   -0.153453
      8          6           0       -1.228397   -0.807891   -0.039955
      9          7           0       -2.438498   -1.290962    0.123796
     10         16           0       -3.508032    0.027242    0.147281
     11          6           0       -2.179807    1.157826   -0.068459
     12          7           0       -1.021730    0.549619   -0.154958
     13          7           0       -2.323178    2.513049   -0.087595
     14          1           0        4.382274    1.856835    0.203042
     15          1           0        2.655866    2.205386    0.116245
     16          1           0        3.925695   -0.258033    1.425131
     17          1           0        3.188998    1.094305    2.279280
     18          1           0        0.970038    0.560292    1.305215
     19          1           0        1.618918   -0.863844    2.122701
     20          1           0        2.385284   -1.791821   -0.021219
     21          1           0        1.116890    0.638499   -1.352489
     22          1           0        1.862059   -0.732490   -2.177545
     23          1           0        3.434529    1.225675   -2.037384
     24          1           0        4.073285   -0.178608   -1.188696
     25          1           0       -3.218696    2.897340   -0.352816
     26          1           0       -1.517898    3.022614   -0.428421
 ---------------------------------------------------------------------

 SCF Done:  E(UB3LYP) =  -1273.55750773     A.U. after   29 cycles

 The electronic state is 2-A.
 Alpha  occ. eigenvalues --  -88.78345 -88.75058 -14.22715 -14.21078 -14.20277
 Alpha  occ. eigenvalues --  -10.17076 -10.15515 -10.11152 -10.07640 -10.07444
 Alpha  occ. eigenvalues --  -10.07205 -10.07126 -10.06794  -7.86782  -7.83699
 Alpha  occ. eigenvalues --   -5.83178  -5.82737  -5.82248  -5.80103  -5.79676
 Alpha  occ. eigenvalues --   -5.79101  -0.90467  -0.82443  -0.75589  -0.74892
 Alpha  occ. eigenvalues --   -0.69460  -0.65161  -0.65140  -0.59371  -0.52018
 Alpha  occ. eigenvalues --   -0.51568  -0.50662  -0.47094  -0.45860  -0.40627
 Alpha  occ. eigenvalues --   -0.39299  -0.38090  -0.35494  -0.34873  -0.34384
 Alpha  occ. eigenvalues --   -0.33709  -0.32627  -0.29495  -0.29085  -0.28136
 Alpha  occ. eigenvalues --   -0.25892  -0.25382  -0.24805  -0.24322  -0.23320
 Alpha  occ. eigenvalues --   -0.21759  -0.20549  -0.20216  -0.18830  -0.17377
 Alpha  occ. eigenvalues --   -0.15010  -0.11242   0.04115
 Alpha virt. eigenvalues --    0.06012   0.07591   0.07819   0.08270   0.08485
 Alpha virt. eigenvalues --    0.09391   0.10305   0.10576   0.10887   0.11465
 Alpha virt. eigenvalues --    0.11851   0.12423   0.12837   0.13669   0.14076

  Beta  occ. eigenvalues --  -88.78324 -88.75054 -14.22568 -14.20997 -14.20260
  Beta  occ. eigenvalues --  -10.17042 -10.15504 -10.11137 -10.07631 -10.07433
  Beta  occ. eigenvalues --  -10.07188 -10.07126 -10.06791  -7.86758  -7.83693
  Beta  occ. eigenvalues --   -5.83138  -5.82721  -5.82229  -5.80101  -5.79665
  Beta  occ. eigenvalues --   -5.79096  -0.90381  -0.82267  -0.75477  -0.74851
  Beta  occ. eigenvalues --   -0.69395  -0.65141  -0.65049  -0.59298  -0.51999
  Beta  occ. eigenvalues --   -0.51473  -0.50506  -0.47016  -0.45767  -0.40487
  Beta  occ. eigenvalues --   -0.39163  -0.37980  -0.35467  -0.34857  -0.34343
  Beta  occ. eigenvalues --   -0.33632  -0.32540  -0.29472  -0.29068  -0.28021
  Beta  occ. eigenvalues --   -0.25865  -0.25367  -0.24678  -0.24258  -0.23276
  Beta  occ. eigenvalues --   -0.21733  -0.20446  -0.20179  -0.18762  -0.17283
  Beta  occ. eigenvalues --   -0.14923  -0.11143
  Beta virt. eigenvalues --    0.06108   0.07661   0.07884   0.08264   0.08436
  Beta virt. eigenvalues --    0.08903   0.10009   0.10571   0.10890   0.11057
  Beta virt. eigenvalues --    0.11353   0.12478   0.12536   0.12925   0.13746

 Mulliken charges and spin densities:
               1          2
     1  C    0.260639  -0.596756
     2  C   -0.386645  -0.077341
     3  C   -0.482490  -0.103241
     4  C    0.745285   0.056506
     5  C   -0.493651  -0.147209
     6  C   -0.404776  -0.030884
     7  S    0.109014   0.012980
     8  C   -0.826200  -0.115375
     9  N   -0.001692   0.019083
    10  S    0.108296   0.081607
    11  C    0.923799  -0.811521
    12  N    0.111980  -0.154192
    13  N   -0.182651  -0.014171
    14  H   -0.145891   0.310245
    15  H    0.055975   0.073549
    16  H    0.069458   0.042653
    17  H    0.003503   0.160775
    18  H    0.195866   0.010172
    19  H    0.117873   0.035961
    20  H    0.200342   0.047574
    21  H    0.146465   0.077064
    22  H    0.112524   0.028888
    23  H   -0.130907   0.301655
    24  H    0.086776   0.022248
    25  H   -0.910784   1.212176
    26  H   -0.282109   0.557555
 Sum of Mulliken charges =  -1.00000   1.00000

 Dipole moment (field-independent basis, Debye):
    X=              6.5074    Y=             -6.8842    Z=              1.5235  Tot=              9.5948
 Quadrupole moment (field-independent basis, Debye-Ang):
   XX=           -158.1726   YY=           -150.5947   ZZ=           -114.2689
   XY=             12.3243   XZ=             -2.8934   YZ=              6.0485

 Summary of Natural Population Analysis:

                                       Natural Population
                Natural  -----------------------------------------------
    Atom  No    Charge         Core      Valence    Rydberg      Total
 -----------------------------------------------------------------------
      C    1   -0.19199      0.99963     2.18421    0.00816     3.19199
      C    2   -0.18914      0.99963     2.18000    0.00951     3.18914
      C    3   -0.20173      0.99959     2.19345    0.00869     3.20173
      C    4   -0.15499      0.99954     2.14313    0.01233     3.15499
      C    5   -0.20409      0.99959     2.19368    0.01081     3.20409
      C    6   -0.18937      0.99963     2.18045    0.00929     3.18937
      S    7    0.13133      4.99949     2.85037    0.01882     7.86867
      C    8    0.11843      0.99958     1.85807    0.02391     2.88157
      N    9   -0.33080      0.99967     2.82134    0.00980     3.83080
      S   10    0.25388      4.99945     2.72077    0.02590     7.74612
      C   11    0.14194      0.99962     1.83474    0.02370     2.85806
      N   12   -0.30589      0.99960     2.79341    0.01287     3.80589
      N   13   -0.38416      0.99968     2.87263    0.01184     3.88416
      H   14    0.09644      0.00000     0.40260    0.00096     0.40356
      H   15    0.09901      0.00000     0.39954    0.00145     0.40099
      H   16    0.08880      0.00000     0.41003    0.00117     0.41120
      H   17    0.09961      0.00000     0.39960    0.00080     0.40039
      H   18    0.11146      0.00000     0.38676    0.00178     0.38854
      H   19    0.09983      0.00000     0.39915    0.00102     0.40017
      H   20    0.09960      0.00000     0.39915    0.00125     0.40040
      H   21    0.11411      0.00000     0.38379    0.00210     0.38589
      H   22    0.09917      0.00000     0.39983    0.00101     0.40083
      H   23    0.10093      0.00000     0.39819    0.00087     0.39907
      H   24    0.08818      0.00000     0.41066    0.00116     0.41182
      H   25    0.20708      0.00000     0.25537    0.03754     0.29292
      H   26    0.20236      0.00000     0.28937    0.00826     0.29764
 =======================================================================
   * Total *    0.00000     20.99469    35.76031    0.24500    57.00000

 Normal termination of Gaussian 16 at Sun Dec 13 16:19:59 2020.
