 Gaussian 16, Revision A.03,

 -----------------------------------------------------------
 # opt freq B3LYP/6-31G(d) empiricaldispersion=gd3bj scf=xqc
 -----------------------------------------------------------

 -------------------------------
 CID_135173563_JID_2059_neutraal
 -------------------------------
 Symbolic Z-matrix:
 Charge =  0 Multiplicity = 1

 SCF Done:  E(RB3LYP) =  -898.600850120     A.U. after   13 cycles
 SCF Done:  E(RB3LYP) =  -898.610713644     A.U. after   13 cycles
 SCF Done:  E(RB3LYP) =  -898.612965689     A.U. after   12 cycles
 SCF Done:  E(RB3LYP) =  -898.613299631     A.U. after   11 cycles
 SCF Done:  E(RB3LYP) =  -898.613383461     A.U. after   10 cycles
 SCF Done:  E(RB3LYP) =  -898.613405744     A.U. after   10 cycles
 SCF Done:  E(RB3LYP) =  -898.613411917     A.U. after    9 cycles
 SCF Done:  E(RB3LYP) =  -898.613416328     A.U. after    8 cycles
 SCF Done:  E(RB3LYP) =  -898.613417590     A.U. after    8 cycles
 SCF Done:  E(RB3LYP) =  -898.613417990     A.U. after    8 cycles
 SCF Done:  E(RB3LYP) =  -898.613418061     A.U. after    7 cycles
 Optimization completed.
    -- Stationary point found.
 Normal termination of Gaussian 16 at Wed Dec  9 16:46:39 2020.

 --------------------------------------------------------------------
 #N Geom=AllCheck Guess=TCheck SCRF=Check GenChk RB3LYP/6-31G(d) Freq
 --------------------------------------------------------------------

 Structure from the checkpoint file:  "JID_2059.chk"
 -------------------------------
 CID_135173563_JID_2059_neutraal
 -------------------------------
 Charge =  0 Multiplicity = 1

 SCF Done:  E(RB3LYP) =  -898.613418061     A.U. after    1 cycles

  Exact polarizability: 148.767  -2.249 108.628   5.085   0.795 101.087
 Approx polarizability: 176.613  -1.911 155.780   7.367  -1.236 161.546

                      1                      2                      3
                      A                      A                      A
 Frequencies --     44.1209                61.4959                73.3944
 Red. masses --      4.3543                 2.6959                 2.9947
 Frc consts  --      0.0050                 0.0060                 0.0095
 IR Inten    --      0.3136                 0.0982                 0.1242

                      4                      5                      6
                      A                      A                      A
 Frequencies --     98.1317               125.2406               159.6825
 Red. masses --      3.3287                 2.4157                 1.9027
 Frc consts  --      0.0189                 0.0223                 0.0286
 IR Inten    --      2.2737                 7.0726                 3.8970

                      7                      8                      9
                      A                      A                      A
 Frequencies --    186.4942               201.0987               232.3578
 Red. masses --      3.2033                 1.0588                 2.5452
 Frc consts  --      0.0656                 0.0252                 0.0810
 IR Inten    --      0.2434                 0.2068                 4.3792

                     10                     11                     12
                      A                      A                      A
 Frequencies --    245.9143               266.5116               304.5411
 Red. masses --      1.9311                 2.1968                 3.0366
 Frc consts  --      0.0688                 0.0919                 0.1659
 IR Inten    --      2.0530                 5.3367                 0.7732

                     13                     14                     15
                      A                      A                      A
 Frequencies --    320.3758               334.4078               376.9572
 Red. masses --      1.2488                 2.5100                 2.4718
 Frc consts  --      0.0755                 0.1654                 0.2069
 IR Inten    --    109.9207                45.4975                 2.4152

                     16                     17                     18
                      A                      A                      A
 Frequencies --    401.5718               410.6854               454.8968
 Red. masses --      3.1512                 3.3278                 2.2440
 Frc consts  --      0.2994                 0.3307                 0.2736
 IR Inten    --      4.1472                 3.6353                 1.9871

                     19                     20                     21
                      A                      A                      A
 Frequencies --    474.8553               502.2874               580.3055
 Red. masses --      3.2254                 4.4788                 3.1710
 Frc consts  --      0.4285                 0.6658                 0.6292
 IR Inten    --      2.8131                 4.0793                15.9879

                     22                     23                     24
                      A                      A                      A
 Frequencies --    614.4904               704.1877               814.9985
 Red. masses --      5.0670                 2.9556                 2.2433
 Frc consts  --      1.1273                 0.8635                 0.8779
 IR Inten    --     20.4045                22.0524                 8.3524

                     25                     26                     27
                      A                      A                      A
 Frequencies --    831.4304               912.3854               945.2839
 Red. masses --      1.5074                 2.1299                 2.5212
 Frc consts  --      0.6139                 1.0447                 1.3274
 IR Inten    --      0.0875                67.4219                42.9310

                     28                     29                     30
                      A                      A                      A
 Frequencies --    975.4379               976.4485              1000.7274
 Red. masses --      2.2911                 1.8489                 2.0767
 Frc consts  --      1.2844                 1.0387                 1.2253
 IR Inten    --     61.6058                22.6117                 1.2523

                     31                     32                     33
                      A                      A                      A
 Frequencies --   1013.2066              1057.7955              1068.3563
 Red. masses --      1.6975                 2.2216                 1.5923
 Frc consts  --      1.0267                 1.4646                 1.0708
 IR Inten    --      2.1659                 8.3628                 9.3137

                     34                     35                     36
                      A                      A                      A
 Frequencies --   1074.3050              1105.7847              1129.9021
 Red. masses --      3.9070                 2.2237                 2.8102
 Frc consts  --      2.6567                 1.6020                 2.1139
 IR Inten    --    119.3146                29.0859                 3.8733

                     37                     38                     39
                      A                      A                      A
 Frequencies --   1132.5333              1151.7834              1173.8928
 Red. masses --      1.2338                 1.8159                 1.3771
 Frc consts  --      0.9324                 1.4194                 1.1181
 IR Inten    --      1.9974                12.2118                 2.7500

                     40                     41                     42
                      A                      A                      A
 Frequencies --   1175.4595              1200.1113              1234.2476
 Red. masses --      2.1957                 1.3892                 1.5208
 Frc consts  --      1.7875                 1.1788                 1.3650
 IR Inten    --      8.6621                 0.1859                14.8530

                     43                     44                     45
                      A                      A                      A
 Frequencies --   1237.3820              1277.3085              1285.0278
 Red. masses --      3.4503                 1.8763                 1.4329
 Frc consts  --      3.1126                 1.8036                 1.3941
 IR Inten    --     20.1793                 8.0245                19.0548

                     46                     47                     48
                      A                      A                      A
 Frequencies --   1308.0345              1311.5002              1342.0683
 Red. masses --      1.2385                 1.3110                 1.2817
 Frc consts  --      1.2485                 1.3286                 1.3601
 IR Inten    --      3.0893                 6.8823                 5.5925

                     49                     50                     51
                      A                      A                      A
 Frequencies --   1357.2971              1383.9918              1404.6779
 Red. masses --      1.2836                 1.2878                 1.4318
 Frc consts  --      1.3932                 1.4533                 1.6645
 IR Inten    --      0.4237                 2.6629                 4.0202

                     52                     53                     54
                      A                      A                      A
 Frequencies --   1407.8182              1420.5730              1424.7951
 Red. masses --      1.2158                 1.5414                 1.3857
 Frc consts  --      1.4197                 1.8327                 1.6574
 IR Inten    --     13.4170                 4.1011                19.5213

                     55                     56                     57
                      A                      A                      A
 Frequencies --   1440.4139              1463.0737              1489.2606
 Red. masses --      1.3086                 1.1439                 1.1568
 Frc consts  --      1.5997                 1.4427                 1.5116
 IR Inten    --     45.0586                 0.0905                 6.1384

                     58                     59                     60
                      A                      A                      A
 Frequencies --   1505.0351              1507.0035              1517.9043
 Red. masses --      1.0893                 1.0504                 1.0907
 Frc consts  --      1.4538                 1.4055                 1.4807
 IR Inten    --      1.0158                 4.0007                 3.8259

                     61                     62                     63
                      A                      A                      A
 Frequencies --   1520.3600              1526.1998              1531.0248
 Red. masses --      1.0611                 1.0801                 1.0538
 Frc consts  --      1.4451                 1.4823                 1.4554
 IR Inten    --     11.0384                 1.6798                11.1392

                     64                     65                     66
                      A                      A                      A
 Frequencies --   1531.8083              1536.8754              1545.1234
 Red. masses --      1.0861                 1.0954                 1.0477
 Frc consts  --      1.5015                 1.5244                 1.4737
 IR Inten    --      5.2297                 4.9455                 0.4743

                     67                     68                     69
                      A                      A                      A
 Frequencies --   2977.5391              2980.5323              2980.7880
 Red. masses --      1.0720                 1.0714                 1.0527
 Frc consts  --      5.5997                 5.6076                 5.5108
 IR Inten    --     12.7711                57.1830                44.5621

                     70                     71                     72
                      A                      A                      A
 Frequencies --   2983.8835              2985.1973              3020.8006
 Red. masses --      1.0710                 1.0561                 1.0797
 Frc consts  --      5.6181                 5.5452                 5.8049
 IR Inten    --     38.8432               179.4868                10.7684

                     73                     74                     75
                      A                      A                      A
 Frequencies --   3029.2817              3038.5147              3063.0489
 Red. masses --      1.0612                 1.0607                 1.0881
 Frc consts  --      5.7374                 5.7697                 6.0147
 IR Inten    --     33.6353                47.9377                 4.1591

                     76                     77                     78
                      A                      A                      A
 Frequencies --   3064.9857              3075.1259              3079.7707
 Red. masses --      1.0841                 1.1029                 1.1025
 Frc consts  --      6.0004                 6.1451                 6.1613
 IR Inten    --     72.8992                40.2518                37.6025

                     79                     80                     81
                      A                      A                      A
 Frequencies --   3094.7160              3106.9366              3109.3746
 Red. masses --      1.0943                 1.0909                 1.0920
 Frc consts  --      6.1746                 6.2046                 6.2202
 IR Inten    --     58.1161                26.0273                18.7586

                     82                     83                     84
                      A                      A                      A
 Frequencies --   3150.3849              3152.4736              3756.6464
 Red. masses --      1.0967                 1.0972                 1.0660
 Frc consts  --      6.4132                 6.4248                 8.8638
 IR Inten    --     15.3638                18.1888                 9.8131

 - Thermochemistry -
 -------------------
 Temperature   298.150 Kelvin.  Pressure   1.00000 Atm.
 Atom     1 has atomic number  6 and mass  12.00000

 Molecular mass:   190.11399 amu.
 Principal axes and moments of inertia in atomic units:
                           1         2         3
     Eigenvalues --   955.559835092.194065332.62404
           X            0.99983  -0.00684   0.01727
           Y            0.00612   0.99913   0.04125
           Z           -0.01754  -0.04113   0.99900
 This molecule is an asymmetric top.
 Rotational symmetry number  1.
 Warning -- assumption of classical behavior for rotation
           may cause significant error
 Rotational temperatures (Kelvin)      0.09064     0.01701     0.01624
 Rotational constants (GHZ):           1.88867     0.35441     0.33843
 Zero-point vibrational energy     700250.0 (Joules/Mol)
                                  167.36376 (Kcal/Mol)
 Warning -- explicit consideration of  22 degrees of freedom as
           vibrations may cause significant error
 Vibrational temperatures:     63.48    88.48   105.60   141.19   180.19
          (Kelvin)            229.75   268.32   289.34   334.31   353.82
                              383.45   438.17   460.95   481.14   542.36
                              577.77   590.88   654.50   683.21   722.68
                              834.93   884.11  1013.17  1172.60  1196.24
                             1312.72  1360.05  1403.44  1404.89  1439.82
                             1457.78  1521.93  1537.13  1545.69  1590.98
                             1625.68  1629.46  1657.16  1688.97  1691.22
                             1726.69  1775.81  1780.32  1837.76  1848.87
                             1881.97  1886.96  1930.94  1952.85  1991.26
                             2021.02  2025.54  2043.89  2049.96  2072.43
                             2105.04  2142.71  2165.41  2168.24  2183.93
                             2187.46  2195.86  2202.80  2203.93  2211.22
                             2223.09  4284.01  4288.32  4288.69  4293.14
                             4295.03  4346.26  4358.46  4371.74  4407.04
                             4409.83  4424.42  4431.10  4452.61  4470.19
                             4473.70  4532.70  4535.71  5404.98

 Zero-point correction=                           0.266711 (Hartree/Particle)
 Thermal correction to Energy=                    0.280745
 Thermal correction to Enthalpy=                  0.281690
 Thermal correction to Gibbs Free Energy=         0.225739
 Sum of electronic and zero-point Energies=           -898.346707
 Sum of electronic and thermal Energies=              -898.332673
 Sum of electronic and thermal Enthalpies=            -898.331728
 Sum of electronic and thermal Free Energies=         -898.387679

                     E (Thermal)             CV                S
                      KCal/Mol        Cal/Mol-Kelvin    Cal/Mol-Kelvin
 Total                  176.170             51.688            117.758
 Electronic               0.000              0.000              0.000
 Translational            0.889              2.981             41.633
 Rotational               0.889              2.981             31.629
 Vibrational            174.393             45.727             44.496
 Vibration     1          0.595              1.980              5.065
 Vibration     2          0.597              1.973              4.409
 Vibration     3          0.599              1.967              4.060
 Vibration     4          0.604              1.950              3.491
 Vibration     5          0.610              1.928              3.018
 Vibration     6          0.622              1.892              2.554
 Vibration     7          0.632              1.858              2.262
 Vibration     8          0.638              1.838              2.123
 Vibration     9          0.653              1.791              1.861
 Vibration    10          0.660              1.770              1.760
 Vibration    11          0.672              1.735              1.619
 Vibration    12          0.695              1.665              1.392
 Vibration    13          0.706              1.635              1.308
 Vibration    14          0.716              1.607              1.239
 Vibration    15          0.748              1.519              1.051
 Vibration    16          0.767              1.467              0.957
 Vibration    17          0.775              1.447              0.924
 Vibration    18          0.813              1.350              0.781
 Vibration    19          0.832              1.306              0.724
 Vibration    20          0.858              1.245              0.652
 Vibration    21          0.937              1.074              0.485
 Vibration    22          0.974              1.001              0.425

                           ! Non-Optimized Parameters !
 Normal termination of Gaussian 16 at Wed Dec  9 16:53:19 2020.

 ----------------------------------------------------------------------
 # B3LYP/6-311++G(d,p) empiricaldispersion=gd3bj scf=xqc pop=npa geom=c
 heck
 ----------------------------------------------------------------------

 ---------------------------------------
 CID_135173563_JID_2059_Energie_neutraal
 ---------------------------------------
 Structure from the checkpoint file:  "JID_2059.chk"
 Charge =  0 Multiplicity = 1

 SCF Done:  E(RB3LYP) =  -898.792680685     A.U. after   14 cycles
 Normal termination of Gaussian 16 at Wed Dec  9 16:56:01 2020.

 ----------------------------------------------------------------------
 # B3LYP/6-311++G(d,p) empiricaldispersion=gd3bj scf=xqc pop=npa geom=c
 heck
 ----------------------------------------------------------------------

 -------------------------------------
 CID_135173563_JID_2059_Energie_kation
 -------------------------------------
 Structure from the checkpoint file:  "JID_2059.chk"
 Charge =  1 Multiplicity = 2

 SCF Done:  E(UB3LYP) =  -898.480378676     A.U. after   33 cycles
 SCF Done:  E(UB3LYP) =  -898.480378676     a.u. after    2 cycles
 Normal termination of Gaussian 16 at Wed Dec  9 17:11:38 2020.
 Gaussian 16:  ES64L-G16RevA.03 25-Dec-2016

 ----------------------------------------------------------------------
 # B3LYP/6-311++G(d,p) empiricaldispersion=gd3bj scf=xqc pop=npa geom=c
 heck
 ----------------------------------------------------------------------

 ------------------------------------
 CID_135173563_JID_2059_Energie_anion
 ------------------------------------
 Structure from the checkpoint file:  "JID_2059.chk"
 Charge = -1 Multiplicity = 2

                         Standard orientation:
 ---------------------------------------------------------------------
 Center     Atomic      Atomic             Coordinates (Angstroms)
 Number     Number       Type             X           Y           Z
 ---------------------------------------------------------------------
      1          6           0        3.362281   -1.478688    0.668597
      2          7           0        2.745997   -0.169392    0.476265
      3          6           0        3.525471    0.924223    1.048608
      4         16           0        2.047452    0.123701   -1.075942
      5          7           0        0.366518    0.194403   -0.799752
      6          6           0       -0.246508   -1.070522   -0.371286
      7          6           0       -1.771143   -0.983751   -0.462118
      8          6           0       -2.317966    0.192738    0.357234
      9          6           0       -1.604892    1.481337   -0.072037
     10          6           0       -0.084074    1.335373    0.010144
     11          6           0       -3.836702    0.333218    0.229097
     12          8           0       -4.553468   -0.806133    0.690902
     13          1           0        3.485628   -1.662802    1.743716
     14          1           0        4.355215   -1.564669    0.194873
     15          1           0        2.713173   -2.253534    0.256723
     16          1           0        4.531164    1.018974    0.604383
     17          1           0        2.993538    1.866744    0.907099
     18          1           0        3.648598    0.751874    2.125709
     19          1           0        0.049713   -1.311334    0.664296
     20          1           0        0.134489   -1.863325   -1.021001
     21          1           0       -2.198357   -1.930457   -0.107359
     22          1           0       -2.057148   -0.859486   -1.516286
     23          1           0       -2.092664    0.003166    1.417367
     24          1           0       -1.880217    1.724868   -1.107093
     25          1           0       -1.921237    2.323221    0.557261
     26          1           0        0.410594    2.232290   -0.372853
     27          1           0        0.221386    1.204807    1.062682
     28          1           0       -4.184106    1.168858    0.846074
     29          1           0       -4.097515    0.568534   -0.816858
     30          1           0       -4.390144   -1.526532    0.064095
 ---------------------------------------------------------------------

 SCF Done:  E(UB3LYP) =  -898.777766117     A.U. after   31 cycles

 The electronic state is 2-A.
 Alpha  occ. eigenvalues --  -88.77649 -19.02767 -14.23194 -14.22824 -10.12108
 Alpha  occ. eigenvalues --  -10.10099 -10.09806 -10.09288 -10.09286 -10.07903
 Alpha  occ. eigenvalues --  -10.07705 -10.07160  -7.85834  -5.82365  -5.81931
 Alpha  occ. eigenvalues --   -5.81053  -0.92858  -0.85205  -0.81218  -0.71800
 Alpha  occ. eigenvalues --   -0.66400  -0.63181  -0.61304  -0.58250  -0.53756
 Alpha  occ. eigenvalues --   -0.52168  -0.48835  -0.46128  -0.41833  -0.40827
 Alpha  occ. eigenvalues --   -0.36763  -0.36507  -0.36148  -0.35905  -0.35528
 Alpha  occ. eigenvalues --   -0.34778  -0.32601  -0.31118  -0.30571  -0.29658
 Alpha  occ. eigenvalues --   -0.29354  -0.27587  -0.27335  -0.25953  -0.25198
 Alpha  occ. eigenvalues --   -0.24200  -0.22908  -0.22126  -0.18125  -0.14690
 Alpha  occ. eigenvalues --   -0.13786  -0.13245   0.04413
 Alpha virt. eigenvalues --    0.05868   0.06879   0.08050   0.08228   0.08499
 Alpha virt. eigenvalues --    0.09143   0.10126   0.10678   0.10806   0.10991
 Alpha virt. eigenvalues --    0.11296   0.12050   0.12317   0.12957   0.13474

  Beta  occ. eigenvalues --  -88.77648 -19.02734 -14.23184 -14.22819 -10.12091
  Beta  occ. eigenvalues --  -10.10087 -10.09792 -10.09252 -10.09248 -10.07899
  Beta  occ. eigenvalues --  -10.07696 -10.07129  -7.85832  -5.82364  -5.81929
  Beta  occ. eigenvalues --   -5.81051  -0.92788  -0.85185  -0.81197  -0.71770
  Beta  occ. eigenvalues --   -0.66370  -0.63150  -0.61244  -0.58196  -0.53705
  Beta  occ. eigenvalues --   -0.52111  -0.48782  -0.46083  -0.41772  -0.40793
  Beta  occ. eigenvalues --   -0.36737  -0.36475  -0.36105  -0.35867  -0.35479
  Beta  occ. eigenvalues --   -0.34741  -0.32565  -0.31083  -0.30546  -0.29619
  Beta  occ. eigenvalues --   -0.29310  -0.27548  -0.27297  -0.25918  -0.25165
  Beta  occ. eigenvalues --   -0.24162  -0.22880  -0.22099  -0.18086  -0.14646
  Beta  occ. eigenvalues --   -0.13780  -0.13212
  Beta virt. eigenvalues --    0.06585   0.06922   0.07574   0.08377   0.08812
  Beta virt. eigenvalues --    0.08849   0.09834   0.10538   0.10848   0.11056
  Beta virt. eigenvalues --    0.11168   0.11650   0.12194   0.12730   0.13105

 Mulliken charges and spin densities:
               1          2
     1  C    0.735452  -1.054742
     2  N   -0.432501   0.225100
     3  C    0.888792  -1.201277
     4  S   -0.259045   0.327488
     5  N    0.187519   0.054047
     6  C   -0.436633   0.032647
     7  C    1.091310  -1.659583
     8  C   -1.476820   2.003015
     9  C    0.080648  -0.773662
    10  C   -0.053031  -0.235319
    11  C    0.874149  -1.500319
    12  O   -0.232414  -0.003475
    13  H   -0.212849   0.359455
    14  H   -0.254255   0.371689
    15  H   -0.275400   0.410439
    16  H   -0.276870   0.394722
    17  H   -0.301501   0.436440
    18  H   -0.269241   0.416662
    19  H    0.209411  -0.026724
    20  H   -0.148249   0.315131
    21  H   -0.177397   0.300422
    22  H   -0.137337   0.312728
    23  H    0.012236   0.166103
    24  H    0.079778   0.082193
    25  H   -0.025073   0.168227
    26  H   -0.007905   0.163508
    27  H    0.054755   0.122722
    28  H   -0.024281   0.188022
    29  H   -0.053533   0.197216
    30  H   -0.159713   0.407123
 Sum of Mulliken charges =  -1.00000   1.00000

 Dipole moment (field-independent basis, Debye):
    X=             -1.0128    Y=              2.6553    Z=             -2.0978  Tot=              3.5323
 Quadrupole moment (field-independent basis, Debye-Ang):
   XX=           -177.8956   YY=           -123.2687   ZZ=           -118.0108
   XY=             -8.6820   XZ=             -6.3116   YZ=             -1.1894

 Summary of Natural Population Analysis:

                                       Natural Population
                Natural  -----------------------------------------------
    Atom  No    Charge         Core      Valence    Rydberg      Total
 -----------------------------------------------------------------------
      C    1   -0.17381      0.99963     2.16460    0.00958     3.17381
      N    2   -0.35249      0.99977     2.83925    0.01347     3.85249
      C    3   -0.17366      0.99963     2.16442    0.00961     3.17366
      S    4    0.27293      4.99953     2.70167    0.02587     7.72707
      N    5   -0.33468      0.99972     2.82204    0.01292     3.83468
      C    6   -0.08478      0.99960     2.07199    0.01319     3.08478
      C    7   -0.19914      0.99960     2.18762    0.01192     3.19914
      C    8   -0.12379      0.99958     2.11516    0.00905     3.12379
      C    9   -0.19249      0.99960     2.18501    0.00788     3.19249
      C   10   -0.08548      0.99960     2.07315    0.01273     3.08548
      C   11   -0.00317      0.99956     1.98974    0.01387     3.00317
      O   12   -0.36881      0.99990     3.36229    0.00662     4.36881
      H   13    0.09588      0.00000     0.40261    0.00152     0.40412
      H   14    0.08284      0.00000     0.41563    0.00153     0.41716
      H   15    0.10056      0.00000     0.39816    0.00128     0.39944
      H   16    0.08294      0.00000     0.41546    0.00160     0.41706
      H   17    0.09998      0.00000     0.39865    0.00137     0.40002
      H   18    0.09604      0.00000     0.40231    0.00166     0.40396
      H   19    0.08674      0.00000     0.41130    0.00196     0.41326
      H   20    0.10246      0.00000     0.39625    0.00128     0.39754
      H   21    0.10345      0.00000     0.39486    0.00168     0.39655
      H   22    0.09653      0.00000     0.40164    0.00183     0.40347
      H   23    0.09694      0.00000     0.40114    0.00192     0.40306
      H   24    0.09659      0.00000     0.40177    0.00164     0.40341
      H   25    0.10035      0.00000     0.39851    0.00113     0.39965
      H   26    0.10119      0.00000     0.39766    0.00115     0.39881
      H   27    0.08711      0.00000     0.41109    0.00180     0.41289
      H   28    0.08473      0.00000     0.41411    0.00116     0.41527
      H   29    0.07466      0.00000     0.42400    0.00135     0.42534
      H   30    0.23039      0.00000     0.26460    0.00501     0.26961
 =======================================================================
   * Total *    0.00000     15.99573    35.82670    0.17757    52.00000

 Normal termination of Gaussian 16 at Wed Dec  9 17:19:51 2020.
