 Gaussian 16, Revision A.03,

 -----------------------------------------------------------
 # opt freq B3LYP/6-31G(d) empiricaldispersion=gd3bj scf=xqc
 -----------------------------------------------------------

 -------------------------------
 CID_107784737_JID_3939_neutraal
 -------------------------------
 Symbolic Z-matrix:
 Charge =  0 Multiplicity = 1

 SCF Done:  E(RB3LYP) =  -1258.51590610     A.U. after   14 cycles
 SCF Done:  E(RB3LYP) =  -1258.51970213     A.U. after   13 cycles
 SCF Done:  E(RB3LYP) =  -1258.51795486     A.U. after   14 cycles
 SCF Done:  E(RB3LYP) =  -1258.52028660     A.U. after   12 cycles
 SCF Done:  E(RB3LYP) =  -1258.52028568     A.U. after   12 cycles
 SCF Done:  E(RB3LYP) =  -1258.52084982     A.U. after   12 cycles
 SCF Done:  E(RB3LYP) =  -1258.52104329     A.U. after   11 cycles
 SCF Done:  E(RB3LYP) =  -1258.52100593     A.U. after   11 cycles
 SCF Done:  E(RB3LYP) =  -1258.52113475     A.U. after   11 cycles
 SCF Done:  E(RB3LYP) =  -1258.52114183     A.U. after   10 cycles
 SCF Done:  E(RB3LYP) =  -1258.52274761     A.U. after   12 cycles
 SCF Done:  E(RB3LYP) =  -1258.52277284     A.U. after   11 cycles
 SCF Done:  E(RB3LYP) =  -1258.52277142     A.U. after   10 cycles
 SCF Done:  E(RB3LYP) =  -1258.52277315     A.U. after   10 cycles
 SCF Done:  E(RB3LYP) =  -1258.52277315     A.U. after    8 cycles
 SCF Done:  E(RB3LYP) =  -1258.52277316     A.U. after    7 cycles
 Optimization completed.
    -- Stationary point found.
 Normal termination of Gaussian 16 at Mon Dec 14 17:07:06 2020.

 --------------------------------------------------------------------
 #N Geom=AllCheck Guess=TCheck SCRF=Check GenChk RB3LYP/6-31G(d) Freq
 --------------------------------------------------------------------

 Structure from the checkpoint file:  "JID_3939.chk"
 -------------------------------
 CID_107784737_JID_3939_neutraal
 -------------------------------
 Charge =  0 Multiplicity = 1

 SCF Done:  E(RB3LYP) =  -1258.52277316     A.U. after    1 cycles

  Exact polarizability: 150.242 -22.449 135.941  -7.943   0.659 117.195
 Approx polarizability: 189.617 -37.811 208.571 -17.082   0.900 205.035

                      1                      2                      3
                      A                      A                      A
 Frequencies --     19.4782                22.3931                43.9351
 Red. masses --      5.2243                 5.2112                 4.2095
 Frc consts  --      0.0012                 0.0015                 0.0048
 IR Inten    --      1.1043                 3.5244                 3.9748

                      4                      5                      6
                      A                      A                      A
 Frequencies --     71.5322                88.7835                98.6495
 Red. masses --      3.6379                 6.6163                 3.2207
 Frc consts  --      0.0110                 0.0307                 0.0185
 IR Inten    --      0.8675                 0.8415                 8.2549

                      7                      8                      9
                      A                      A                      A
 Frequencies --    149.0019               220.5558               240.9793
 Red. masses --      5.2610                 1.9804                 2.8416
 Frc consts  --      0.0688                 0.0568                 0.0972
 IR Inten    --      1.7275                 2.1937                15.3546

                     10                     11                     12
                      A                      A                      A
 Frequencies --    251.5682               269.8842               279.4806
 Red. masses --      1.5971                 2.3474                 1.8493
 Frc consts  --      0.0596                 0.1007                 0.0851
 IR Inten    --      4.3344                 8.6648                 2.5605

                     13                     14                     15
                      A                      A                      A
 Frequencies --    293.3317               343.5231               370.0532
 Red. masses --      1.4667                 4.3523                 1.9467
 Frc consts  --      0.0744                 0.3026                 0.1571
 IR Inten    --      6.3764                 2.5066                 0.2759

                     16                     17                     18
                      A                      A                      A
 Frequencies --    381.5609               444.5187               489.5980
 Red. masses --      1.9566                 2.8590                 6.6622
 Frc consts  --      0.1678                 0.3328                 0.9409
 IR Inten    --      0.0581                 1.3451                 9.3180

                     19                     20                     21
                      A                      A                      A
 Frequencies --    511.5609               561.8362               637.4599
 Red. masses --      1.5169                 2.0914                 2.9488
 Frc consts  --      0.2339                 0.3890                 0.7060
 IR Inten    --     73.6103                 2.8108                16.1511

                     22                     23                     24
                      A                      A                      A
 Frequencies --    640.5173               656.7237               692.4012
 Red. masses --      3.9186                 4.9526                 2.0946
 Frc consts  --      0.9472                 1.2585                 0.5916
 IR Inten    --      2.2856                10.6374                18.3828

                     25                     26                     27
                      A                      A                      A
 Frequencies --    722.6255               746.7186               760.0512
 Red. masses --      1.8627                 2.2511                 1.2932
 Frc consts  --      0.5731                 0.7395                 0.4402
 IR Inten    --     19.6768                 7.8779                 1.6833

                     28                     29                     30
                      A                      A                      A
 Frequencies --    847.0326               873.0594               897.6688
 Red. masses --      1.2769                 1.7943                 1.8522
 Frc consts  --      0.5398                 0.8058                 0.8794
 IR Inten    --      9.1744                 2.0344                 2.0122

                     31                     32                     33
                      A                      A                      A
 Frequencies --    929.4270               932.6593               944.7184
 Red. masses --      1.6304                 6.2409                 1.6977
 Frc consts  --      0.8298                 3.1985                 0.8927
 IR Inten    --      2.0699                 3.3235                10.7372

                     34                     35                     36
                      A                      A                      A
 Frequencies --    977.1397              1009.8548              1030.6400
 Red. masses --      3.7559                 1.5559                 1.9205
 Frc consts  --      2.1129                 0.9349                 1.2020
 IR Inten    --      6.3080                 1.8643                 2.6504

                     37                     38                     39
                      A                      A                      A
 Frequencies --   1039.1911              1093.8118              1102.4819
 Red. masses --      2.0529                 2.1586                 1.5304
 Frc consts  --      1.3062                 1.5216                 1.0960
 IR Inten    --      6.9840                 5.0649                31.0836

                     40                     41                     42
                      A                      A                      A
 Frequencies --   1122.0175              1133.0585              1159.2484
 Red. masses --      1.6584                 1.6424                 1.4404
 Frc consts  --      1.2301                 1.2423                 1.1405
 IR Inten    --     10.3658                 0.2712                 5.4505

                     43                     44                     45
                      A                      A                      A
 Frequencies --   1189.1867              1228.4093              1239.7681
 Red. masses --      2.8187                 1.2709                 2.1820
 Frc consts  --      2.3486                 1.1300                 1.9760
 IR Inten    --      4.3045                 6.9421                 2.2296

                     46                     47                     48
                      A                      A                      A
 Frequencies --   1240.5301              1249.3000              1301.5107
 Red. masses --      1.2976                 1.2969                 1.2341
 Frc consts  --      1.1766                 1.1926                 1.2317
 IR Inten    --      3.1128                 4.0724                 2.5380

                     49                     50                     51
                      A                      A                      A
 Frequencies --   1333.0245              1347.4744              1367.0007
 Red. masses --      1.2793                 1.2318                 1.2404
 Frc consts  --      1.3393                 1.3178                 1.3657
 IR Inten    --     18.1663                27.9281                 7.0106

                     52                     53                     54
                      A                      A                      A
 Frequencies --   1377.6711              1390.0718              1409.1466
 Red. masses --      3.4888                 1.3825                 1.4043
 Frc consts  --      3.9014                 1.5740                 1.6429
 IR Inten    --     22.7576                 4.4637                 5.0695

                     55                     56                     57
                      A                      A                      A
 Frequencies --   1426.3364              1446.6172              1449.5202
 Red. masses --      1.3744                 2.1531                 1.5688
 Frc consts  --      1.6475                 2.6548                 1.9421
 IR Inten    --      1.4206                31.4035                13.9520

                     58                     59                     60
                      A                      A                      A
 Frequencies --   1481.8512              1495.3951              1497.0208
 Red. masses --      3.3193                 1.1103                 1.1016
 Frc consts  --      4.2944                 1.4628                 1.4545
 IR Inten    --     23.4027                 1.1447                 7.6051

                     61                     62                     63
                      A                      A                      A
 Frequencies --   1502.6096              1507.9942              1532.7002
 Red. masses --      1.1051                 1.0986                 1.0619
 Frc consts  --      1.4701                 1.4719                 1.4698
 IR Inten    --     10.2224                 5.1765                 3.1115

                     64                     65                     66
                      A                      A                      A
 Frequencies --   1548.5431              1569.5319              2686.8519
 Red. masses --      1.0492                 3.2762                 1.0386
 Frc consts  --      1.4824                 4.7551                 4.4175
 IR Inten    --      6.2548                32.5542                22.8082

                     67                     68                     69
                      A                      A                      A
 Frequencies --   3014.9519              3038.4206              3042.4199
 Red. masses --      1.0682                 1.0549                 1.0654
 Frc consts  --      5.7210                 5.7381                 5.8101
 IR Inten    --     23.2465                10.4779                28.8754

                     70                     71                     72
                      A                      A                      A
 Frequencies --   3053.9148              3074.1925              3085.5701
 Red. masses --      1.0614                 1.0908                 1.0663
 Frc consts  --      5.8322                 6.0735                 5.9812
 IR Inten    --     38.2655                10.1828                22.3617

                     73                     74                     75
                      A                      A                      A
 Frequencies --   3087.5289              3095.7416              3098.9538
 Red. masses --      1.0855                 1.0794                 1.0987
 Frc consts  --      6.0966                 6.0946                 6.2170
 IR Inten    --     24.2478                 9.7146                56.5686

                     76                     77                     78
                      A                      A                      A
 Frequencies --   3132.9388              3142.8200              3152.7097
 Red. masses --      1.1042                 1.0992                 1.1030
 Frc consts  --      6.3855                 6.3970                 6.4594
 IR Inten    --     15.4843                 7.9154                 1.8060

                     79                     80                     81
                      A                      A                      A
 Frequencies --   3266.1091              3298.2757              3653.8535
 Red. masses --      1.0925                 1.1036                 1.0810
 Frc consts  --      6.8667                 7.0734                 8.5031
 IR Inten    --      7.1561                 2.8691                53.7512

 - Thermochemistry -
 -------------------
 Temperature   298.150 Kelvin.  Pressure   1.00000 Atm.
 Atom     1 has atomic number  6 and mass  12.00000

 Molecular mass:   216.07549 amu.
 Principal axes and moments of inertia in atomic units:
                           1         2         3
     Eigenvalues --  1532.491956199.221246884.71009
           X            1.00000  -0.00231  -0.00085
           Y            0.00232   0.99979   0.02037
           Z            0.00080  -0.02037   0.99979
 This molecule is an asymmetric top.
 Rotational symmetry number  1.
 Warning -- assumption of classical behavior for rotation
           may cause significant error
 Rotational temperatures (Kelvin)      0.05652     0.01397     0.01258
 Rotational constants (GHZ):           1.17765     0.29112     0.26214
 Zero-point vibrational energy     640942.4 (Joules/Mol)
                                  153.18890 (Kcal/Mol)
 Warning -- explicit consideration of  20 degrees of freedom as
           vibrations may cause significant error
 Vibrational temperatures:     28.02    32.22    63.21   102.92   127.74
          (Kelvin)            141.93   214.38   317.33   346.72   361.95
                              388.30   402.11   422.04   494.25   532.42
                              548.98   639.56   704.42   736.02   808.36
                              917.16   921.56   944.88   996.21  1039.70
                             1074.36  1093.54  1218.69  1256.14  1291.55
                             1337.24  1341.89  1359.24  1405.89  1452.96
                             1482.86  1495.16  1573.75  1586.23  1614.33
                             1630.22  1667.90  1710.97  1767.41  1783.75
                             1784.85  1797.46  1872.58  1917.92  1938.72
                             1966.81  1982.16  2000.00  2027.45  2052.18
                             2081.36  2085.54  2132.05  2151.54  2153.88
                             2161.92  2169.67  2205.21  2228.01  2258.21
                             3865.78  4337.84  4371.61  4377.36  4393.90
                             4423.08  4439.45  4442.27  4454.08  4458.70
                             4507.60  4521.82  4536.05  4699.20  4745.48
                             5257.08

 Zero-point correction=                           0.244122 (Hartree/Particle)
 Thermal correction to Energy=                    0.258892
 Thermal correction to Enthalpy=                  0.259836
 Thermal correction to Gibbs Free Energy=         0.199552
 Sum of electronic and zero-point Energies=          -1258.278651
 Sum of electronic and thermal Energies=             -1258.263881
 Sum of electronic and thermal Enthalpies=           -1258.262937
 Sum of electronic and thermal Free Energies=        -1258.323221

                     E (Thermal)             CV                S
                      KCal/Mol        Cal/Mol-Kelvin    Cal/Mol-Kelvin
 Total                  162.457             54.057            126.879
 Electronic               0.000              0.000              0.000
 Translational            0.889              2.981             42.015
 Rotational               0.889              2.981             32.547
 Vibrational            160.680             48.095             52.317
 Vibration     1          0.593              1.986              6.687
 Vibration     2          0.593              1.985              6.410
 Vibration     3          0.595              1.980              5.073
 Vibration     4          0.598              1.968              4.111
 Vibration     5          0.602              1.957              3.687
 Vibration     6          0.604              1.950              3.481
 Vibration     7          0.618              1.904              2.685
 Vibration     8          0.647              1.810              1.955
 Vibration     9          0.658              1.778              1.796
 Vibration    10          0.664              1.760              1.720
 Vibration    11          0.674              1.729              1.597
 Vibration    12          0.680              1.712              1.537
 Vibration    13          0.688              1.686              1.455
 Vibration    14          0.722              1.588              1.196
 Vibration    15          0.742              1.534              1.080
 Vibration    16          0.751              1.509              1.033
 Vibration    17          0.804              1.373              0.813
 Vibration    18          0.845              1.273              0.685
 Vibration    19          0.867              1.224              0.630
 Vibration    20          0.918              1.114              0.520

 Optimization completed.
    -- Stationary point found.
 Normal termination of Gaussian 16 at Mon Dec 14 17:14:42 2020.

 ----------------------------------------------------------------------
 # B3LYP/6-311++G(d,p) empiricaldispersion=gd3bj scf=xqc pop=npa geom=c
 heck
 ----------------------------------------------------------------------

 ---------------------------------------
 CID_107784737_JID_3939_Energie_neutraal
 ---------------------------------------
 Structure from the checkpoint file:  "JID_3939.chk"
 Charge =  0 Multiplicity = 1

 SCF Done:  E(RB3LYP) =  -1258.70991600     A.U. after   15 cycles
 Normal termination of Gaussian 16 at Mon Dec 14 17:18:36 2020.

 ----------------------------------------------------------------------
 # B3LYP/6-311++G(d,p) empiricaldispersion=gd3bj scf=xqc pop=npa geom=c
 heck
 ----------------------------------------------------------------------

 -------------------------------------
 CID_107784737_JID_3939_Energie_kation
 -------------------------------------
 Structure from the checkpoint file:  "JID_3939.chk"
 Charge =  1 Multiplicity = 2

 SCF Done:  E(UB3LYP) =  -1258.42894413     A.U. after   22 cycles
 Normal termination of Gaussian 16 at Mon Dec 14 17:26:46 2020.
 Gaussian 16:  ES64L-G16RevA.03 25-Dec-2016

 ----------------------------------------------------------------------
 # B3LYP/6-311++G(d,p) empiricaldispersion=gd3bj scf=xqc pop=npa geom=c
 heck
 ----------------------------------------------------------------------

 ------------------------------------
 CID_107784737_JID_3939_Energie_anion
 ------------------------------------
 Structure from the checkpoint file:  "JID_3939.chk"
 Charge = -1 Multiplicity = 2

                         Standard orientation:
 ---------------------------------------------------------------------
 Center     Atomic      Atomic             Coordinates (Angstroms)
 Number     Number       Type             X           Y           Z
 ---------------------------------------------------------------------
      1          6           0       -0.729905   -1.217952    1.049937
      2          6           0       -0.873532   -0.343356   -0.202383
      3          6           0       -2.009963   -0.832526   -1.130273
      4          6           0       -3.359372   -1.197722   -0.503996
      5         16           0       -4.392883    0.182803    0.153417
      6          6           0       -0.973811    1.154385    0.140314
      7          6           0        0.294387    1.775932    0.731373
      8         16           0        1.732325    1.854788   -0.422624
      9          6           0        2.499637    0.304879   -0.068499
     10          7           0        2.587173   -0.300149    1.099710
     11          6           0        3.293913   -1.462642    0.861889
     12          6           0        3.651406   -1.552397   -0.458448
     13          7           0        3.130304   -0.414047   -1.048667
     14          1           0       -1.570349   -1.071297    1.740460
     15          1           0        0.195517   -0.989593    1.584502
     16          1           0       -0.700347   -2.281276    0.783037
     17          1           0        0.044529   -0.464281   -0.792468
     18          1           0       -2.172739   -0.096656   -1.927217
     19          1           0       -1.657060   -1.750969   -1.622886
     20          1           0       -3.997140   -1.645129   -1.272669
     21          1           0       -3.245380   -1.947373    0.283010
     22          1           0       -3.717067    0.373407    1.304925
     23          1           0       -1.257123    1.715842   -0.757883
     24          1           0       -1.777464    1.322807    0.867324
     25          1           0        0.111535    2.819002    1.004979
     26          1           0        0.650521    1.253919    1.622054
     27          1           0        3.505339   -2.159386    1.660995
     28          1           0        4.211020   -2.284162   -1.020357
     29          1           0        3.166247   -0.168556   -2.027275
 ---------------------------------------------------------------------

 SCF Done:  E(UB3LYP) =  -1258.70064943     A.U. after   30 cycles

 The electronic state is 2-A.
 Alpha  occ. eigenvalues --  -88.76116 -88.75064 -14.26875 -14.20056 -10.15435
 Alpha  occ. eigenvalues --  -10.11120 -10.10943 -10.10218 -10.09015 -10.07926
 Alpha  occ. eigenvalues --  -10.07902 -10.07611 -10.05845  -7.84744  -7.83750
 Alpha  occ. eigenvalues --   -5.81146  -5.80755  -5.80122  -5.80118  -5.79780
 Alpha  occ. eigenvalues --   -5.79133  -0.92217  -0.77744  -0.73943  -0.71379
 Alpha  occ. eigenvalues --   -0.68049  -0.64849  -0.60720  -0.59556  -0.54990
 Alpha  occ. eigenvalues --   -0.51497  -0.51043  -0.49136  -0.45521  -0.43152
 Alpha  occ. eigenvalues --   -0.39087  -0.37874  -0.36188  -0.35051  -0.34354
 Alpha  occ. eigenvalues --   -0.33630  -0.33282  -0.31900  -0.31381  -0.30442
 Alpha  occ. eigenvalues --   -0.29216  -0.28154  -0.27370  -0.24524  -0.24128
 Alpha  occ. eigenvalues --   -0.23013  -0.22857  -0.21961  -0.19231  -0.18621
 Alpha  occ. eigenvalues --   -0.17578  -0.14921  -0.11643   0.04155
 Alpha virt. eigenvalues --    0.05866   0.06958   0.07681   0.08078   0.08909
 Alpha virt. eigenvalues --    0.09309   0.09623   0.10091   0.10389   0.10682
 Alpha virt. eigenvalues --    0.11445   0.12216   0.12548   0.12573   0.12950

  Beta  occ. eigenvalues --  -88.76112 -88.75054 -14.26812 -14.20052 -10.15436
  Beta  occ. eigenvalues --  -10.11109 -10.10918 -10.10189 -10.09012 -10.07921
  Beta  occ. eigenvalues --  -10.07898 -10.07593 -10.05824  -7.84739  -7.83739
  Beta  occ. eigenvalues --   -5.81140  -5.80751  -5.80113  -5.80101  -5.79774
  Beta  occ. eigenvalues --   -5.79125  -0.92172  -0.77676  -0.73920  -0.71348
  Beta  occ. eigenvalues --   -0.68017  -0.64811  -0.60672  -0.59516  -0.54945
  Beta  occ. eigenvalues --   -0.51393  -0.50999  -0.49067  -0.45477  -0.43090
  Beta  occ. eigenvalues --   -0.39049  -0.37848  -0.36148  -0.35012  -0.34291
  Beta  occ. eigenvalues --   -0.33594  -0.33245  -0.31873  -0.31337  -0.30409
  Beta  occ. eigenvalues --   -0.29191  -0.28115  -0.27340  -0.24491  -0.24097
  Beta  occ. eigenvalues --   -0.22988  -0.22832  -0.21930  -0.19193  -0.18604
  Beta  occ. eigenvalues --   -0.17558  -0.14891  -0.11624
  Beta virt. eigenvalues --    0.06160   0.07086   0.07640   0.08059   0.08412
  Beta virt. eigenvalues --    0.09392   0.09791   0.09965   0.10278   0.10445
  Beta virt. eigenvalues --    0.10832   0.11619   0.12442   0.12662   0.12781

 Mulliken charges and spin densities:
               1          2
     1  C   -0.098717  -0.803083
     2  C    0.474310  -0.051774
     3  C   -0.592115   0.664569
     4  C    0.030032  -0.562146
     5  S    0.159130  -0.198347
     6  C    0.016432  -0.346683
     7  C   -0.375072  -0.081312
     8  S    0.598129  -0.620318
     9  C    0.462406  -1.254401
    10  N   -0.053252   0.069691
    11  C    0.251803  -0.261070
    12  C    0.219956  -0.318326
    13  N   -0.101635   0.173864
    14  H   -0.004450   0.151651
    15  H    0.204711  -0.082122
    16  H   -0.020367   0.178444
    17  H    0.060916   0.098465
    18  H   -0.181029   0.314457
    19  H   -0.114321   0.282958
    20  H   -0.356095   0.591929
    21  H    0.013164   0.188156
    22  H   -0.090638   0.081282
    23  H    0.129170   0.004138
    24  H   -0.034646   0.078631
    25  H    0.271270  -0.011088
    26  H    0.128995   0.047168
    27  H   -0.061792   0.220103
    28  H   -1.305178   1.481893
    29  H   -0.631119   0.963270
 Sum of Mulliken charges =  -1.00000   1.00000

 Dipole moment (field-independent basis, Debye):
    X=             -4.0785    Y=              4.6506    Z=              5.5802  Tot=              8.3307
 Quadrupole moment (field-independent basis, Debye-Ang):
   XX=           -188.3750   YY=           -129.9673   ZZ=           -136.7979
   XY=              5.7322   XZ=             12.0252   YZ=             -6.7775

 Summary of Natural Population Analysis:

                                       Natural Population
                Natural  -----------------------------------------------
    Atom  No    Charge         Core      Valence    Rydberg      Total
 -----------------------------------------------------------------------
      C    1   -0.29323      0.99964     2.28690    0.00669     3.29323
      C    2   -0.12146      0.99959     2.10952    0.01235     3.12146
      C    3   -0.19116      0.99960     2.17970    0.01186     3.19116
      C    4   -0.24340      0.99957     2.23349    0.01033     3.24340
      S    5   -0.03041      4.99966     3.01579    0.01496     8.03041
      C    6   -0.19206      0.99959     2.18403    0.00844     3.19206
      C    7   -0.24172      0.99958     2.23310    0.00905     3.24172
      S    8    0.11188      4.99953     2.86921    0.01938     7.88812
      C    9    0.10167      0.99956     1.87548    0.02329     2.89833
      N   10   -0.27582      0.99967     2.76560    0.01056     3.77582
      C   11   -0.03479      0.99957     2.02165    0.01358     3.03479
      C   12   -0.03223      0.99955     2.01898    0.01370     3.03223
      N   13   -0.27421      0.99965     2.76130    0.01326     3.77421
      H   14    0.09064      0.00000     0.40842    0.00095     0.40936
      H   15    0.11265      0.00000     0.38604    0.00132     0.38735
      H   16    0.10106      0.00000     0.39795    0.00099     0.39894
      H   17    0.10343      0.00000     0.39375    0.00282     0.39657
      H   18    0.09999      0.00000     0.39867    0.00134     0.40001
      H   19    0.10455      0.00000     0.39399    0.00146     0.39545
      H   20    0.10655      0.00000     0.39210    0.00134     0.39345
      H   21    0.10369      0.00000     0.39504    0.00127     0.39631
      H   22    0.05535      0.00000     0.44155    0.00310     0.44465
      H   23    0.10065      0.00000     0.39801    0.00135     0.39935
      H   24    0.09783      0.00000     0.40064    0.00153     0.40217
      H   25    0.10193      0.00000     0.39720    0.00087     0.39807
      H   26    0.11637      0.00000     0.38203    0.00160     0.38363
      H   27    0.09664      0.00000     0.40242    0.00094     0.40336
      H   28    0.10944      0.00000     0.38628    0.00428     0.39056
      H   29    0.21619      0.00000     0.26361    0.02020     0.28381
 =======================================================================
   * Total *    0.00000     20.99475    36.79246    0.21280    58.00000

 Normal termination of Gaussian 16 at Mon Dec 14 17:37:46 2020.
