 Gaussian 16, Revision A.03,

 -----------------------------------------------------------
 # opt freq B3LYP/6-31G(d) empiricaldispersion=gd3bj scf=xqc
 -----------------------------------------------------------

 -------------------------------
 CID_104175024_JID_2252_neutraal
 -------------------------------
 Symbolic Z-matrix:
 Charge =  0 Multiplicity = 1

 SCF Done:  E(RB3LYP) =  -484.170782795     A.U. after   15 cycles
 SCF Done:  E(RB3LYP) =  -484.198040610     A.U. after   12 cycles
 SCF Done:  E(RB3LYP) =  -484.199970013     A.U. after   12 cycles
 SCF Done:  E(RB3LYP) =  -484.200980315     A.U. after   12 cycles
 SCF Done:  E(RB3LYP) =  -484.201276390     A.U. after   12 cycles
 SCF Done:  E(RB3LYP) =  -484.201473824     A.U. after   10 cycles
 SCF Done:  E(RB3LYP) =  -484.201517562     A.U. after   10 cycles
 SCF Done:  E(RB3LYP) =  -484.201528704     A.U. after   10 cycles
 SCF Done:  E(RB3LYP) =  -484.201532020     A.U. after    8 cycles
 SCF Done:  E(RB3LYP) =  -484.201532559     A.U. after    7 cycles
 Optimization completed.
    -- Stationary point found.
 Normal termination of Gaussian 16 at Wed Dec  9 16:56:33 2020.

 --------------------------------------------------------------------
 #N Geom=AllCheck Guess=TCheck SCRF=Check GenChk RB3LYP/6-31G(d) Freq
 --------------------------------------------------------------------

 Structure from the checkpoint file:  "JID_2252.chk"
 -------------------------------
 CID_104175024_JID_2252_neutraal
 -------------------------------
 Charge =  0 Multiplicity = 1

 SCF Done:  E(RB3LYP) =  -484.201532559     A.U. after    1 cycles

  Exact polarizability: 121.300   5.269 110.881  -0.875  -1.231  95.868
 Approx polarizability: 157.455  14.756 169.915  -2.394  -5.645 146.847

                      1                      2                      3
                      A                      A                      A
 Frequencies --     52.6870                99.1369               126.7053
 Red. masses --      2.5578                 3.0401                 3.1839
 Frc consts  --      0.0042                 0.0176                 0.0301
 IR Inten    --      0.2528                 0.7388                 2.7717

                      4                      5                      6
                      A                      A                      A
 Frequencies --    142.6278               175.3974               199.6180
 Red. masses --      3.5688                 3.2869                 2.8752
 Frc consts  --      0.0428                 0.0596                 0.0675
 IR Inten    --      3.1047                 4.1710                 0.3722

                      7                      8                      9
                      A                      A                      A
 Frequencies --    260.6662               298.3737               343.5497
 Red. masses --      1.2942                 2.2553                 2.3205
 Frc consts  --      0.0518                 0.1183                 0.1614
 IR Inten    --      0.4038                 0.1987                 0.3067

                     10                     11                     12
                      A                      A                      A
 Frequencies --    389.1790               402.2970               434.2670
 Red. masses --      2.1555                 3.0407                 2.3212
 Frc consts  --      0.1923                 0.2899                 0.2579
 IR Inten    --      0.2465                 0.2924                 0.1694

                     13                     14                     15
                      A                      A                      A
 Frequencies --    464.2818               495.3126               571.0944
 Red. masses --      2.0025                 4.1419                 5.1847
 Frc consts  --      0.2543                 0.5987                 0.9963
 IR Inten    --      0.0337                 0.6296                 0.6024

                     16                     17                     18
                      A                      A                      A
 Frequencies --    628.3976               642.2222               773.3554
 Red. masses --      2.8578                 3.6713                 3.5210
 Frc consts  --      0.6649                 0.8922                 1.2407
 IR Inten    --      0.6050                 0.4090                 2.0561

                     19                     20                     21
                      A                      A                      A
 Frequencies --    787.0626               796.4577               823.7924
 Red. masses --      2.6881                 1.7075                 1.4171
 Frc consts  --      0.9811                 0.6382                 0.5666
 IR Inten    --      1.9118                 2.8117                 0.0997

                     22                     23                     24
                      A                      A                      A
 Frequencies --    855.5883               864.4323               879.8347
 Red. masses --      2.0777                 2.1172                 2.4312
 Frc consts  --      0.8961                 0.9321                 1.1088
 IR Inten    --      2.1734                 0.4969                 1.3045

                     25                     26                     27
                      A                      A                      A
 Frequencies --    906.6629               930.4465               946.7191
 Red. masses --      2.1311                 2.2003                 2.1918
 Frc consts  --      1.0322                 1.1223                 1.1574
 IR Inten    --      0.3561                 1.1690                 0.7713

                     28                     29                     30
                      A                      A                      A
 Frequencies --    958.2856               971.6067               981.7271
 Red. masses --      2.0139                 2.1894                 1.7870
 Frc consts  --      1.0896                 1.2177                 1.0148
 IR Inten    --      1.6030                 0.4049                 0.2601

                     31                     32                     33
                      A                      A                      A
 Frequencies --   1006.4169              1024.4136              1039.3367
 Red. masses --      1.5863                 1.9686                 2.5268
 Frc consts  --      0.9467                 1.2172                 1.6082
 IR Inten    --      1.0059                 0.0435                 0.3257

                     34                     35                     36
                      A                      A                      A
 Frequencies --   1074.5946              1089.9873              1111.4859
 Red. masses --      1.4842                 1.4715                 2.1313
 Frc consts  --      1.0098                 1.0301                 1.5514
 IR Inten    --      0.5502                 1.5124                 0.1329

                     37                     38                     39
                      A                      A                      A
 Frequencies --   1145.9820              1161.4671              1170.1743
 Red. masses --      1.5898                 1.1122                 1.6192
 Frc consts  --      1.2302                 0.8840                 1.3063
 IR Inten    --      1.7481                 0.3365                 2.2949

                     40                     41                     42
                      A                      A                      A
 Frequencies --   1193.6416              1214.3363              1226.2714
 Red. masses --      1.6048                 2.0745                 1.6820
 Frc consts  --      1.3471                 1.8024                 1.4902
 IR Inten    --      1.2444                 1.1035                 2.8355

                     43                     44                     45
                      A                      A                      A
 Frequencies --   1267.6107              1283.4379              1293.5903
 Red. masses --      1.3480                 1.4016                 1.3444
 Frc consts  --      1.2762                 1.3603                 1.3255
 IR Inten    --      0.1460                 1.0910                 0.4849

                     46                     47                     48
                      A                      A                      A
 Frequencies --   1305.4510              1317.2393              1333.3295
 Red. masses --      1.3592                 1.3845                 1.3048
 Frc consts  --      1.3648                 1.4153                 1.3667
 IR Inten    --      0.4940                 1.0388                 1.7518

                     49                     50                     51
                      A                      A                      A
 Frequencies --   1344.3006              1352.8305              1363.3993
 Red. masses --      1.4807                 1.6875                 1.5328
 Frc consts  --      1.5766                 1.8196                 1.6787
 IR Inten    --      1.6643                 0.0552                 0.8277

                     52                     53                     54
                      A                      A                      A
 Frequencies --   1373.2600              1399.2340              1406.3392
 Red. masses --      1.4672                 1.3450                 1.3984
 Frc consts  --      1.6303                 1.5515                 1.6295
 IR Inten    --      0.4263                 6.3922                 1.7403

                     55                     56                     57
                      A                      A                      A
 Frequencies --   1451.9065              1509.6230              1518.5834
 Red. masses --      1.2479                 1.0818                 1.0589
 Frc consts  --      1.5499                 1.4526                 1.4387
 IR Inten    --      4.7151                 1.8535                 0.8295

                     58                     59                     60
                      A                      A                      A
 Frequencies --   1522.1404              1527.4107              1530.7652
 Red. masses --      1.0831                 1.0894                 1.0608
 Frc consts  --      1.4786                 1.4974                 1.4645
 IR Inten    --      2.3825                 6.5607                 3.2159

                     61                     62                     63
                      A                      A                      A
 Frequencies --   1536.2284              1538.2758              1554.8616
 Red. masses --      1.0856                 1.0577                 1.0972
 Frc consts  --      1.5095                 1.4746                 1.5628
 IR Inten    --      8.8286                 8.9271                 3.5023

                     64                     65                     66
                      A                      A                      A
 Frequencies --   2349.9561              3039.1052              3047.4217
 Red. masses --     12.6919                 1.0621                 1.0640
 Frc consts  --     41.2949                 5.7795                 5.8217
 IR Inten    --     16.3025                23.1320                14.9252

                     67                     68                     69
                      A                      A                      A
 Frequencies --   3055.6473              3063.2698              3072.3889
 Red. masses --      1.0397                 1.0601                 1.0905
 Frc consts  --      5.7193                 5.8611                 6.0649
 IR Inten    --     20.5499                31.4266                14.0118

                     70                     71                     72
                      A                      A                      A
 Frequencies --   3074.0710              3075.6864              3079.1552
 Red. masses --      1.0604                 1.0686                 1.0684
 Frc consts  --      5.9043                 5.9560                 5.9685
 IR Inten    --     39.4919                34.6149                14.5538

                     73                     74                     75
                      A                      A                      A
 Frequencies --   3088.1322              3101.8677              3113.8380
 Red. masses --      1.1020                 1.1024                 1.0896
 Frc consts  --      6.1918                 6.2493                 6.2248
 IR Inten    --     36.1625                23.6279                51.8641

                     76                     77                     78
                      A                      A                      A
 Frequencies --   3116.4898              3123.3630              3125.3892
 Red. masses --      1.1023                 1.1059                 1.0993
 Frc consts  --      6.3078                 6.3565                 6.3266
 IR Inten    --     34.1519                10.6691                37.0347

                     79                     80                     81
                      A                      A                      A
 Frequencies --   3127.0636              3133.1406              3141.5503
 Red. masses --      1.0937                 1.0997                 1.0999
 Frc consts  --      6.3011                 6.3602                 6.3960
 IR Inten    --     17.9320                42.3765                29.8176

 - Thermochemistry -
 -------------------
 Temperature   298.150 Kelvin.  Pressure   1.00000 Atm.
 Atom     1 has atomic number  6 and mass  12.00000

 Molecular mass:   163.13610 amu.
 Principal axes and moments of inertia in atomic units:
                           1         2         3
     Eigenvalues --  1214.674882268.393832789.49715
           X            0.99940  -0.03471  -0.00177
           Y            0.03472   0.99938   0.00616
           Z            0.00156  -0.00622   0.99998
 This molecule is an asymmetric top.
 Rotational symmetry number  1.
 Warning -- assumption of classical behavior for rotation
           may cause significant error
 Rotational temperatures (Kelvin)      0.07131     0.03818     0.03105
 Rotational constants (GHZ):           1.48578     0.79560     0.64698
 Zero-point vibrational energy     689750.3 (Joules/Mol)
                                  164.85428 (Kcal/Mol)
 Warning -- explicit consideration of  15 degrees of freedom as
           vibrations may cause significant error
 Vibrational temperatures:     75.80   142.64   182.30   205.21   252.36
          (Kelvin)            287.21   375.04   429.29   494.29   559.94
                              578.82   624.81   668.00   712.64   821.68
                              904.12   924.01  1112.69  1132.41  1145.92
                             1185.25  1231.00  1243.73  1265.89  1304.49
                             1338.71  1362.12  1378.76  1397.93  1412.49
                             1448.01  1473.90  1495.37  1546.10  1568.25
                             1599.18  1648.81  1671.09  1683.62  1717.38
                             1747.16  1764.33  1823.81  1846.58  1861.19
                             1878.25  1895.21  1918.36  1934.15  1946.42
                             1961.63  1975.81  2013.19  2023.41  2088.97
                             2172.01  2184.90  2190.02  2197.60  2202.43
                             2210.29  2213.24  2237.10  3381.06  4372.59
                             4384.56  4396.39  4407.36  4420.48  4422.90
                             4425.23  4430.22  4443.13  4462.90  4480.12
                             4483.93  4493.82  4496.74  4499.15  4507.89
                             4519.99

 Zero-point correction=                           0.262712 (Hartree/Particle)
 Thermal correction to Energy=                    0.273937
 Thermal correction to Enthalpy=                  0.274881
 Thermal correction to Gibbs Free Energy=         0.225957
 Sum of electronic and zero-point Energies=           -483.938821
 Sum of electronic and thermal Energies=              -483.927596
 Sum of electronic and thermal Enthalpies=            -483.926652
 Sum of electronic and thermal Free Energies=         -483.975575

                     E (Thermal)             CV                S
                      KCal/Mol        Cal/Mol-Kelvin    Cal/Mol-Kelvin
 Total                  171.898             44.736            102.968
 Electronic               0.000              0.000              0.000
 Translational            0.889              2.981             41.177
 Rotational               0.889              2.981             30.420
 Vibrational            170.120             38.774             31.371
 Vibration     1          0.596              1.977              4.714
 Vibration     2          0.604              1.950              3.471
 Vibration     3          0.611              1.926              2.995
 Vibration     4          0.616              1.911              2.768
 Vibration     5          0.627              1.873              2.377
 Vibration     6          0.638              1.840              2.137
 Vibration     7          0.669              1.745              1.657
 Vibration     8          0.691              1.677              1.426
 Vibration     9          0.722              1.588              1.196
 Vibration    10          0.757              1.493              1.003
 Vibration    11          0.768              1.465              0.954
 Vibration    12          0.795              1.396              0.845
 Vibration    13          0.822              1.329              0.754
 Vibration    14          0.851              1.260              0.670
 Vibration    15          0.927              1.094              0.502

                           ! Non-Optimized Parameters !
 Normal termination of Gaussian 16 at Wed Dec  9 17:05:18 2020.

 ----------------------------------------------------------------------
 # B3LYP/6-311++G(d,p) empiricaldispersion=gd3bj scf=xqc pop=npa geom=c
 heck
 ----------------------------------------------------------------------

 ---------------------------------------
 CID_104175024_JID_2252_Energie_neutraal
 ---------------------------------------
 Structure from the checkpoint file:  "JID_2252.chk"
 Charge =  0 Multiplicity = 1

 SCF Done:  E(RB3LYP) =  -484.329742996     A.U. after   13 cycles
 Normal termination of Gaussian 16 at Wed Dec  9 17:08:58 2020.

 ----------------------------------------------------------------------
 # B3LYP/6-311++G(d,p) empiricaldispersion=gd3bj scf=xqc pop=npa geom=c
 heck
 ----------------------------------------------------------------------

 -------------------------------------
 CID_104175024_JID_2252_Energie_kation
 -------------------------------------
 Structure from the checkpoint file:  "JID_2252.chk"
 Charge =  1 Multiplicity = 2

 SCF Done:  E(UB3LYP) =  -483.958101679     A.U. after   28 cycles
 Normal termination of Gaussian 16 at Wed Dec  9 17:20:00 2020.
 Gaussian 16:  ES64L-G16RevA.03 25-Dec-2016

 ----------------------------------------------------------------------
 # B3LYP/6-311++G(d,p) empiricaldispersion=gd3bj scf=xqc pop=npa geom=c
 heck
 ----------------------------------------------------------------------

 ------------------------------------
 CID_104175024_JID_2252_Energie_anion
 ------------------------------------
 Structure from the checkpoint file:  "JID_2252.chk"
 Charge = -1 Multiplicity = 2

                         Standard orientation:
 ---------------------------------------------------------------------
 Center     Atomic      Atomic             Coordinates (Angstroms)
 Number     Number       Type             X           Y           Z
 ---------------------------------------------------------------------
      1          6           0        3.241219   -0.548913   -0.439196
      2          6           0        2.130710   -1.429609    0.142360
      3          6           0        1.100019   -0.710756    1.026322
      4          6           0        0.182716    0.325718    0.333727
      5          6           0       -1.041160    0.749249    1.245723
      6          6           0       -2.270224    0.475591    0.354424
      7          6           0       -2.468159   -1.052827    0.247100
      8          6           0       -1.288640   -1.494999   -0.675070
      9          6           0       -0.546360   -0.171243   -0.963498
     10          6           0       -1.724738    0.820148   -1.046785
     11          6           0        0.948862    1.536332    0.003784
     12          7           0        1.522361    2.514395   -0.249333
     13          1           0        2.859798    0.174183   -1.164857
     14          1           0        3.990536   -1.167171   -0.946010
     15          1           0        3.749840    0.019703    0.347674
     16          1           0        1.612352   -1.949199   -0.673447
     17          1           0        2.587315   -2.217019    0.756344
     18          1           0        0.446305   -1.461869    1.484065
     19          1           0        1.613418   -0.210525    1.857437
     20          1           0       -1.055158    0.163931    2.170841
     21          1           0       -0.974808    1.804892    1.521646
     22          1           0       -3.163668    1.018793    0.672690
     23          1           0       -2.440439   -1.538145    1.228598
     24          1           0       -3.435491   -1.290831   -0.207458
     25          1           0       -0.655128   -2.259934   -0.221045
     26          1           0       -1.660304   -1.909273   -1.617917
     27          1           0        0.115685   -0.210978   -1.830942
     28          1           0       -2.423877    0.577879   -1.854408
     29          1           0       -1.408377    1.862666   -1.151216
 ---------------------------------------------------------------------

 SCF Done:  E(UB3LYP) =  -484.317621523     A.U. after   30 cycles

 The electronic state is 2-A.
 Alpha  occ. eigenvalues --  -14.20879 -10.12258 -10.10763 -10.08587 -10.08051
 Alpha  occ. eigenvalues --  -10.07922 -10.07633 -10.07187 -10.06734 -10.06583
 Alpha  occ. eigenvalues --  -10.06268 -10.06123  -0.81302  -0.78341  -0.70802
 Alpha  occ. eigenvalues --   -0.66222  -0.63630  -0.61270  -0.57521  -0.53551
 Alpha  occ. eigenvalues --   -0.49311  -0.47264  -0.44678  -0.42181  -0.39266
 Alpha  occ. eigenvalues --   -0.37878  -0.35156  -0.34194  -0.32871  -0.31439
 Alpha  occ. eigenvalues --   -0.30528  -0.28727  -0.27614  -0.27135  -0.26268
 Alpha  occ. eigenvalues --   -0.25895  -0.25619  -0.24897  -0.24757  -0.23571
 Alpha  occ. eigenvalues --   -0.22894  -0.22291  -0.21595  -0.20433  -0.20237
 Alpha  occ. eigenvalues --    0.04306
 Alpha virt. eigenvalues --    0.06561   0.07297   0.08006   0.08911   0.09390
 Alpha virt. eigenvalues --    0.09433   0.10300   0.10791   0.11360   0.11835
 Alpha virt. eigenvalues --    0.12196   0.12419   0.12711   0.13191   0.13813

  Beta  occ. eigenvalues --  -14.20873 -10.12257 -10.10762 -10.08580 -10.08030
  Beta  occ. eigenvalues --  -10.07907 -10.07623 -10.07165 -10.06716 -10.06556
  Beta  occ. eigenvalues --  -10.06238 -10.06108  -0.81289  -0.78317  -0.70769
  Beta  occ. eigenvalues --   -0.66189  -0.63592  -0.61225  -0.57476  -0.53502
  Beta  occ. eigenvalues --   -0.49248  -0.47216  -0.44618  -0.42121  -0.39234
  Beta  occ. eigenvalues --   -0.37845  -0.35104  -0.34164  -0.32836  -0.31408
  Beta  occ. eigenvalues --   -0.30497  -0.28700  -0.27586  -0.27120  -0.26233
  Beta  occ. eigenvalues --   -0.25865  -0.25581  -0.24862  -0.24720  -0.23542
  Beta  occ. eigenvalues --   -0.22855  -0.22258  -0.21563  -0.20408  -0.20206
  Beta virt. eigenvalues --    0.06660   0.07525   0.08189   0.08674   0.09466
  Beta virt. eigenvalues --    0.09893   0.10033   0.10827   0.11146   0.11756
  Beta virt. eigenvalues --    0.12142   0.12423   0.12725   0.13135   0.13530

 Mulliken charges and spin densities:
               1          2
     1  C    0.265240  -0.816599
     2  C   -0.533743   0.200280
     3  C    0.759388  -1.182603
     4  C    0.614566   0.748243
     5  C    0.634941  -1.256635
     6  C   -1.944909   2.343808
     7  C    1.947898  -2.508474
     8  C   -0.493756  -0.047476
     9  C   -1.281340   1.739542
    10  C    1.781079  -2.647917
    11  C    0.459827  -1.525886
    12  N   -0.294518   0.077172
    13  H    0.071964   0.086354
    14  H   -0.215392   0.353904
    15  H    0.089843   0.048279
    16  H   -0.178507   0.311714
    17  H   -0.485030   0.651615
    18  H   -0.036328   0.228397
    19  H   -0.000410   0.178564
    20  H   -0.254906   0.423841
    21  H    0.040292   0.159048
    22  H   -0.683408   0.929006
    23  H   -0.343726   0.494796
    24  H   -0.229881   0.395266
    25  H   -0.021754   0.144845
    26  H   -0.512730   0.696596
    27  H    0.039849   0.234647
    28  H   -0.447092   0.621067
    29  H    0.252541  -0.081393
 Sum of Mulliken charges =  -1.00000   1.00000

 Dipole moment (field-independent basis, Debye):
    X=              2.2882    Y=              1.8067    Z=              0.5109  Tot=              2.9599
 Quadrupole moment (field-independent basis, Debye-Ang):
   XX=           -140.1848   YY=           -125.5738   ZZ=           -112.1679
   XY=             -2.7938   XZ=             -1.2597   YZ=              1.3976

 Summary of Natural Population Analysis:

                                       Natural Population
                Natural  -----------------------------------------------
    Atom  No    Charge         Core      Valence    Rydberg      Total
 -----------------------------------------------------------------------
      C    1   -0.28833      0.99966     2.28274    0.00593     3.28833
      C    2   -0.19275      0.99963     2.18458    0.00855     3.19275
      C    3   -0.18078      0.99959     2.17021    0.01098     3.18078
      C    4   -0.09284      0.99947     2.07886    0.01451     3.09284
      C    5   -0.17471      0.99960     2.16504    0.01007     3.17471
      C    6   -0.11321      0.99960     2.10063    0.01298     3.11321
      C    7   -0.19080      0.99963     2.18230    0.00887     3.19080
      C    8   -0.19662      0.99962     2.18712    0.00987     3.19662
      C    9   -0.10032      0.99958     2.08816    0.01258     3.10032
      C   10   -0.19180      0.99961     2.18244    0.00975     3.19180
      C   11    0.17577      0.99961     1.80395    0.02067     2.82423
      N   12   -0.19477      0.99979     2.68356    0.01142     3.69477
      H   13    0.10145      0.00000     0.39753    0.00102     0.39855
      H   14    0.09834      0.00000     0.40084    0.00081     0.40166
      H   15    0.09643      0.00000     0.40274    0.00083     0.40357
      H   16    0.09703      0.00000     0.40145    0.00152     0.40297
      H   17    0.09885      0.00000     0.39977    0.00139     0.40115
      H   18    0.10678      0.00000     0.39162    0.00159     0.39322
      H   19    0.10061      0.00000     0.39793    0.00146     0.39939
      H   20    0.10329      0.00000     0.39528    0.00142     0.39671
      H   21    0.10537      0.00000     0.39331    0.00133     0.39463
      H   22    0.10577      0.00000     0.39254    0.00169     0.39423
      H   23    0.09923      0.00000     0.39910    0.00167     0.40077
      H   24    0.10301      0.00000     0.39490    0.00209     0.39699
      H   25    0.10282      0.00000     0.39555    0.00163     0.39718
      H   26    0.10524      0.00000     0.39306    0.00171     0.39476
      H   27    0.10852      0.00000     0.38987    0.00161     0.39148
      H   28    0.10474      0.00000     0.39392    0.00134     0.39526
      H   29    0.10370      0.00000     0.39512    0.00118     0.39630
 =======================================================================
   * Total *   -0.00000     11.99539    32.84411    0.16050    45.00000

 Normal termination of Gaussian 16 at Wed Dec  9 17:31:27 2020.
