 Gaussian 16, Revision A.03,

 -----------------------------------------------------------
 # opt freq B3LYP/6-31G(d) empiricaldispersion=gd3bj scf=xqc
 -----------------------------------------------------------

 -------------------------------
 CID_117214120_JID_5437_neutraal
 -------------------------------
 Symbolic Z-matrix:
 Charge =  0 Multiplicity = 1

 SCF Done:  E(RB3LYP) =  -720.878836468     A.U. after   15 cycles
 SCF Done:  E(RB3LYP) =  -720.882455668     A.U. after   12 cycles
 SCF Done:  E(RB3LYP) =  -720.882179658     A.U. after   13 cycles
 SCF Done:  E(RB3LYP) =  -720.883402067     A.U. after   12 cycles
 SCF Done:  E(RB3LYP) =  -720.883536405     A.U. after   12 cycles
 SCF Done:  E(RB3LYP) =  -720.883617130     A.U. after   11 cycles
 SCF Done:  E(RB3LYP) =  -720.883644776     A.U. after   10 cycles
 SCF Done:  E(RB3LYP) =  -720.883657322     A.U. after   10 cycles
 SCF Done:  E(RB3LYP) =  -720.883659542     A.U. after    8 cycles
 SCF Done:  E(RB3LYP) =  -720.883660047     A.U. after    8 cycles
 SCF Done:  E(RB3LYP) =  -720.883660191     A.U. after    7 cycles
 SCF Done:  E(RB3LYP) =  -720.883660258     A.U. after    7 cycles
 Optimization completed.
    -- Stationary point found.
 Normal termination of Gaussian 16 at Thu Dec 10 16:02:44 2020.

 --------------------------------------------------------------------
 #N Geom=AllCheck Guess=TCheck SCRF=Check GenChk RB3LYP/6-31G(d) Freq
 --------------------------------------------------------------------

 Structure from the checkpoint file:  "JID_5437.chk"
 -------------------------------
 CID_117214120_JID_5437_neutraal
 -------------------------------
 Charge =  0 Multiplicity = 1

 SCF Done:  E(RB3LYP) =  -720.883660258     A.U. after    1 cycles

  Exact polarizability: 130.174   5.258 132.661  12.171  -2.936  94.279
 Approx polarizability: 186.805  10.558 207.694  29.966  -8.787 151.185

                      1                      2                      3
                      A                      A                      A
 Frequencies --     27.3817                51.7120                85.3488
 Red. masses --      4.5648                 7.8893                 5.2340
 Frc consts  --      0.0020                 0.0124                 0.0225
 IR Inten    --      0.4867                 0.6586                 0.1296

                      4                      5                      6
                      A                      A                      A
 Frequencies --     96.8723               147.0993               164.9514
 Red. masses --      4.8940                 4.7508                 4.6329
 Frc consts  --      0.0271                 0.0606                 0.0743
 IR Inten    --      1.8578                 7.6893                 1.7851

                      7                      8                      9
                      A                      A                      A
 Frequencies --    194.1084               233.5317               273.1166
 Red. masses --      4.9054                 2.7036                 3.2555
 Frc consts  --      0.1089                 0.0869                 0.1431
 IR Inten    --      5.9726                 3.6444                11.6004

                     10                     11                     12
                      A                      A                      A
 Frequencies --    294.9416               361.2702               427.8522
 Red. masses --      2.8035                 2.3143                 4.3984
 Frc consts  --      0.1437                 0.1780                 0.4744
 IR Inten    --      2.1855                 2.3213                 3.6824

                     13                     14                     15
                      A                      A                      A
 Frequencies --    434.2825               439.2142               465.7331
 Red. masses --      3.6540                 2.6324                 2.2551
 Frc consts  --      0.4060                 0.2992                 0.2882
 IR Inten    --      4.1794                 3.3889                12.7146

                     16                     17                     18
                      A                      A                      A
 Frequencies --    481.6428               531.3403               568.5087
 Red. masses --      2.7050                 4.0538                 1.4632
 Frc consts  --      0.3697                 0.6743                 0.2786
 IR Inten    --      1.0847                28.1760                66.8825

                     19                     20                     21
                      A                      A                      A
 Frequencies --    598.2328               604.6815               658.2455
 Red. masses --      1.5249                 1.6889                 2.6392
 Frc consts  --      0.3215                 0.3638                 0.6738
 IR Inten    --     11.0644                35.0674                34.8476

                     22                     23                     24
                      A                      A                      A
 Frequencies --    695.4376               713.0045               763.2259
 Red. masses --      2.8677                 4.0014                 4.7692
 Frc consts  --      0.8172                 1.1985                 1.6368
 IR Inten    --     41.7718                73.1196                30.9125

                     25                     26                     27
                      A                      A                      A
 Frequencies --    777.5180               798.1482               819.1290
 Red. masses --      3.7949                 1.8045                 2.3699
 Frc consts  --      1.3517                 0.6773                 0.9369
 IR Inten    --      2.5506                27.9672               124.3283

                     28                     29                     30
                      A                      A                      A
 Frequencies --    825.6248               837.5373               881.4682
 Red. masses --      3.3409                 1.6225                 2.3759
 Frc consts  --      1.3418                 0.6706                 1.0877
 IR Inten    --      2.4678                 0.2726                 3.6462

                     31                     32                     33
                      A                      A                      A
 Frequencies --    901.0254               953.4821               966.7890
 Red. masses --      1.6391                 3.4875                 2.9972
 Frc consts  --      0.7840                 1.8681                 1.6506
 IR Inten    --     45.7179                13.5682                 1.7545

                     34                     35                     36
                      A                      A                      A
 Frequencies --   1002.5658              1038.1037              1048.2929
 Red. masses --      2.5873                 1.6260                 2.3514
 Frc consts  --      1.5322                 1.0324                 1.5224
 IR Inten    --      8.1891                 7.3129                22.3995

                     37                     38                     39
                      A                      A                      A
 Frequencies --   1083.0528              1105.0709              1117.9019
 Red. masses --      2.6715                 2.0845                 2.3576
 Frc consts  --      1.8463                 1.4998                 1.7359
 IR Inten    --     74.3316                21.2311                76.5860

                     40                     41                     42
                      A                      A                      A
 Frequencies --   1141.6404              1165.7267              1208.9728
 Red. masses --      4.4124                 2.6191                 2.0802
 Frc consts  --      3.3883                 2.0970                 1.7914
 IR Inten    --     17.7403                29.2625                55.3607

                     43                     44                     45
                      A                      A                      A
 Frequencies --   1215.3219              1223.3804              1262.3768
 Red. masses --      2.5849                 1.2013                 1.8067
 Frc consts  --      2.2495                 1.0593                 1.6963
 IR Inten    --    168.2527                22.7431                14.0149

                     46                     47                     48
                      A                      A                      A
 Frequencies --   1274.7547              1286.7161              1355.8715
 Red. masses --      1.9200                 1.5147                 1.3142
 Frc consts  --      1.8383                 1.4775                 1.4235
 IR Inten    --     43.5879                 5.6264                 3.0331

                     49                     50                     51
                      A                      A                      A
 Frequencies --   1365.5785              1370.0074              1390.1260
 Red. masses --      1.8727                 1.3181                 1.8079
 Frc consts  --      2.0576                 1.4576                 2.0584
 IR Inten    --      7.2420                 3.9765                23.7196

                     52                     53                     54
                      A                      A                      A
 Frequencies --   1394.5774              1396.6167              1401.4252
 Red. masses --      2.2241                 1.2702                 1.2700
 Frc consts  --      2.5485                 1.4597                 1.4696
 IR Inten    --     26.5659                10.2197                18.2009

                     55                     56                     57
                      A                      A                      A
 Frequencies --   1419.1977              1431.0700              1434.5335
 Red. masses --      1.2297                 1.8104                 1.6309
 Frc consts  --      1.4593                 2.1845                 1.9774
 IR Inten    --     14.4532                17.7029                 7.7087

                     58                     59                     60
                      A                      A                      A
 Frequencies --   1457.2702              1486.4601              1493.2769
 Red. masses --      3.2510                 1.1147                 1.1027
 Frc consts  --      4.0676                 1.4511                 1.4488
 IR Inten    --     69.6240                21.1887                12.1761

                     61                     62                     63
                      A                      A                      A
 Frequencies --   1505.8080              1507.2939              1512.8766
 Red. masses --      1.0814                 1.1162                 1.1736
 Frc consts  --      1.4447                 1.4941                 1.5827
 IR Inten    --      4.3703                11.7731                 7.9776

                     64                     65                     66
                      A                      A                      A
 Frequencies --   1516.1110              1547.4145              1608.0434
 Red. masses --      1.1063                 4.3095                 5.7830
 Frc consts  --      1.4982                 6.0799                 8.8104
 IR Inten    --      1.8005                84.6671                48.5288

                     67                     68                     69
                      A                      A                      A
 Frequencies --   1789.7612              2986.8510              2992.6344
 Red. masses --      8.9417                 1.0678                 1.0706
 Frc consts  --     16.8756                 5.6126                 5.6491
 IR Inten    --    247.3578                30.5103               107.2389

                     70                     71                     72
                      A                      A                      A
 Frequencies --   3021.4954              3041.0360              3052.5839
 Red. masses --      1.0730                 1.0807                 1.0752
 Frc consts  --      5.7714                 5.8882                 5.9032
 IR Inten    --     44.0744                37.5748                91.6444

                     73                     74                     75
                      A                      A                      A
 Frequencies --   3060.3581              3095.7494              3109.1128
 Red. masses --      1.0626                 1.1043                 1.1031
 Frc consts  --      5.8638                 6.2354                 6.2825
 IR Inten    --     25.6376                42.5478                40.2786

                     76                     77                     78
                      A                      A                      A
 Frequencies --   3134.4421              3141.8275              3270.6632
 Red. masses --      1.0923                 1.0919                 1.0975
 Frc consts  --      6.3227                 6.3502                 6.9169
 IR Inten    --      5.1742                 5.2077                 2.3722

                     79                     80                     81
                      A                      A                      A
 Frequencies --   3444.8431              3634.5150              3694.1444
 Red. masses --      1.0733                 1.0807                 1.0639
 Frc consts  --      7.5042                 8.4107                 8.5543
 IR Inten    --      6.3383                41.3938                68.8138

 - Thermochemistry -
 -------------------
 Temperature   298.150 Kelvin.  Pressure   1.00000 Atm.
 Atom     1 has atomic number  6 and mass  12.00000

 Molecular mass:   210.11168 amu.
 Principal axes and moments of inertia in atomic units:
                           1         2         3
     Eigenvalues --  2035.874603531.277314242.49632
           X            1.00000   0.00151  -0.00203
           Y           -0.00149   0.99990   0.01401
           Z            0.00205  -0.01401   0.99990
 This molecule is an asymmetric top.
 Rotational symmetry number  1.
 Warning -- assumption of classical behavior for rotation
           may cause significant error
 Rotational temperatures (Kelvin)      0.04254     0.02453     0.02042
 Rotational constants (GHZ):           0.88647     0.51107     0.42540
 Zero-point vibrational energy     641855.8 (Joules/Mol)
                                  153.40722 (Kcal/Mol)
 Warning -- explicit consideration of  20 degrees of freedom as
           vibrations may cause significant error
 Vibrational temperatures:     39.40    74.40   122.80   139.38   211.64
          (Kelvin)            237.33   279.28   336.00   392.95   424.36
                              519.79   615.58   624.84   631.93   670.09
                              692.98   764.48   817.96   860.72   870.00
                              947.07  1000.58  1025.85  1098.11  1118.68
                             1148.36  1178.54  1187.89  1205.03  1268.24
                             1296.37  1371.85  1390.99  1442.47  1493.60
                             1508.26  1558.27  1589.95  1608.41  1642.57
                             1677.22  1739.44  1748.58  1760.17  1816.28
                             1834.09  1851.30  1950.80  1964.76  1971.14
                             2000.08  2006.49  2009.42  2016.34  2041.91
                             2058.99  2063.97  2096.69  2138.68  2148.49
                             2166.52  2168.66  2176.69  2181.35  2226.38
                             2313.62  2575.07  4297.41  4305.73  4347.26
                             4375.37  4391.99  4403.17  4454.09  4473.32
                             4509.76  4520.39  4705.75  4956.36  5229.26
                             5315.05

 Zero-point correction=                           0.244470 (Hartree/Particle)
 Thermal correction to Energy=                    0.257552
 Thermal correction to Enthalpy=                  0.258497
 Thermal correction to Gibbs Free Energy=         0.203924
 Sum of electronic and zero-point Energies=           -720.639190
 Sum of electronic and thermal Energies=              -720.626108
 Sum of electronic and thermal Enthalpies=            -720.625164
 Sum of electronic and thermal Free Energies=         -720.679737

                     E (Thermal)             CV                S
                      KCal/Mol        Cal/Mol-Kelvin    Cal/Mol-Kelvin
 Total                  161.617             50.831            114.858
 Electronic               0.000              0.000              0.000
 Translational            0.889              2.981             41.931
 Rotational               0.889              2.981             31.789
 Vibrational            159.839             44.870             41.138
 Vibration     1          0.593              1.984              6.011
 Vibration     2          0.596              1.977              4.751
 Vibration     3          0.601              1.959              3.764
 Vibration     4          0.603              1.951              3.516
 Vibration     5          0.617              1.906              2.709
 Vibration     6          0.623              1.886              2.492
 Vibration     7          0.635              1.848              2.188
 Vibration     8          0.654              1.790              1.852
 Vibration     9          0.676              1.723              1.576
 Vibration    10          0.689              1.683              1.445
 Vibration    11          0.735              1.552              1.117
 Vibration    12          0.789              1.410              0.866
 Vibration    13          0.795              1.396              0.845
 Vibration    14          0.799              1.385              0.829
 Vibration    15          0.823              1.326              0.750
 Vibration    16          0.838              1.291              0.706
 Vibration    17          0.886              1.181              0.584
 Vibration    18          0.925              1.099              0.507
 Vibration    19          0.956              1.036              0.453
 Vibration    20          0.963              1.022              0.442

 Optimization completed.
    -- Stationary point found.
 Normal termination of Gaussian 16 at Thu Dec 10 16:13:02 2020.

 ----------------------------------------------------------------------
 # B3LYP/6-311++G(d,p) empiricaldispersion=gd3bj scf=xqc pop=npa geom=c
 heck
 ----------------------------------------------------------------------

 ---------------------------------------
 CID_117214120_JID_5437_Energie_neutraal
 ---------------------------------------
 Structure from the checkpoint file:  "JID_5437.chk"
 Charge =  0 Multiplicity = 1

 SCF Done:  E(RB3LYP) =  -721.096618827     A.U. after   16 cycles
 Normal termination of Gaussian 16 at Thu Dec 10 16:17:46 2020.

 ----------------------------------------------------------------------
 # B3LYP/6-311++G(d,p) empiricaldispersion=gd3bj scf=xqc pop=npa geom=c
 heck
 ----------------------------------------------------------------------

 -------------------------------------
 CID_117214120_JID_5437_Energie_kation
 -------------------------------------
 Structure from the checkpoint file:  "JID_5437.chk"
 Charge =  1 Multiplicity = 2

 SCF Done:  E(UB3LYP) =  -720.828044999     A.U. after   21 cycles
 Normal termination of Gaussian 16 at Thu Dec 10 16:26:30 2020.
 Gaussian 16:  ES64L-G16RevA.03 25-Dec-2016

 ----------------------------------------------------------------------
 # B3LYP/6-311++G(d,p) empiricaldispersion=gd3bj scf=xqc pop=npa geom=c
 heck
 ----------------------------------------------------------------------

 ------------------------------------
 CID_117214120_JID_5437_Energie_anion
 ------------------------------------
 Structure from the checkpoint file:  "JID_5437.chk"
 Charge = -1 Multiplicity = 2

                         Standard orientation:
 ---------------------------------------------------------------------
 Center     Atomic      Atomic             Coordinates (Angstroms)
 Number     Number       Type             X           Y           Z
 ---------------------------------------------------------------------
      1          6           0        2.411089    0.815619   -0.927232
      2          6           0        2.571034    0.637325    0.595011
      3          7           0        1.650169   -0.331650    1.181394
      4          6           0        1.605674   -1.588811    0.429344
      5          6           0        1.446088   -1.391803   -1.086755
      6          7           0        2.431398   -0.458711   -1.651651
      7          6           0        0.389253    0.177461    1.703465
      8          6           0       -0.583611    0.808440    0.737468
      9          6           0       -1.658342    0.320231    0.005464
     10          7           0       -2.220144    1.314277   -0.778433
     11          6           0       -1.510660    2.386193   -0.535538
     12          7           0       -0.514515    2.133538    0.379514
     13          6           0       -2.164073   -1.053351    0.052216
     14          8           0       -1.659973   -1.957529    0.702849
     15          8           0       -3.266542   -1.244209   -0.703191
     16          1           0        1.457940    1.306654   -1.156279
     17          1           0        3.211960    1.456467   -1.317259
     18          1           0        2.464408    1.594915    1.124035
     19          1           0        3.597399    0.284291    0.788123
     20          1           0        2.557228   -2.115088    0.611476
     21          1           0        0.795991   -2.205681    0.825931
     22          1           0        0.450032   -0.994936   -1.310328
     23          1           0        1.538125   -2.353863   -1.604612
     24          1           0        3.360851   -0.871377   -1.554038
     25          1           0       -0.126320   -0.652049    2.190609
     26          1           0        0.629742    0.920346    2.477658
     27          1           0       -1.660713    3.363785   -0.972918
     28          1           0        0.163084    2.795786    0.731587
     29          1           0       -3.494665   -2.185352   -0.587684
 ---------------------------------------------------------------------

 SCF Done:  E(UB3LYP) =  -721.092871083     A.U. after   31 cycles

 The electronic state is 2-A.
 Alpha  occ. eigenvalues --  -19.05841 -18.99318 -14.25852 -14.19637 -14.19593
 Alpha  occ. eigenvalues --  -14.19271 -10.18490 -10.12173 -10.09973 -10.09695
 Alpha  occ. eigenvalues --  -10.08464 -10.08422 -10.08385 -10.08325 -10.08272
 Alpha  occ. eigenvalues --   -0.99787  -0.91275  -0.90233  -0.83389  -0.78657
 Alpha  occ. eigenvalues --   -0.77015  -0.66956  -0.65421  -0.61168  -0.56384
 Alpha  occ. eigenvalues --   -0.53632  -0.53489  -0.50677  -0.47354  -0.46516
 Alpha  occ. eigenvalues --   -0.43788  -0.39050  -0.37757  -0.37052  -0.35971
 Alpha  occ. eigenvalues --   -0.35777  -0.35109  -0.34453  -0.33935  -0.33087
 Alpha  occ. eigenvalues --   -0.31807  -0.31096  -0.29160  -0.28825  -0.28458
 Alpha  occ. eigenvalues --   -0.27011  -0.24603  -0.23788  -0.23532  -0.21610
 Alpha  occ. eigenvalues --   -0.18415  -0.18065  -0.16780  -0.14915  -0.13184
 Alpha  occ. eigenvalues --   -0.08985   0.04369
 Alpha virt. eigenvalues --    0.06731   0.07192   0.07795   0.08725   0.09014
 Alpha virt. eigenvalues --    0.09977   0.10941   0.11115   0.11610   0.11705
 Alpha virt. eigenvalues --    0.13360   0.13525   0.14080   0.14567   0.14954

  Beta  occ. eigenvalues --  -19.05808 -18.99222 -14.25764 -14.19611 -14.19587
  Beta  occ. eigenvalues --  -14.19243 -10.18353 -10.12182 -10.09830 -10.09689
  Beta  occ. eigenvalues --  -10.08428 -10.08422 -10.08384 -10.08317 -10.08258
  Beta  occ. eigenvalues --   -0.99652  -0.91170  -0.90082  -0.83349  -0.78615
  Beta  occ. eigenvalues --   -0.76891  -0.66781  -0.65391  -0.61076  -0.56168
  Beta  occ. eigenvalues --   -0.53589  -0.53435  -0.50561  -0.47288  -0.46405
  Beta  occ. eigenvalues --   -0.43690  -0.38982  -0.37618  -0.36983  -0.35855
  Beta  occ. eigenvalues --   -0.35628  -0.34995  -0.34298  -0.33781  -0.33032
  Beta  occ. eigenvalues --   -0.31542  -0.31011  -0.29079  -0.28774  -0.28402
  Beta  occ. eigenvalues --   -0.26967  -0.24577  -0.23757  -0.23497  -0.21201
  Beta  occ. eigenvalues --   -0.18185  -0.17980  -0.16698  -0.14840  -0.12799
  Beta  occ. eigenvalues --   -0.08882
  Beta virt. eigenvalues --    0.07001   0.07784   0.08115   0.08328   0.09275
  Beta virt. eigenvalues --    0.09346   0.10418   0.11219   0.11362   0.11710
  Beta virt. eigenvalues --    0.12159   0.13366   0.13885   0.14466   0.14853

 Mulliken charges and spin densities:
               1          2
     1  C   -0.488880   0.053963
     2  C    0.704146  -0.982786
     3  N    0.057846   0.157575
     4  C   -0.320610  -0.095881
     5  C   -0.220498  -0.119726
     6  N   -0.105789  -0.017380
     7  C    0.365767  -1.680047
     8  C    0.951970  -0.128036
     9  C   -0.388226   0.347597
    10  N   -0.123613   0.045234
    11  C   -0.063507   0.237805
    12  N   -0.080775  -0.028491
    13  C   -0.174180  -0.245700
    14  O   -0.337265   0.029516
    15  O   -0.120433   0.007262
    16  H    0.520653  -0.308041
    17  H   -0.493457   0.671028
    18  H   -0.529657   0.674322
    19  H    0.069245   0.084178
    20  H    0.014677   0.128645
    21  H    0.189772  -0.015751
    22  H    0.193897   0.032757
    23  H    0.114842   0.037849
    24  H    0.215715  -0.008823
    25  H    0.208921  -0.011217
    26  H   -0.363060   0.556016
    27  H   -0.570997   0.743814
    28  H   -0.477883   0.830522
    29  H    0.251380   0.003797
 Sum of Mulliken charges =  -1.00000   1.00000

 Dipole moment (field-independent basis, Debye):
    X=             -0.8394    Y=             -7.4178    Z=             -1.4638  Tot=              7.6073
 Quadrupole moment (field-independent basis, Debye-Ang):
   XX=           -128.8717   YY=           -138.4342   ZZ=           -121.9581
   XY=             -5.5330   XZ=             -5.4370   YZ=             -4.1190

 Summary of Natural Population Analysis:

                                       Natural Population
                Natural  -----------------------------------------------
    Atom  No    Charge         Core      Valence    Rydberg      Total
 -----------------------------------------------------------------------
      C    1   -0.10125      0.99962     2.08950    0.01212     3.10125
      C    2   -0.09529      0.99961     2.08224    0.01344     3.09529
      N    3   -0.27432      0.99973     2.75984    0.01475     3.77432
      C    4   -0.09609      0.99961     2.08522    0.01126     3.09609
      C    5   -0.09981      0.99962     2.09007    0.01012     3.09981
      N    6   -0.33592      0.99977     2.82439    0.01176     3.83592
      C    7   -0.10346      0.99956     2.09004    0.01386     3.10346
      C    8    0.10925      0.99950     1.87804    0.01321     2.89075
      C    9   -0.02291      0.99939     2.00844    0.01507     3.02291
      N   10   -0.23414      0.99971     2.72609    0.00834     3.73414
      C   11    0.09764      0.99965     1.88436    0.01835     2.90236
      N   12   -0.26736      0.99965     2.75509    0.01261     3.76736
      C   13    0.40391      0.99964     1.57245    0.02400     2.59609
      O   14   -0.32361      0.99987     3.31790    0.00583     4.32361
      O   15   -0.33477      0.99988     3.32872    0.00618     4.33477
      H   16    0.09377      0.00000     0.40436    0.00187     0.40623
      H   17    0.09335      0.00000     0.40552    0.00113     0.40665
      H   18    0.10244      0.00000     0.39443    0.00313     0.39756
      H   19    0.08640      0.00000     0.41225    0.00135     0.41360
      H   20    0.08256      0.00000     0.41620    0.00124     0.41744
      H   21    0.11086      0.00000     0.38795    0.00119     0.38914
      H   22    0.09714      0.00000     0.40133    0.00152     0.40286
      H   23    0.08939      0.00000     0.40968    0.00094     0.41061
      H   24    0.16305      0.00000     0.33484    0.00211     0.33695
      H   25    0.11434      0.00000     0.38455    0.00111     0.38566
      H   26    0.10254      0.00000     0.39597    0.00149     0.39746
      H   27    0.09480      0.00000     0.40384    0.00137     0.40520
      H   28    0.21632      0.00000     0.25802    0.02566     0.28368
      H   29    0.23117      0.00000     0.26480    0.00404     0.26883
 =======================================================================
   * Total *    0.00000     14.99483    40.76612    0.23905    56.00000

 Normal termination of Gaussian 16 at Thu Dec 10 16:40:23 2020.
