 Gaussian 16, Revision A.03,

 -----------------------------------------------------------
 # opt freq B3LYP/6-31G(d) empiricaldispersion=gd3bj scf=xqc
 -----------------------------------------------------------

 ------------------------------
 CID_22750497_JID_2020_neutraal
 ------------------------------
 Symbolic Z-matrix:
 Charge =  0 Multiplicity = 1

 SCF Done:  E(RB3LYP) =  -485.421040673     A.U. after   13 cycles
 SCF Done:  E(RB3LYP) =  -485.423217506     A.U. after   11 cycles
 SCF Done:  E(RB3LYP) =  -485.423689059     A.U. after   11 cycles
 SCF Done:  E(RB3LYP) =  -485.423823184     A.U. after    9 cycles
 SCF Done:  E(RB3LYP) =  -485.423937783     A.U. after    9 cycles
 SCF Done:  E(RB3LYP) =  -485.424041243     A.U. after   10 cycles
 SCF Done:  E(RB3LYP) =  -485.424081137     A.U. after   11 cycles
 SCF Done:  E(RB3LYP) =  -485.424114722     A.U. after    9 cycles
 SCF Done:  E(RB3LYP) =  -485.424439069     A.U. after   12 cycles
 SCF Done:  E(RB3LYP) =  -485.424272370     A.U. after   13 cycles
 SCF Done:  E(RB3LYP) =  -485.425380359     A.U. after    7 cycles
 SCF Done:  E(RB3LYP) =  -485.425380481     A.U. after    7 cycles
 SCF Done:  E(RB3LYP) =  -485.425380552     A.U. after    7 cycles
 SCF Done:  E(RB3LYP) =  -485.425380592     A.U. after    7 cycles
 SCF Done:  E(RB3LYP) =  -485.425380614     A.U. after    7 cycles
 SCF Done:  E(RB3LYP) =  -485.425380661     A.U. after    7 cycles
 Optimization completed.
    -- Stationary point found.
 Normal termination of Gaussian 16 at Wed Dec  9 17:05:47 2020.

 --------------------------------------------------------------------
 #N Geom=AllCheck Guess=TCheck SCRF=Check GenChk RB3LYP/6-31G(d) Freq
 --------------------------------------------------------------------

 Structure from the checkpoint file:  "JID_2020.chk"
 ------------------------------
 CID_22750497_JID_2020_neutraal
 ------------------------------
 Charge =  0 Multiplicity = 1

 SCF Done:  E(RB3LYP) =  -485.425380661     A.U. after    1 cycles

  Exact polarizability: 110.909 -15.696 132.043  17.929   7.162 108.355
 Approx polarizability: 145.479 -25.505 211.706  31.906  14.622 178.483

                      1                      2                      3
                      A                      A                      A
 Frequencies --     23.4600                37.3331                47.8463
 Red. masses --      3.2138                 3.7319                 2.7898
 Frc consts  --      0.0010                 0.0031                 0.0038
 IR Inten    --      0.0830                 0.2191                 0.1618

                      4                      5                      6
                      A                      A                      A
 Frequencies --     61.3321                73.0483                86.9703
 Red. masses --      3.6695                 2.9428                 4.1196
 Frc consts  --      0.0081                 0.0093                 0.0184
 IR Inten    --      0.6509                 0.3555                 0.0888

                      7                      8                      9
                      A                      A                      A
 Frequencies --    128.3280               229.1058               230.5229
 Red. masses --      1.8341                 1.4838                 1.2354
 Frc consts  --      0.0178                 0.0459                 0.0387
 IR Inten    --      0.0303                 1.7294                 1.4334

                     10                     11                     12
                      A                      A                      A
 Frequencies --    233.4967               274.3764               276.3473
 Red. masses --      1.6858                 1.3053                 1.6164
 Frc consts  --      0.0542                 0.0579                 0.0727
 IR Inten    --      3.5854                 0.1501                 0.0302

                     13                     14                     15
                      A                      A                      A
 Frequencies --    288.2964               368.4095               386.0892
 Red. masses --      1.0407                 2.1206                 2.9841
 Frc consts  --      0.0510                 0.1696                 0.2621
 IR Inten    --     20.8973                 0.0305                 0.1996

                     16                     17                     18
                      A                      A                      A
 Frequencies --    418.3119               420.1052               462.4888
 Red. masses --      2.5965                 2.2258                 2.4241
 Frc consts  --      0.2677                 0.2314                 0.3055
 IR Inten    --      0.4649                 0.4679                 0.2561

                     19                     20                     21
                      A                      A                      A
 Frequencies --    509.5132               538.3765               637.3366
 Red. masses --      2.4951                 6.4087                 6.3382
 Frc consts  --      0.3816                 1.0944                 1.5169
 IR Inten    --     49.7066                 2.4389                 0.3423

                     22                     23                     24
                      A                      A                      A
 Frequencies --    657.4443               706.2548               764.7810
 Red. masses --      1.4118                 1.9823                 1.7582
 Frc consts  --      0.3595                 0.5826                 0.6059
 IR Inten    --    341.2233                12.1140               100.0470

                     25                     26                     27
                      A                      A                      A
 Frequencies --    775.1974               811.2105               829.5111
 Red. masses --      1.7088                 1.4090                 1.2578
 Frc consts  --      0.6050                 0.5463                 0.5099
 IR Inten    --      1.2186                 1.8113                 0.6772

                     28                     29                     30
                      A                      A                      A
 Frequencies --    838.9140               879.9271               928.9492
 Red. masses --      3.9850                 1.5165                 2.1003
 Frc consts  --      1.6524                 0.6918                 1.0679
 IR Inten    --      5.6900                21.0004                 0.8838

                     31                     32                     33
                      A                      A                      A
 Frequencies --    944.3451               949.4516               975.4011
 Red. masses --      1.1708                 1.3224                 1.2299
 Frc consts  --      0.6152                 0.7023                 0.6894
 IR Inten    --      0.9815                 0.0249                 0.5234

                     34                     35                     36
                      A                      A                      A
 Frequencies --    976.3484               999.9425              1015.6942
 Red. masses --      1.4305                 1.1820                 5.8183
 Frc consts  --      0.8034                 0.6963                 3.5365
 IR Inten    --      0.1444                 5.3795                 0.2994

                     37                     38                     39
                      A                      A                      A
 Frequencies --   1038.4751              1059.0947              1061.0394
 Red. masses --      1.4908                 2.1507                 2.7268
 Frc consts  --      0.9472                 1.4214                 1.8087
 IR Inten    --      2.0039                 1.7038                 0.5477

                     40                     41                     42
                      A                      A                      A
 Frequencies --   1083.1586              1154.5863              1183.7145
 Red. masses --      1.6065                 1.2438                 1.9495
 Frc consts  --      1.1105                 0.9769                 1.6094
 IR Inten    --      2.4662                 2.8606                 2.0889

                     43                     44                     45
                      A                      A                      A
 Frequencies --   1191.1571              1211.1371              1212.6792
 Red. masses --      1.0866                 1.5916                 1.1939
 Frc consts  --      0.9084                 1.3755                 1.0344
 IR Inten    --      1.5106                 0.8484                 7.1596

                     46                     47                     48
                      A                      A                      A
 Frequencies --   1222.9764              1314.6329              1319.5910
 Red. masses --      1.9471                 1.2482                 3.1137
 Frc consts  --      1.7159                 1.2710                 3.1945
 IR Inten    --      0.7182                 2.4969                44.5806

                     49                     50                     51
                      A                      A                      A
 Frequencies --   1343.8177              1372.3692              1378.9409
 Red. masses --      1.2622                 3.6147                 1.4855
 Frc consts  --      1.3429                 4.0111                 1.6642
 IR Inten    --      5.9467                 5.5378                 1.7325

                     52                     53                     54
                      A                      A                      A
 Frequencies --   1388.0316              1405.7131              1428.4766
 Red. masses --      1.3372                 1.5117                 1.2958
 Frc consts  --      1.5179                 1.7600                 1.5579
 IR Inten    --      2.0330                 0.6312                 4.0432

                     55                     56                     57
                      A                      A                      A
 Frequencies --   1444.4730              1447.1611              1510.7141
 Red. masses --      1.2495                 1.2211                 1.0647
 Frc consts  --      1.5361                 1.5068                 1.4316
 IR Inten    --      2.0060                 1.1275                 0.2698

                     58                     59                     60
                      A                      A                      A
 Frequencies --   1518.1937              1519.7389              1524.8103
 Red. masses --      1.0696                 1.7648                 1.1881
 Frc consts  --      1.4525                 2.4015                 1.6275
 IR Inten    --      2.4647                 0.6783                 6.3340

                     61                     62                     63
                      A                      A                      A
 Frequencies --   1529.2966              1534.5609              1538.8681
 Red. masses --      1.0472                 1.0696                 1.0567
 Frc consts  --      1.4429                 1.4840                 1.4743
 IR Inten    --     14.4547                 3.0631                17.2582

                     64                     65                     66
                      A                      A                      A
 Frequencies --   1544.3113              1553.1829              1648.7043
 Red. masses --      1.0511                 2.3596                 5.6419
 Frc consts  --      1.4769                 3.3537                 9.0357
 IR Inten    --      5.8994                48.7730                 4.2560

                     67                     68                     69
                      A                      A                      A
 Frequencies --   1670.2180              1698.3109              3004.4988
 Red. masses --      3.8135                 1.2532                 1.0826
 Frc consts  --      6.2678                 2.1297                 5.7581
 IR Inten    --     35.4911                86.8993                15.3927

                     70                     71                     72
                      A                      A                      A
 Frequencies --   3025.1972              3034.2731              3040.4386
 Red. masses --      1.0585                 1.0367                 1.0397
 Frc consts  --      5.7078                 5.6234                 5.6625
 IR Inten    --     26.5386                37.6041                32.3110

                     73                     74                     75
                      A                      A                      A
 Frequencies --   3045.8244              3062.1417              3094.9023
 Red. masses --      1.0480                 1.0950                 1.1011
 Frc consts  --      5.7280                 6.0494                 6.2139
 IR Inten    --     13.2287                38.3822                 4.0752

                     76                     77                     78
                      A                      A                      A
 Frequencies --   3101.9933              3108.6139              3113.1983
 Red. masses --      1.1004                 1.1024                 1.0976
 Frc consts  --      6.2383                 6.2764                 6.2675
 IR Inten    --     90.3122                38.7943                46.2174

                     79                     80                     81
                      A                      A                      A
 Frequencies --   3126.5996              3143.0258              3172.1943
 Red. masses --      1.0994                 1.0986                 1.0867
 Frc consts  --      6.3323                 6.3941                 6.4430
 IR Inten    --     35.2803                23.5123                14.2185

                     82                     83                     84
                      A                      A                      A
 Frequencies --   3176.1091              3190.1545              3195.6400
 Red. masses --      1.0866                 1.0898                 1.0939
 Frc consts  --      6.4584                 6.5346                 6.5815
 IR Inten    --      7.1796                 4.7168                41.6218

                     85                     86                     87
                      A                      A                      A
 Frequencies --   3212.8309              3546.0926              3643.2062
 Red. masses --      1.0972                 1.0481                 1.0974
 Frc consts  --      6.6731                 7.7653                 8.5820
 IR Inten    --     16.3935                 9.5880                 8.3900

 - Thermochemistry -
 -------------------
 Temperature   298.150 Kelvin.  Pressure   1.00000 Atm.
 Atom     1 has atomic number  6 and mass  12.00000

 Molecular mass:   165.15175 amu.
 Principal axes and moments of inertia in atomic units:
                           1         2         3
     Eigenvalues --  1395.564933468.634184030.49707
           X            0.99991  -0.00794   0.01037
           Y            0.00792   0.99997   0.00127
           Z           -0.01038  -0.00119   0.99995
 This molecule is an asymmetric top.
 Rotational symmetry number  1.
 Warning -- assumption of classical behavior for rotation
           may cause significant error
 Rotational temperatures (Kelvin)      0.06206     0.02497     0.02149
 Rotational constants (GHZ):           1.29320     0.52030     0.44777
 Zero-point vibrational energy     734947.0 (Joules/Mol)
                                  175.65654 (Kcal/Mol)
 Warning -- explicit consideration of  20 degrees of freedom as
           vibrations may cause significant error
 Vibrational temperatures:     33.75    53.71    68.84    88.24   105.10
          (Kelvin)            125.13   184.64   329.63   331.67   335.95
                              394.77   397.60   414.79   530.06   555.50
                              601.86   604.44   665.42   733.08   774.60
                              916.99   945.92  1016.14  1100.35  1115.34
                             1167.15  1193.48  1207.01  1266.02  1336.55
                             1358.70  1366.05  1403.38  1404.75  1438.69
                             1461.36  1494.13  1523.80  1526.60  1558.42
                             1661.19  1703.10  1713.81  1742.56  1744.77
                             1759.59  1891.46  1898.60  1933.45  1974.53
                             1983.99  1997.07  2022.51  2055.26  2078.27
                             2082.14  2173.58  2184.34  2186.57  2193.86
                             2200.32  2207.89  2214.09  2221.92  2234.68
                             2372.12  2403.07  2443.49  4322.80  4352.58
                             4365.64  4374.51  4382.26  4405.74  4452.87
                             4463.08  4472.60  4479.20  4498.48  4522.11
                             4564.08  4569.71  4589.92  4597.81  4622.55
                             5102.04  5241.76

 Zero-point correction=                           0.279927 (Hartree/Particle)
 Thermal correction to Energy=                    0.294653
 Thermal correction to Enthalpy=                  0.295597
 Thermal correction to Gibbs Free Energy=         0.236558
 Sum of electronic and zero-point Energies=           -485.145454
 Sum of electronic and thermal Energies=              -485.130728
 Sum of electronic and thermal Enthalpies=            -485.129784
 Sum of electronic and thermal Free Energies=         -485.188822

                     E (Thermal)             CV                S
                      KCal/Mol        Cal/Mol-Kelvin    Cal/Mol-Kelvin
 Total                  184.897             53.561            124.257
 Electronic               0.000              0.000              0.000
 Translational            0.889              2.981             41.213
 Rotational               0.889              2.981             31.346
 Vibrational            183.120             47.599             51.698
 Vibration     1          0.593              1.985              6.317
 Vibration     2          0.594              1.982              5.396
 Vibration     3          0.595              1.978              4.904
 Vibration     4          0.597              1.973              4.414
 Vibration     5          0.599              1.967              4.069
 Vibration     6          0.601              1.958              3.727
 Vibration     7          0.611              1.925              2.971
 Vibration     8          0.652              1.797              1.886
 Vibration     9          0.652              1.794              1.875
 Vibration    10          0.654              1.790              1.852
 Vibration    11          0.677              1.721              1.568
 Vibration    12          0.678              1.717              1.556
 Vibration    13          0.685              1.695              1.484
 Vibration    14          0.741              1.537              1.086
 Vibration    15          0.755              1.500              1.015
 Vibration    16          0.781              1.430              0.898
 Vibration    17          0.783              1.427              0.892
 Vibration    18          0.820              1.333              0.759
 Vibration    19          0.865              1.229              0.635
 Vibration    20          0.893              1.165              0.569

                           ! Non-Optimized Parameters !
 Normal termination of Gaussian 16 at Wed Dec  9 17:14:05 2020.

 ----------------------------------------------------------------------
 # B3LYP/6-311++G(d,p) empiricaldispersion=gd3bj scf=xqc pop=npa geom=c
 heck
 ----------------------------------------------------------------------

 --------------------------------------
 CID_22750497_JID_2020_Energie_neutraal
 --------------------------------------
 Structure from the checkpoint file:  "JID_2020.chk"
 Charge =  0 Multiplicity = 1

 SCF Done:  E(RB3LYP) =  -485.567163374     A.U. after   14 cycles
 Normal termination of Gaussian 16 at Wed Dec  9 17:17:16 2020.

 ----------------------------------------------------------------------
 # B3LYP/6-311++G(d,p) empiricaldispersion=gd3bj scf=xqc pop=npa geom=c
 heck
 ----------------------------------------------------------------------

 ------------------------------------
 CID_22750497_JID_2020_Energie_kation
 ------------------------------------
 Structure from the checkpoint file:  "JID_2020.chk"
 Charge =  1 Multiplicity = 2

 SCF Done:  E(UB3LYP) =  -485.280847718     A.U. after   21 cycles
 Normal termination of Gaussian 16 at Wed Dec  9 17:23:56 2020.
 Gaussian 16:  ES64L-G16RevA.03 25-Dec-2016

 ----------------------------------------------------------------------
 # B3LYP/6-311++G(d,p) empiricaldispersion=gd3bj scf=xqc pop=npa geom=c
 heck
 ----------------------------------------------------------------------

 -----------------------------------
 CID_22750497_JID_2020_Energie_anion
 -----------------------------------
 Structure from the checkpoint file:  "JID_2020.chk"
 Charge = -1 Multiplicity = 2

                         Standard orientation:
 ---------------------------------------------------------------------
 Center     Atomic      Atomic             Coordinates (Angstroms)
 Number     Number       Type             X           Y           Z
 ---------------------------------------------------------------------
      1          6           0       -0.889982   -1.521470    1.189609
      2          6           0       -1.925941   -1.246347    0.097511
      3          6           0       -2.808298   -0.010362    0.347544
      4          6           0       -1.998310    1.292546    0.340991
      5          6           0       -3.941984    0.062628   -0.682694
      6          6           0        2.419834   -1.562868   -0.492249
      7          6           0        1.635238   -0.888439   -1.429626
      8          6           0        1.275390    0.441924   -1.232350
      9          6           0        1.693524    1.129388   -0.080944
     10          6           0        2.484004    0.448427    0.859309
     11          6           0        2.841938   -0.881268    0.650168
     12          7           0        1.375224    2.480288    0.096000
     13          1           0       -0.342306   -2.446806    0.983978
     14          1           0       -1.371883   -1.625418    2.170355
     15          1           0       -0.146517   -0.722617    1.256731
     16          1           0       -1.412572   -1.128214   -0.867017
     17          1           0       -2.580740   -2.122797   -0.006658
     18          1           0       -3.261937   -0.120765    1.344803
     19          1           0       -1.542309    1.446983   -0.645799
     20          1           0       -2.640105    2.155832    0.553866
     21          1           0       -1.192131    1.278210    1.080439
     22          1           0       -4.562080   -0.841010   -0.657514
     23          1           0       -4.594297    0.925167   -0.501471
     24          1           0       -3.536675    0.159589   -1.698497
     25          1           0        2.696307   -2.600778   -0.649144
     26          1           0        1.295694   -1.401868   -2.325228
     27          1           0        0.670078    0.959708   -1.972187
     28          1           0        2.817818    0.969879    1.753586
     29          1           0        3.451290   -1.389206    1.392884
     30          1           0        1.402733    2.791917    1.059430
     31          1           0        0.510587    2.765228   -0.348181
 ---------------------------------------------------------------------

 SCF Done:  E(UB3LYP) =  -485.552396397     A.U. after   31 cycles

 The electronic state is 2-A.
 Alpha  occ. eigenvalues --  -14.21147 -10.11318 -10.07536 -10.07507 -10.06793
 Alpha  occ. eigenvalues --  -10.06773 -10.06708 -10.06649 -10.05706 -10.05551
 Alpha  occ. eigenvalues --  -10.04755 -10.04735  -0.81641  -0.73883  -0.70593
 Alpha  occ. eigenvalues --   -0.64685  -0.62742  -0.62676  -0.57866  -0.51983
 Alpha  occ. eigenvalues --   -0.51339  -0.49888  -0.45245  -0.42573  -0.40335
 Alpha  occ. eigenvalues --   -0.37875  -0.36202  -0.34105  -0.33515  -0.32880
 Alpha  occ. eigenvalues --   -0.32716  -0.32042  -0.31042  -0.28505  -0.28000
 Alpha  occ. eigenvalues --   -0.27435  -0.26206  -0.25605  -0.24528  -0.24332
 Alpha  occ. eigenvalues --   -0.22224  -0.21845  -0.21261  -0.20945  -0.15511
 Alpha  occ. eigenvalues --   -0.11047   0.04582
 Alpha virt. eigenvalues --    0.06808   0.06857   0.07672   0.08365   0.08708
 Alpha virt. eigenvalues --    0.08831   0.09517   0.09782   0.09890   0.10937
 Alpha virt. eigenvalues --    0.11236   0.11910   0.12578   0.13028   0.13450

  Beta  occ. eigenvalues --  -14.21092 -10.11317 -10.07526 -10.07499 -10.06777
  Beta  occ. eigenvalues --  -10.06763 -10.06683 -10.06643 -10.05696 -10.05528
  Beta  occ. eigenvalues --  -10.04744 -10.04697  -0.81580  -0.73846  -0.70567
  Beta  occ. eigenvalues --   -0.64653  -0.62715  -0.62624  -0.57802  -0.51934
  Beta  occ. eigenvalues --   -0.51295  -0.49837  -0.45190  -0.42508  -0.40282
  Beta  occ. eigenvalues --   -0.37806  -0.36161  -0.34076  -0.33476  -0.32845
  Beta  occ. eigenvalues --   -0.32687  -0.31998  -0.31015  -0.28479  -0.27969
  Beta  occ. eigenvalues --   -0.27405  -0.26168  -0.25567  -0.24500  -0.24303
  Beta  occ. eigenvalues --   -0.22187  -0.21808  -0.21236  -0.20912  -0.15485
  Beta  occ. eigenvalues --   -0.11009
  Beta virt. eigenvalues --    0.06677   0.07370   0.07933   0.08191   0.08416
  Beta virt. eigenvalues --    0.09056   0.09408   0.09673   0.10222   0.10306
  Beta virt. eigenvalues --    0.11151   0.11555   0.12489   0.12812   0.13321

 Mulliken charges and spin densities:
               1          2
     1  C   -0.460965  -0.006016
     2  C    0.325220  -0.419007
     3  C   -0.393428   0.610724
     4  C    0.310130  -0.877761
     5  C    0.441002  -1.013470
     6  C    0.397136  -0.765562
     7  C   -0.424299   0.192635
     8  C    1.049037  -0.960607
     9  C    0.408836  -0.774598
    10  C   -0.840038   0.844341
    11  C    0.287136  -0.488894
    12  N   -0.187868  -0.079308
    13  H    0.042799   0.054018
    14  H   -0.127064   0.262938
    15  H    0.246386  -0.093840
    16  H    0.184544  -0.102505
    17  H    0.020521   0.138516
    18  H    0.065854   0.062994
    19  H    0.157008  -0.074106
    20  H   -0.595243   0.749728
    21  H   -0.205859   0.362665
    22  H   -0.102309   0.216946
    23  H   -0.066134   0.199614
    24  H   -0.202068   0.339327
    25  H    0.013620   0.125537
    26  H   -0.134671   0.299336
    27  H   -0.154177   0.319897
    28  H   -0.639223   0.808476
    29  H   -0.086501   0.245890
    30  H   -0.214009   0.466791
    31  H   -0.115376   0.355302
 Sum of Mulliken charges =  -1.00000   1.00000

 Dipole moment (field-independent basis, Debye):
    X=              0.6658    Y=             -4.6906    Z=             -1.6675  Tot=              5.0225
 Quadrupole moment (field-independent basis, Debye-Ang):
   XX=           -137.7705   YY=           -125.0511   ZZ=           -113.5577
   XY=             -0.0578   XZ=             -5.0678   YZ=             -5.2664

 Summary of Natural Population Analysis:

                                       Natural Population
                Natural  -----------------------------------------------
    Atom  No    Charge         Core      Valence    Rydberg      Total
 -----------------------------------------------------------------------
      C    1   -0.28483      0.99966     2.28044    0.00473     3.28483
      C    2   -0.18699      0.99962     2.18024    0.00713     3.18699
      C    3   -0.11334      0.99962     2.10375    0.00997     3.11334
      C    4   -0.28706      0.99965     2.27983    0.00758     3.28706
      C    5   -0.28083      0.99965     2.27642    0.00475     3.28083
      C    6   -0.12717      0.99956     2.11756    0.01005     3.12717
      C    7   -0.09325      0.99956     2.08393    0.00976     3.09325
      C    8   -0.12556      0.99951     2.11606    0.00999     3.12556
      C    9    0.08387      0.99949     1.90449    0.01214     2.91613
      C   10   -0.12540      0.99952     2.11502    0.01086     3.12540
      C   11   -0.09426      0.99957     2.08414    0.01055     3.09426
      N   12   -0.39417      0.99971     2.88425    0.01020     3.89417
      H   13    0.09802      0.00000     0.40096    0.00102     0.40198
      H   14    0.09130      0.00000     0.40758    0.00112     0.40870
      H   15    0.10307      0.00000     0.39495    0.00199     0.39693
      H   16    0.09552      0.00000     0.40288    0.00161     0.40448
      H   17    0.09044      0.00000     0.40840    0.00116     0.40956
      H   18    0.08775      0.00000     0.41031    0.00193     0.41225
      H   19    0.09295      0.00000     0.40512    0.00193     0.40705
      H   20    0.09949      0.00000     0.39905    0.00146     0.40051
      H   21    0.10232      0.00000     0.39557    0.00210     0.39768
      H   22    0.09547      0.00000     0.40337    0.00116     0.40453
      H   23    0.09791      0.00000     0.40106    0.00103     0.40209
      H   24    0.09609      0.00000     0.40271    0.00120     0.40391
      H   25    0.09882      0.00000     0.40029    0.00089     0.40118
      H   26    0.09906      0.00000     0.39998    0.00096     0.40094
      H   27    0.10118      0.00000     0.39723    0.00159     0.39882
      H   28    0.10306      0.00000     0.39543    0.00151     0.39694
      H   29    0.09916      0.00000     0.39996    0.00088     0.40084
      H   30    0.18933      0.00000     0.30553    0.00513     0.31067
      H   31    0.18803      0.00000     0.30909    0.00288     0.31197
 =======================================================================
   * Total *    0.00000     11.99512    33.86560    0.13928    46.00000

 Normal termination of Gaussian 16 at Wed Dec  9 17:33:10 2020.
