 Gaussian 16, Revision A.03,

 -----------------------------------------------------------
 # opt freq B3LYP/6-31G(d) empiricaldispersion=gd3bj scf=xqc
 -----------------------------------------------------------

 ------------------------------
 CID_62327790_JID_2655_neutraal
 ------------------------------
 Symbolic Z-matrix:
 Charge =  0 Multiplicity = 1

 SCF Done:  E(RB3LYP) =  -559.655403120     A.U. after   14 cycles
 SCF Done:  E(RB3LYP) =  -559.658580602     A.U. after   12 cycles
 SCF Done:  E(RB3LYP) =  -559.658978976     A.U. after   12 cycles
 SCF Done:  E(RB3LYP) =  -559.659426629     A.U. after   12 cycles
 SCF Done:  E(RB3LYP) =  -559.659976014     A.U. after   11 cycles
 SCF Done:  E(RB3LYP) =  -559.660308277     A.U. after   12 cycles
 SCF Done:  E(RB3LYP) =  -559.660381973     A.U. after   12 cycles
 SCF Done:  E(RB3LYP) =  -559.660149090     A.U. after   12 cycles
 SCF Done:  E(RB3LYP) =  -559.660523174     A.U. after   12 cycles
 SCF Done:  E(RB3LYP) =  -559.660570486     A.U. after   11 cycles
 SCF Done:  E(RB3LYP) =  -559.660666009     A.U. after   10 cycles
 SCF Done:  E(RB3LYP) =  -559.660664309     A.U. after    8 cycles
 SCF Done:  E(RB3LYP) =  -559.660668336     A.U. after   10 cycles
 SCF Done:  E(RB3LYP) =  -559.660668504     A.U. after    7 cycles
 SCF Done:  E(RB3LYP) =  -559.660668545     A.U. after    8 cycles
 SCF Done:  E(RB3LYP) =  -559.660668553     A.U. after    6 cycles
 Optimization completed.
    -- Stationary point found.
 Normal termination of Gaussian 16 at Wed Dec  9 18:00:18 2020.

 --------------------------------------------------------------------
 #N Geom=AllCheck Guess=TCheck SCRF=Check GenChk RB3LYP/6-31G(d) Freq
 --------------------------------------------------------------------

 Structure from the checkpoint file:  "JID_2655.chk"
 ------------------------------
 CID_62327790_JID_2655_neutraal
 ------------------------------
 Charge =  0 Multiplicity = 1

 SCF Done:  E(RB3LYP) =  -559.660668553     A.U. after    1 cycles

  Exact polarizability: 119.705   2.644 112.105   0.257   4.575  92.376
 Approx polarizability: 151.889  -4.421 155.611  -2.299   9.124 134.792

                      1                      2                      3
                      A                      A                      A
 Frequencies --     24.3847                43.9133                61.6182
 Red. masses --      3.3559                 3.2007                 2.8890
 Frc consts  --      0.0012                 0.0036                 0.0065
 IR Inten    --      0.3008                 0.4426                 0.6414

                      4                      5                      6
                      A                      A                      A
 Frequencies --     70.5171                77.6587                84.8165
 Red. masses --      2.5924                 5.3645                 2.1470
 Frc consts  --      0.0076                 0.0191                 0.0091
 IR Inten    --      0.0745                 1.2071                 1.0083

                      7                      8                      9
                      A                      A                      A
 Frequencies --    158.5842               186.6161               219.7489
 Red. masses --      2.9904                 3.7486                 1.0752
 Frc consts  --      0.0443                 0.0769                 0.0306
 IR Inten    --      1.0672                 1.6267                 0.1754

                     10                     11                     12
                      A                      A                      A
 Frequencies --    245.2908               257.1299               270.2246
 Red. masses --      1.1357                 1.5494                 1.9298
 Frc consts  --      0.0403                 0.0604                 0.0830
 IR Inten    --      0.6859                 1.2722                 3.4091

                     13                     14                     15
                      A                      A                      A
 Frequencies --    296.9110               308.2255               329.2785
 Red. masses --      2.5823                 2.0402                 3.2615
 Frc consts  --      0.1341                 0.1142                 0.2083
 IR Inten    --      2.4726                 4.3251                 5.5941

                     16                     17                     18
                      A                      A                      A
 Frequencies --    382.3977               415.3552               427.4534
 Red. masses --      2.6712                 2.3220                 1.8842
 Frc consts  --      0.2301                 0.2360                 0.2028
 IR Inten    --      1.7840                 1.2178                 1.0814

                     19                     20                     21
                      A                      A                      A
 Frequencies --    508.3211               519.3518               627.7296
 Red. masses --      3.3059                 2.4587                 3.9032
 Frc consts  --      0.5033                 0.3907                 0.9062
 IR Inten    --      0.9089                 7.5007                 8.1629

                     22                     23                     24
                      A                      A                      A
 Frequencies --    744.6502               758.6055               828.1851
 Red. masses --      3.2911                 1.4890                 1.3497
 Frc consts  --      1.0752                 0.5049                 0.5454
 IR Inten    --      3.7575                95.2515                 1.6666

                     25                     26                     27
                      A                      A                      A
 Frequencies --    829.7287               843.4708               855.5734
 Red. masses --      2.0528                 2.7723                 2.1087
 Frc consts  --      0.8326                 1.1621                 0.9095
 IR Inten    --      1.4381                12.8795                 4.7148

                     28                     29                     30
                      A                      A                      A
 Frequencies --    920.6688               929.0868               944.9290
 Red. masses --      2.4449                 1.6687                 1.2243
 Frc consts  --      1.2210                 0.8487                 0.6441
 IR Inten    --      8.9533                15.9013                 4.1152

                     31                     32                     33
                      A                      A                      A
 Frequencies --    950.7769               975.9038               982.8239
 Red. masses --      1.6621                 1.7177                 1.5453
 Frc consts  --      0.8852                 0.9638                 0.8795
 IR Inten    --      3.2060                 3.6926                 2.2164

                     34                     35                     36
                      A                      A                      A
 Frequencies --   1036.3266              1054.1715              1068.9968
 Red. masses --      2.5525                 2.3527                 3.3321
 Frc consts  --      1.6151                 1.5404                 2.2435
 IR Inten    --     23.9498                13.3533                66.2180

                     37                     38                     39
                      A                      A                      A
 Frequencies --   1136.3748              1148.0961              1157.7652
 Red. masses --      2.7599                 1.6950                 2.2336
 Frc consts  --      2.0998                 1.3164                 1.7640
 IR Inten    --     68.3017                28.0865                 0.4662

                     40                     41                     42
                      A                      A                      A
 Frequencies --   1179.1903              1207.4062              1211.4279
 Red. masses --      1.5080                 2.1395                 1.7650
 Frc consts  --      1.2355                 1.8377                 1.5261
 IR Inten    --     24.6527                47.7297                 0.7129

                     43                     44                     45
                      A                      A                      A
 Frequencies --   1222.4773              1283.1826              1291.9548
 Red. masses --      2.3325                 1.5916                 1.3998
 Frc consts  --      2.0538                 1.5441                 1.3766
 IR Inten    --    124.3485                78.1230                38.0096

                     46                     47                     48
                      A                      A                      A
 Frequencies --   1318.9442              1333.4616              1348.1827
 Red. masses --      1.2502                 1.2536                 1.3142
 Frc consts  --      1.2813                 1.3134                 1.4073
 IR Inten    --     17.6729                16.9272                 0.9179

                     49                     50                     51
                      A                      A                      A
 Frequencies --   1372.3303              1398.3113              1400.0540
 Red. masses --      1.2802                 1.2983                 1.3206
 Frc consts  --      1.4205                 1.4957                 1.5251
 IR Inten    --     14.7818                13.8280                30.3489

                     52                     53                     54
                      A                      A                      A
 Frequencies --   1418.1894              1430.1329              1433.6237
 Red. masses --      1.2841                 1.3754                 1.2836
 Frc consts  --      1.5217                 1.6575                 1.5544
 IR Inten    --      2.6377                 5.6031                 8.5676

                     55                     56                     57
                      A                      A                      A
 Frequencies --   1442.8456              1455.1279              1503.6963
 Red. masses --      1.3331                 1.2389                 1.1090
 Frc consts  --      1.6351                 1.5456                 1.4774
 IR Inten    --      7.7057                 5.7867                 9.6537

                     58                     59                     60
                      A                      A                      A
 Frequencies --   1509.1575              1510.4428              1516.4804
 Red. masses --      1.0872                 1.0712                 1.0690
 Frc consts  --      1.4590                 1.4398                 1.4484
 IR Inten    --      3.2641                 2.7111                 8.0427

                     61                     62                     63
                      A                      A                      A
 Frequencies --   1518.2770              1525.2554              1528.6946
 Red. masses --      1.0582                 1.0689                 1.0392
 Frc consts  --      1.4372                 1.4651                 1.4308
 IR Inten    --      2.8487                 5.7571                 3.4652

                     64                     65                     66
                      A                      A                      A
 Frequencies --   1534.7659              1539.7925              1543.2007
 Red. masses --      1.0614                 1.0510                 1.1608
 Frc consts  --      1.4731                 1.4682                 1.6288
 IR Inten    --      2.1973                14.0871                19.5145

                     67                     68                     69
                      A                      A                      A
 Frequencies --   1550.3823              1824.4637              2969.5058
 Red. masses --      1.0978                10.7665                 1.0709
 Frc consts  --      1.5547                21.1151                 5.5639
 IR Inten    --      6.9736               226.8570                56.8665

                     70                     71                     72
                      A                      A                      A
 Frequencies --   3019.8058              3043.9336              3044.2256
 Red. masses --      1.0836                 1.0503                 1.0358
 Frc consts  --      5.8219                 5.7334                 5.6557
 IR Inten    --     24.6455                16.8215                29.2778

                     73                     74                     75
                      A                      A                      A
 Frequencies --   3048.3646              3051.7873              3055.9438
 Red. masses --      1.0583                 1.0778                 1.0359
 Frc consts  --      5.7941                 5.9142                 5.6998
 IR Inten    --     20.2294                55.6847                16.9958

                     76                     77                     78
                      A                      A                      A
 Frequencies --   3081.9261              3083.8266              3095.6305
 Red. masses --      1.0750                 1.0584                 1.0897
 Frc consts  --      6.0161                 5.9306                 6.1528
 IR Inten    --      5.3439                35.4090                36.1283

                     79                     80                     81
                      A                      A                      A
 Frequencies --   3107.9501              3109.9351              3119.3726
 Red. masses --      1.1021                 1.0987                 1.1025
 Frc consts  --      6.2720                 6.2607                 6.3206
 IR Inten    --     28.4231                54.6902                 7.4875

                     82                     83                     84
                      A                      A                      A
 Frequencies --   3123.5146              3127.7799              3133.6514
 Red. masses --      1.1018                 1.1015                 1.1032
 Frc consts  --      6.3334                 6.3491                 6.3829
 IR Inten    --     53.6546                34.2373                28.4287

                     85                     86                     87
                      A                      A                      A
 Frequencies --   3140.3097              3143.4983              3509.5063
 Red. masses --      1.1057                 1.1077                 1.0727
 Frc consts  --      6.4243                 6.4493                 7.7845
 IR Inten    --     13.7937                20.1636                 0.7206

 - Thermochemistry -
 -------------------
 Temperature   298.150 Kelvin.  Pressure   1.00000 Atm.
 Atom     1 has atomic number  6 and mass  12.00000

 Molecular mass:   173.14158 amu.
 Principal axes and moments of inertia in atomic units:
                           1         2         3
     Eigenvalues --  1690.167302968.640703921.04834
           X            0.99981   0.01757  -0.00857
           Y           -0.01746   0.99977   0.01275
           Z            0.00880  -0.01260   0.99988
 This molecule is an asymmetric top.
 Rotational symmetry number  1.
 Warning -- assumption of classical behavior for rotation
           may cause significant error
 Rotational temperatures (Kelvin)      0.05125     0.02918     0.02209
 Rotational constants (GHZ):           1.06779     0.60794     0.46027
 Zero-point vibrational energy     735964.0 (Joules/Mol)
                                  175.89963 (Kcal/Mol)
 Warning -- explicit consideration of  20 degrees of freedom as
           vibrations may cause significant error
 Vibrational temperatures:     35.08    63.18    88.65   101.46   111.73
          (Kelvin)            122.03   228.17   268.50   316.17   352.92
                              369.95   388.79   427.19   443.47   473.76
                              550.18   597.60   615.01   731.36   747.23
                              903.16  1071.39  1091.46  1191.57  1193.79
                             1213.57  1230.98  1324.64  1336.75  1359.54
                             1367.96  1404.11  1414.06  1491.04  1516.72
                             1538.05  1634.99  1651.85  1665.77  1696.59
                             1737.19  1742.97  1758.87  1846.21  1858.83
                             1897.67  1918.55  1939.73  1974.48  2011.86
                             2014.37  2040.46  2057.64  2062.66  2075.93
                             2093.60  2163.48  2171.34  2173.19  2181.88
                             2184.46  2194.50  2199.45  2208.19  2215.42
                             2220.32  2230.65  2625.00  4272.46  4344.83
                             4379.54  4379.96  4385.92  4390.84  4396.82
                             4434.20  4436.94  4453.92  4471.65  4474.50
                             4488.08  4494.04  4500.18  4508.63  4518.21
                             4522.79  5049.40

 Zero-point correction=                           0.280314 (Hartree/Particle)
 Thermal correction to Energy=                    0.294999
 Thermal correction to Enthalpy=                  0.295944
 Thermal correction to Gibbs Free Energy=         0.237278
 Sum of electronic and zero-point Energies=           -559.380355
 Sum of electronic and thermal Energies=              -559.365669
 Sum of electronic and thermal Enthalpies=            -559.364725
 Sum of electronic and thermal Free Energies=         -559.423391

                     E (Thermal)             CV                S
                      KCal/Mol        Cal/Mol-Kelvin    Cal/Mol-Kelvin
 Total                  185.115             52.540            123.473
 Electronic               0.000              0.000              0.000
 Translational            0.889              2.981             41.354
 Rotational               0.889              2.981             31.354
 Vibrational            183.337             46.579             50.765
 Vibration     1          0.593              1.985              6.241
 Vibration     2          0.595              1.980              5.074
 Vibration     3          0.597              1.973              4.405
 Vibration     4          0.598              1.968              4.139
 Vibration     5          0.599              1.964              3.949
 Vibration     6          0.601              1.960              3.776
 Vibration     7          0.621              1.893              2.567
 Vibration     8          0.632              1.858              2.261
 Vibration     9          0.647              1.811              1.961
 Vibration    10          0.660              1.771              1.764
 Vibration    11          0.667              1.751              1.681
 Vibration    12          0.674              1.728              1.595
 Vibration    13          0.691              1.679              1.434
 Vibration    14          0.698              1.658              1.372
 Vibration    15          0.712              1.617              1.264
 Vibration    16          0.752              1.508              1.030
 Vibration    17          0.779              1.437              0.908
 Vibration    18          0.789              1.410              0.867
 Vibration    19          0.863              1.232              0.638
 Vibration    20          0.874              1.207              0.611

 Optimization completed.
    -- Stationary point found.
 Normal termination of Gaussian 16 at Wed Dec  9 18:08:03 2020.

 ----------------------------------------------------------------------
 # B3LYP/6-311++G(d,p) empiricaldispersion=gd3bj scf=xqc pop=npa geom=c
 heck
 ----------------------------------------------------------------------

 --------------------------------------
 CID_62327790_JID_2655_Energie_neutraal
 --------------------------------------
 Structure from the checkpoint file:  "JID_2655.chk"
 Charge =  0 Multiplicity = 1

 SCF Done:  E(RB3LYP) =  -559.827975686     A.U. after   13 cycles
 Normal termination of Gaussian 16 at Wed Dec  9 18:11:02 2020.

 ----------------------------------------------------------------------
 # B3LYP/6-311++G(d,p) empiricaldispersion=gd3bj scf=xqc pop=npa geom=c
 heck
 ----------------------------------------------------------------------

 ------------------------------------
 CID_62327790_JID_2655_Energie_kation
 ------------------------------------
 Structure from the checkpoint file:  "JID_2655.chk"
 Charge =  1 Multiplicity = 2

 SCF Done:  E(UB3LYP) =  -559.516275282     A.U. after   20 cycles
 Normal termination of Gaussian 16 at Wed Dec  9 18:16:43 2020.
 Gaussian 16:  ES64L-G16RevA.03 25-Dec-2016

 ----------------------------------------------------------------------
 # B3LYP/6-311++G(d,p) empiricaldispersion=gd3bj scf=xqc pop=npa geom=c
 heck
 ----------------------------------------------------------------------

 -----------------------------------
 CID_62327790_JID_2655_Energie_anion
 -----------------------------------
 Structure from the checkpoint file:  "JID_2655.chk"
 Charge = -1 Multiplicity = 2

                         Standard orientation:
 ---------------------------------------------------------------------
 Center     Atomic      Atomic             Coordinates (Angstroms)
 Number     Number       Type             X           Y           Z
 ---------------------------------------------------------------------
      1          6           0        2.549233   -2.551402   -0.293710
      2          6           0        2.662730   -1.031296   -0.358039
      3          7           0        1.996279   -0.426509    0.792923
      4          6           0        2.078587    1.022447    0.863460
      5          6           0        1.456495    1.838322   -0.310053
      6          6           0       -0.037873    1.655557   -0.389509
      7          8           0       -0.867235    2.451802   -0.006497
      8          8           0       -0.339308    0.433856   -0.908076
      9          6           0       -1.733695    0.066876   -0.991839
     10          6           0       -2.114923   -0.922487    0.109751
     11          6           0       -1.978250   -0.312616    1.509632
     12          6           0       -3.544487   -1.421491   -0.138211
     13          1           0        2.967930   -2.929092    0.644338
     14          1           0        3.076357   -3.020214   -1.131647
     15          1           0        1.498306   -2.863894   -0.345837
     16          1           0        3.719493   -0.733769   -0.324615
     17          1           0        2.262442   -0.680375   -1.325371
     18          1           0        1.018055   -0.707378    0.779355
     19          1           0        1.605137    1.346541    1.797983
     20          1           0        3.137745    1.299564    0.931155
     21          1           0        1.651505    2.901839   -0.150073
     22          1           0        1.914010    1.534302   -1.256369
     23          1           0       -2.342162    0.972792   -0.935109
     24          1           0       -1.850532   -0.391190   -1.978202
     25          1           0       -1.430336   -1.780002    0.031104
     26          1           0       -2.617886    0.570674    1.614148
     27          1           0       -2.267665   -1.040655    2.275402
     28          1           0       -0.951651    0.001327    1.723013
     29          1           0       -3.645724   -1.883925   -1.127005
     30          1           0       -3.831071   -2.165536    0.612346
     31          1           0       -4.262450   -0.594168   -0.077387
 ---------------------------------------------------------------------

 SCF Done:  E(UB3LYP) =  -559.812499888     A.U. after   32 cycles

 The electronic state is 2-A.
 Alpha  occ. eigenvalues --  -19.07009 -19.01677 -14.19905 -10.20538 -10.12461
 Alpha  occ. eigenvalues --  -10.10725 -10.09004 -10.08564 -10.08391 -10.06420
 Alpha  occ. eigenvalues --  -10.06379 -10.05955  -1.00881  -0.92584  -0.81212
 Alpha  occ. eigenvalues --   -0.71838  -0.68326  -0.63950  -0.60576  -0.59137
 Alpha  occ. eigenvalues --   -0.54290  -0.50863  -0.48501  -0.46514  -0.41035
 Alpha  occ. eigenvalues --   -0.39968  -0.39188  -0.37527  -0.36578  -0.36028
 Alpha  occ. eigenvalues --   -0.34569  -0.33928  -0.32182  -0.30825  -0.29799
 Alpha  occ. eigenvalues --   -0.29133  -0.28680  -0.27961  -0.27032  -0.26459
 Alpha  occ. eigenvalues --   -0.25320  -0.25278  -0.24722  -0.24640  -0.23452
 Alpha  occ. eigenvalues --   -0.20478  -0.18530  -0.13160   0.04505
 Alpha virt. eigenvalues --    0.06100   0.07279   0.07807   0.08777   0.09027
 Alpha virt. eigenvalues --    0.09118   0.09773   0.09935   0.10689   0.11547
 Alpha virt. eigenvalues --    0.11679   0.11977   0.12370   0.12984   0.13312

  Beta  occ. eigenvalues --  -19.06999 -19.01662 -14.19898 -10.20524 -10.12441
  Beta  occ. eigenvalues --  -10.10709 -10.08979 -10.08550 -10.08379 -10.06402
  Beta  occ. eigenvalues --  -10.06336 -10.05929  -1.00857  -0.92559  -0.81194
  Beta  occ. eigenvalues --   -0.71804  -0.68289  -0.63910  -0.60533  -0.59074
  Beta  occ. eigenvalues --   -0.54236  -0.50791  -0.48444  -0.46472  -0.40988
  Beta  occ. eigenvalues --   -0.39933  -0.39158  -0.37487  -0.36540  -0.35980
  Beta  occ. eigenvalues --   -0.34536  -0.33880  -0.32148  -0.30793  -0.29757
  Beta  occ. eigenvalues --   -0.29091  -0.28649  -0.27925  -0.26991  -0.26412
  Beta  occ. eigenvalues --   -0.25282  -0.25232  -0.24685  -0.24598  -0.23414
  Beta  occ. eigenvalues --   -0.20433  -0.18511  -0.13137
  Beta virt. eigenvalues --    0.06722   0.07159   0.07814   0.08355   0.09084
  Beta virt. eigenvalues --    0.09531   0.09699   0.10176   0.10309   0.10839
  Beta virt. eigenvalues --    0.11926   0.12156   0.12396   0.12603   0.13154

 Mulliken charges and spin densities:
               1          2
     1  C    0.900400  -1.388569
     2  C   -0.199802  -0.098647
     3  N   -0.085097   0.055658
     4  C   -0.230336  -0.074845
     5  C    0.305718  -0.615010
     6  C   -0.053877  -0.009557
     7  O   -0.266869   0.030854
     8  O   -0.036610   0.064728
     9  C    0.705855  -1.246196
    10  C   -1.500226   2.019110
    11  C    0.150262  -0.727977
    12  C    1.087328  -1.731097
    13  H    0.018624   0.126172
    14  H   -0.226103   0.353412
    15  H   -0.340008   0.475475
    16  H   -0.429629   0.584322
    17  H    0.133550  -0.025185
    18  H    0.117069   0.066831
    19  H    0.056632   0.108380
    20  H   -0.267002   0.440451
    21  H   -0.086153   0.269275
    22  H   -0.152280   0.337413
    23  H    0.151361   0.060442
    24  H   -0.259410   0.431873
    25  H    0.347894  -0.172026
    26  H    0.028644   0.131891
    27  H   -0.180899   0.324847
    28  H    0.305039  -0.206337
    29  H   -0.512030   0.658480
    30  H   -0.426187   0.574093
    31  H   -0.055858   0.181738
 Sum of Mulliken charges =  -1.00000   1.00000

 Dipole moment (field-independent basis, Debye):
    X=              0.5488    Y=              3.3636    Z=              1.4364  Tot=              3.6984
 Quadrupole moment (field-independent basis, Debye-Ang):
   XX=           -151.2680   YY=           -127.7225   ZZ=           -111.2401
   XY=             -7.3825   XZ=              0.4039   YZ=             -2.9362

 Summary of Natural Population Analysis:

                                       Natural Population
                Natural  -----------------------------------------------
    Atom  No    Charge         Core      Valence    Rydberg      Total
 -----------------------------------------------------------------------
      C    1   -0.28488      0.99967     2.28058    0.00463     3.28488
      C    2   -0.08847      0.99964     2.07813    0.01071     3.08847
      N    3   -0.33925      0.99974     2.82857    0.01093     3.83925
      C    4   -0.08162      0.99963     2.06944    0.01256     3.08162
      C    5   -0.24647      0.99957     2.23870    0.00820     3.24647
      C    6    0.40918      0.99968     1.56528    0.02587     2.59082
      O    7   -0.30781      0.99987     3.30260    0.00534     4.30781
      O    8   -0.28823      0.99986     3.27826    0.01011     4.28823
      C    9   -0.01327      0.99951     2.00180    0.01196     3.01327
      C   10   -0.12776      0.99961     2.11807    0.01008     3.12776
      C   11   -0.28467      0.99964     2.27891    0.00612     3.28467
      C   12   -0.28404      0.99965     2.27826    0.00614     3.28404
      H   13    0.09792      0.00000     0.40077    0.00132     0.40208
      H   14    0.09922      0.00000     0.39972    0.00106     0.40078
      H   15    0.09633      0.00000     0.40185    0.00182     0.40367
      H   16    0.08870      0.00000     0.40953    0.00177     0.41130
      H   17    0.08202      0.00000     0.41607    0.00191     0.41798
      H   18    0.17321      0.00000     0.32212    0.00467     0.32679
      H   19    0.09364      0.00000     0.40526    0.00110     0.40636
      H   20    0.09606      0.00000     0.40256    0.00139     0.40394
      H   21    0.10995      0.00000     0.38892    0.00113     0.39005
      H   22    0.11147      0.00000     0.38680    0.00172     0.38853
      H   23    0.09747      0.00000     0.40119    0.00134     0.40253
      H   24    0.09513      0.00000     0.40360    0.00127     0.40487
      H   25    0.09543      0.00000     0.40159    0.00298     0.40457
      H   26    0.10065      0.00000     0.39851    0.00083     0.39935
      H   27    0.10086      0.00000     0.39830    0.00083     0.39914
      H   28    0.09692      0.00000     0.40199    0.00109     0.40308
      H   29    0.10289      0.00000     0.39518    0.00193     0.39711
      H   30    0.10368      0.00000     0.39481    0.00151     0.39632
      H   31    0.09575      0.00000     0.40312    0.00113     0.40425
 =======================================================================
   * Total *   -0.00000     11.99607    35.85048    0.15345    48.00000

 Normal termination of Gaussian 16 at Wed Dec  9 18:25:23 2020.
