 Gaussian 16, Revision A.03,

 -----------------------------------------------------------
 # opt freq B3LYP/6-31G(d) empiricaldispersion=gd3bj scf=xqc
 -----------------------------------------------------------

 -------------------------------
 CID_80427234_JID_10402_neutraal
 -------------------------------
 Symbolic Z-matrix:
 Charge =  0 Multiplicity = 1

 SCF Done:  E(RB3LYP) =  -1557.36659833     A.U. after   15 cycles
 SCF Done:  E(RB3LYP) =  -1557.37488742     A.U. after   13 cycles
 SCF Done:  E(RB3LYP) =  -1557.37584203     A.U. after   13 cycles
 SCF Done:  E(RB3LYP) =  -1557.37612985     A.U. after   12 cycles
 SCF Done:  E(RB3LYP) =  -1557.37643956     A.U. after   11 cycles
 SCF Done:  E(RB3LYP) =  -1557.37662968     A.U. after   12 cycles
 SCF Done:  E(RB3LYP) =  -1557.37683520     A.U. after   12 cycles
 SCF Done:  E(RB3LYP) =  -1557.37694914     A.U. after   12 cycles
 SCF Done:  E(RB3LYP) =  -1557.37701428     A.U. after   12 cycles
 SCF Done:  E(RB3LYP) =  -1557.37705958     A.U. after   12 cycles
 SCF Done:  E(RB3LYP) =  -1557.38893378     A.U. after   11 cycles
 SCF Done:  E(RB3LYP) =  -1557.38893914     A.U. after    9 cycles
 SCF Done:  E(RB3LYP) =  -1557.38893944     A.U. after    8 cycles
 SCF Done:  E(RB3LYP) =  -1557.38893950     A.U. after    7 cycles
 SCF Done:  E(RB3LYP) =  -1557.38893962     A.U. after    7 cycles
 SCF Done:  E(RB3LYP) =  -1557.38893964     A.U. after    7 cycles
 Optimization completed.
    -- Stationary point found.
 Normal termination of Gaussian 16 at Sat Dec 12 15:59:01 2020.

 --------------------------------------------------------------------
 #N Geom=AllCheck Guess=TCheck SCRF=Check GenChk RB3LYP/6-31G(d) Freq
 --------------------------------------------------------------------

 Structure from the checkpoint file:  "JID_10402.chk"
 -------------------------------
 CID_80427234_JID_10402_neutraal
 -------------------------------
 Charge =  0 Multiplicity = 1

 SCF Done:  E(RB3LYP) =  -1557.38893964     A.U. after    1 cycles

  Exact polarizability: 328.809 -16.906 232.252  -1.917  -5.883  95.533
 Approx polarizability: 450.640 -37.366 442.234  -4.737 -15.263 154.827

                      1                      2                      3
                      A                      A                      A
 Frequencies --     20.2912                43.9057                46.0866
 Red. masses --      5.2085                 4.5139                 2.9834
 Frc consts  --      0.0013                 0.0051                 0.0037
 IR Inten    --      0.4150                 0.2555                 0.0436

                      4                      5                      6
                      A                      A                      A
 Frequencies --     57.3562                75.5916               103.3148
 Red. masses --      5.6456                 4.0277                 4.1876
 Frc consts  --      0.0109                 0.0136                 0.0263
 IR Inten    --      0.2995                 1.8503                 0.6570

                      7                      8                      9
                      A                      A                      A
 Frequencies --    113.1880               150.1466               160.3922
 Red. masses --      5.2363                 4.8369                 2.8346
 Frc consts  --      0.0395                 0.0642                 0.0430
 IR Inten    --      0.1236                 1.1441                 2.1890

                     10                     11                     12
                      A                      A                      A
 Frequencies --    183.0320               204.5309               223.4729
 Red. masses --      3.7650                 5.1753                 1.4002
 Frc consts  --      0.0743                 0.1276                 0.0412
 IR Inten    --      2.2590                 4.8069                31.6354

                     13                     14                     15
                      A                      A                      A
 Frequencies --    236.9046               245.3719               270.1403
 Red. masses --      1.6512                 4.6728                 2.9420
 Frc consts  --      0.0546                 0.1658                 0.1265
 IR Inten    --      0.4845                 3.8835                18.8009

                     16                     17                     18
                      A                      A                      A
 Frequencies --    297.6245               305.7026               346.4002
 Red. masses --      2.9787                 2.9673                 5.0410
 Frc consts  --      0.1555                 0.1634                 0.3564
 IR Inten    --      8.1699                11.4986                 2.8129

                     19                     20                     21
                      A                      A                      A
 Frequencies --    393.5773               415.9122               450.5379
 Red. masses --      8.5487                 9.9206                 3.5161
 Frc consts  --      0.7802                 1.0111                 0.4205
 IR Inten    --      0.7445                 6.1207                 1.3216

                     22                     23                     24
                      A                      A                      A
 Frequencies --    503.5778               520.9833               531.3243
 Red. masses --      6.7378                 5.5114                 4.5843
 Frc consts  --      1.0067                 0.8814                 0.7625
 IR Inten    --      7.4583                 4.9508                 3.1287

                     25                     26                     27
                      A                      A                      A
 Frequencies --    534.5475               544.1822               548.9176
 Red. masses --      4.2927                 7.3379                 5.6947
 Frc consts  --      0.7227                 1.2803                 1.0110
 IR Inten    --      1.8696                 1.8587                 4.3424

                     28                     29                     30
                      A                      A                      A
 Frequencies --    585.0248               619.1083               650.4110
 Red. masses --      4.7090                 7.9794                 6.1177
 Frc consts  --      0.9496                 1.8020                 1.5248
 IR Inten    --      4.3293                 4.8496                 8.6794

                     31                     32                     33
                      A                      A                      A
 Frequencies --    663.9261               676.2138               683.4333
 Red. masses --      3.5055                 3.3757                11.6813
 Frc consts  --      0.9104                 0.9094                 3.2147
 IR Inten    --      0.9562                 8.6276                 1.7776

                     34                     35                     36
                      A                      A                      A
 Frequencies --    745.0996               779.6979               801.0226
 Red. masses --      4.7277                 1.4316                 2.9048
 Frc consts  --      1.5464                 0.5128                 1.0981
 IR Inten    --      0.6817                44.0085                 1.7572

                     37                     38                     39
                      A                      A                      A
 Frequencies --    803.1296               811.3336               863.0568
 Red. masses --      8.7285                 1.3717                 1.2838
 Frc consts  --      3.3171                 0.5320                 0.5634
 IR Inten    --     26.5999                 6.6261               154.9875

                     40                     41                     42
                      A                      A                      A
 Frequencies --    878.0028               882.2212               888.8624
 Red. masses --      4.2721                 1.8413                 1.4831
 Frc consts  --      1.9404                 0.8444                 0.6904
 IR Inten    --      3.2506                 9.5948                 1.3792

                     43                     44                     45
                      A                      A                      A
 Frequencies --    924.1891               938.6877               961.3464
 Red. masses --      5.7028                 3.7520                 1.3312
 Frc consts  --      2.8699                 1.9479                 0.7249
 IR Inten    --     46.9616                15.3654                 0.2708

                     46                     47                     48
                      A                      A                      A
 Frequencies --    997.3736              1014.6830              1027.6431
 Red. masses --      1.2831                 3.0015                 2.5970
 Frc consts  --      0.7520                 1.8207                 1.6159
 IR Inten    --      0.1566                14.5445                11.7639

                     49                     50                     51
                      A                      A                      A
 Frequencies --   1051.2382              1064.9830              1069.7238
 Red. masses --      2.4063                 2.1159                 5.2034
 Frc consts  --      1.5667                 1.4139                 3.5082
 IR Inten    --      3.1793                16.1304                24.3201

                     52                     53                     54
                      A                      A                      A
 Frequencies --   1088.2801              1106.2131              1121.3154
 Red. masses --      2.9733                 2.2230                 1.5643
 Frc consts  --      2.0748                 1.6028                 1.1589
 IR Inten    --      2.3794                 3.3486                 0.0084

                     55                     56                     57
                      A                      A                      A
 Frequencies --   1136.7631              1179.7742              1187.6267
 Red. masses --      2.3614                 1.3296                 1.2949
 Frc consts  --      1.7978                 1.0903                 1.0761
 IR Inten    --     52.4623                12.8208                20.2047

                     58                     59                     60
                      A                      A                      A
 Frequencies --   1207.9670              1268.9067              1273.8743
 Red. masses --      1.2306                 3.2218                 1.9146
 Frc consts  --      1.0580                 3.0564                 1.8306
 IR Inten    --     13.7467               160.5727                 6.0890

                     61                     62                     63
                      A                      A                      A
 Frequencies --   1295.8775              1301.0589              1313.3889
 Red. masses --      1.1661                 1.7006                 1.4280
 Frc consts  --      1.1538                 1.6961                 1.4513
 IR Inten    --      0.0011                 2.3589                13.5190

                     64                     65                     66
                      A                      A                      A
 Frequencies --   1348.7247              1383.6643              1402.4554
 Red. masses --      4.2902                 3.5003                 2.2671
 Frc consts  --      4.5980                 3.9484                 2.6273
 IR Inten    --     68.8236                 5.8133                34.9448

                     67                     68                     69
                      A                      A                      A
 Frequencies --   1421.7248              1444.0778              1446.0042
 Red. masses --      5.0133                 1.2954                 1.4937
 Frc consts  --      5.9704                 1.5916                 1.8401
 IR Inten    --      3.1486                16.2412                78.4614

                     70                     71                     72
                      A                      A                      A
 Frequencies --   1452.3453              1465.1578              1499.8613
 Red. masses --      5.8187                 2.3760                 1.1699
 Frc consts  --      7.2313                 3.0052                 1.5506
 IR Inten    --     17.7538                 3.4992                23.7758

                     73                     74                     75
                      A                      A                      A
 Frequencies --   1508.7261              1523.3246              1532.3538
 Red. masses --      2.8339                 1.0390                 1.0743
 Frc consts  --      3.8007                 1.4206                 1.4862
 IR Inten    --      0.3158                 5.2067                 1.3813

                     76                     77                     78
                      A                      A                      A
 Frequencies --   1551.2734              1560.8556              1565.5068
 Red. masses --      1.2099                 4.8023                 2.8496
 Frc consts  --      1.7154                 6.8933                 4.1148
 IR Inten    --      4.0082               160.4816                 0.3626

                     79                     80                     81
                      A                      A                      A
 Frequencies --   1614.4514              1652.5820              1674.7133
 Red. masses --      8.1979                 6.5258                 5.6878
 Frc consts  --     12.5894                10.5006                 9.3989
 IR Inten    --     56.0725               127.4748                11.1914

                     82                     83                     84
                      A                      A                      A
 Frequencies --   1693.7277              2970.4505              3044.3385
 Red. masses --      1.0974                 1.0732                 1.0610
 Frc consts  --      1.8547                 5.5795                 5.7936
 IR Inten    --     37.0933                67.7282                14.8487

                     85                     86                     87
                      A                      A                      A
 Frequencies --   3064.0734              3070.5145              3090.0811
 Red. masses --      1.0357                 1.1013                 1.0887
 Frc consts  --      5.7291                 6.1178                 6.1249
 IR Inten    --     31.6565                10.7606                24.9033

                     88                     89                     90
                      A                      A                      A
 Frequencies --   3132.1755              3140.1230              3192.5909
 Red. masses --      1.1025                 1.1027                 1.0856
 Frc consts  --      6.3728                 6.4064                 6.5192
 IR Inten    --     38.5836                25.4362                 0.0287

                     91                     92                     93
                      A                      A                      A
 Frequencies --   3203.2302              3204.8679              3214.7423
 Red. masses --      1.0894                 1.0916                 1.0949
 Frc consts  --      6.5860                 6.6057                 6.6665
 IR Inten    --     12.7175                 4.3733                29.4769

                     94                     95                     96
                      A                      A                      A
 Frequencies --   3227.4528              3470.3373              3559.8489
 Red. masses --      1.0953                 1.0493                 1.0931
 Frc consts  --      6.7219                 7.4455                 8.1612
 IR Inten    --      6.8118                 1.2926                 0.1657

 - Thermochemistry -
 -------------------
 Temperature   298.150 Kelvin.  Pressure   1.00000 Atm.
 Atom     1 has atomic number  6 and mass  12.00000

 Molecular mass:   302.06599 amu.
 Principal axes and moments of inertia in atomic units:
                           1         2         3
     Eigenvalues --  2719.68013********************
           X            0.99997   0.00754  -0.00030
           Y           -0.00754   0.99997  -0.00127
           Z            0.00029   0.00127   1.00000
 This molecule is an asymmetric top.
 Rotational symmetry number  1.
 Warning -- assumption of classical behavior for rotation
           may cause significant error
 Rotational temperatures (Kelvin)      0.03185     0.00694     0.00577
 Rotational constants (GHZ):           0.66359     0.14455     0.12032
 Zero-point vibrational energy     692128.4 (Joules/Mol)
                                  165.42265 (Kcal/Mol)
 Warning -- explicit consideration of  29 degrees of freedom as
           vibrations may cause significant error
 Vibrational temperatures:     29.19    63.17    66.31    82.52   108.76
          (Kelvin)            148.65   162.85   216.03   230.77   263.34
                              294.27   321.53   340.85   353.04   388.67
                              428.22   439.84   498.39   566.27   598.40
                              648.22   724.54   749.58   764.46   769.09
                              782.96   789.77   841.72   890.76   935.80
                              955.24   972.92   983.31  1072.03  1121.81
                             1152.49  1155.52  1167.33  1241.75  1263.25
                             1269.32  1278.87  1329.70  1350.56  1383.16
                             1435.00  1459.90  1478.55  1512.50  1532.27
                             1539.09  1565.79  1591.59  1613.32  1635.55
                             1697.43  1708.73  1738.00  1825.67  1832.82
                             1864.48  1871.93  1889.67  1940.51  1990.78
                             2017.82  2045.54  2077.71  2080.48  2089.60
                             2108.04  2157.97  2170.72  2191.72  2204.72
                             2231.94  2245.72  2252.42  2322.84  2377.70
                             2409.54  2436.90  4273.82  4380.12  4408.52
                             4417.79  4445.94  4506.50  4517.94  4593.43
                             4608.73  4611.09  4625.30  4643.58  4993.04
                             5121.83

 Zero-point correction=                           0.263618 (Hartree/Particle)
 Thermal correction to Energy=                    0.281862
 Thermal correction to Enthalpy=                  0.282806
 Thermal correction to Gibbs Free Energy=         0.215388
 Sum of electronic and zero-point Energies=          -1557.125322
 Sum of electronic and thermal Energies=             -1557.107078
 Sum of electronic and thermal Enthalpies=           -1557.106134
 Sum of electronic and thermal Free Energies=        -1557.173552

                     E (Thermal)             CV                S
                      KCal/Mol        Cal/Mol-Kelvin    Cal/Mol-Kelvin
 Total                  176.871             68.983            141.894
 Electronic               0.000              0.000              0.000
 Translational            0.889              2.981             43.013
 Rotational               0.889              2.981             34.587
 Vibrational            175.094             63.021             64.294
 Vibration     1          0.593              1.986              6.605
 Vibration     2          0.595              1.980              5.075
 Vibration     3          0.595              1.979              4.979
 Vibration     4          0.596              1.975              4.546
 Vibration     5          0.599              1.965              4.002
 Vibration     6          0.605              1.947              3.391
 Vibration     7          0.607              1.939              3.213
 Vibration     8          0.618              1.903              2.670
 Vibration     9          0.622              1.891              2.545
 Vibration    10          0.631              1.863              2.297
 Vibration    11          0.640              1.833              2.092
 Vibration    12          0.649              1.805              1.931
 Vibration    13          0.656              1.784              1.826
 Vibration    14          0.660              1.770              1.764
 Vibration    15          0.674              1.728              1.595
 Vibration    16          0.691              1.678              1.430
 Vibration    17          0.696              1.663              1.385
 Vibration    18          0.724              1.583              1.183
 Vibration    19          0.761              1.484              0.987
 Vibration    20          0.779              1.436              0.906
 Vibration    21          0.809              1.360              0.794
 Vibration    22          0.859              1.242              0.649
 Vibration    23          0.876              1.204              0.608
 Vibration    24          0.886              1.181              0.584
 Vibration    25          0.890              1.174              0.577
 Vibration    26          0.899              1.152              0.556
 Vibration    27          0.904              1.142              0.546
 Vibration    28          0.942              1.064              0.476
 Vibration    29          0.979              0.992              0.418

 Optimization completed.
    -- Stationary point found.
 Normal termination of Gaussian 16 at Sat Dec 12 16:14:13 2020.

 ----------------------------------------------------------------------
 # B3LYP/6-311++G(d,p) empiricaldispersion=gd3bj scf=xqc pop=npa geom=c
 heck
 ----------------------------------------------------------------------

 ---------------------------------------
 CID_80427234_JID_10402_Energie_neutraal
 ---------------------------------------
 Structure from the checkpoint file:  "JID_10402.chk"
 Charge =  0 Multiplicity = 1

 SCF Done:  E(RB3LYP) =  -1557.64173711     A.U. after   16 cycles
 Normal termination of Gaussian 16 at Sat Dec 12 16:21:46 2020.

 ----------------------------------------------------------------------
 # B3LYP/6-311++G(d,p) empiricaldispersion=gd3bj scf=xqc pop=npa geom=c
 heck
 ----------------------------------------------------------------------

 -------------------------------------
 CID_80427234_JID_10402_Energie_kation
 -------------------------------------
 Structure from the checkpoint file:  "JID_10402.chk"
 Charge =  1 Multiplicity = 2

 SCF Done:  E(UB3LYP) =  -1557.35052121     A.U. after   28 cycles
 Normal termination of Gaussian 16 at Sat Dec 12 16:40:51 2020.
 Gaussian 16:  ES64L-G16RevA.03 25-Dec-2016

 ----------------------------------------------------------------------
 # B3LYP/6-311++G(d,p) empiricaldispersion=gd3bj scf=xqc pop=npa geom=c
 heck
 ----------------------------------------------------------------------

 ------------------------------------
 CID_80427234_JID_10402_Energie_anion
 ------------------------------------
 Structure from the checkpoint file:  "JID_10402.chk"
 Charge = -1 Multiplicity = 2

                         Standard orientation:
 ---------------------------------------------------------------------
 Center     Atomic      Atomic             Coordinates (Angstroms)
 Number     Number       Type             X           Y           Z
 ---------------------------------------------------------------------
      1          6           0        6.538630    0.868189   -0.177957
      2          6           0        5.693434   -0.400300   -0.079424
      3          6           0        4.212100   -0.146916   -0.048687
      4          7           0        3.705193    1.060698   -0.101532
      5         16           0        2.022829    0.957234   -0.044847
      6          6           0        2.120325   -0.796199    0.051571
      7          7           0        3.354518   -1.226552    0.038472
      8         16           0        0.843504   -2.000354    0.158241
      9          6           0       -0.651835   -1.035133    0.152819
     10          7           0       -0.577494    0.268237    0.075489
     11          6           0       -1.738772    0.988515    0.074653
     12          6           0       -1.651873    2.398831   -0.010427
     13          6           0       -2.796139    3.165799   -0.014287
     14          6           0       -4.066925    2.553719    0.069671
     15          6           0       -4.175961    1.182000    0.155590
     16          6           0       -3.020134    0.360603    0.157228
     17          6           0       -3.059763   -1.069420    0.240190
     18          6           0       -1.872715   -1.758188    0.235530
     19          6           0       -4.378475   -1.806097    0.289361
     20          7           0       -4.954211   -1.897086   -1.060526
     21          1           0        6.298578    1.429521   -1.085779
     22          1           0        7.603900    0.615522   -0.196357
     23          1           0        6.352831    1.530093    0.673068
     24          1           0        5.900669   -1.072607   -0.922541
     25          1           0        5.954045   -0.972728    0.820714
     26          1           0       -0.664853    2.844415   -0.071597
     27          1           0       -2.724091    4.247354   -0.080336
     28          1           0       -4.961766    3.168838    0.069036
     29          1           0       -5.158208    0.724920    0.221157
     30          1           0       -1.860953   -2.842538    0.286550
     31          1           0       -4.202624   -2.826399    0.645132
     32          1           0       -5.031831   -1.319980    1.034324
     33          1           0       -5.868507   -2.343530   -1.010213
     34          1           0       -5.105942   -0.962454   -1.435782
 ---------------------------------------------------------------------

 SCF Done:  E(UB3LYP) =  -1557.67019855     A.U. after   26 cycles

 The electronic state is 2-A.
 Alpha  occ. eigenvalues --  -88.78073 -88.75876 -14.20691 -14.20069 -14.19365
 Alpha  occ. eigenvalues --  -14.16597 -10.14981 -10.12952 -10.10435 -10.08919
 Alpha  occ. eigenvalues --  -10.08774 -10.08141 -10.07641 -10.05728 -10.04752
 Alpha  occ. eigenvalues --  -10.04714 -10.04653 -10.04614 -10.04280 -10.03520
 Alpha  occ. eigenvalues --   -7.86337  -7.84481  -5.82750  -5.82246  -5.81853
 Alpha  occ. eigenvalues --   -5.80866  -5.80421  -5.79943  -0.89236  -0.82333
 Alpha  occ. eigenvalues --   -0.78309  -0.76591  -0.72529  -0.70471  -0.68411
 Alpha  occ. eigenvalues --   -0.67397  -0.63102  -0.61541  -0.60031  -0.56671
 Alpha  occ. eigenvalues --   -0.55289  -0.50796  -0.50311  -0.46850  -0.45354
 Alpha  occ. eigenvalues --   -0.43844  -0.40269  -0.39673  -0.38843  -0.37279
 Alpha  occ. eigenvalues --   -0.37159  -0.35580  -0.34901  -0.33349  -0.32381
 Alpha  occ. eigenvalues --   -0.31837  -0.30804  -0.29603  -0.29482  -0.29074
 Alpha  occ. eigenvalues --   -0.28568  -0.27362  -0.26656  -0.26584  -0.25737
 Alpha  occ. eigenvalues --   -0.25081  -0.23649  -0.23130  -0.21978  -0.20729
 Alpha  occ. eigenvalues --   -0.19654  -0.17932  -0.16815  -0.16630  -0.14690
 Alpha  occ. eigenvalues --   -0.14388  -0.13437  -0.11493  -0.10444   0.02296
 Alpha virt. eigenvalues --    0.06631   0.06808   0.07610   0.08473   0.09112
 Alpha virt. eigenvalues --    0.09293   0.09766   0.09779   0.10203   0.10335
 Alpha virt. eigenvalues --    0.10784   0.11475   0.12266   0.12481   0.12914

  Beta  occ. eigenvalues --  -88.78053 -88.75886 -14.20628 -14.20014 -14.19319
  Beta  occ. eigenvalues --  -14.16184 -10.14925 -10.12971 -10.10284 -10.08946
  Beta  occ. eigenvalues --  -10.08773 -10.08192 -10.07641 -10.05811 -10.04730
  Beta  occ. eigenvalues --  -10.04658 -10.04586 -10.04190 -10.04069 -10.03328
  Beta  occ. eigenvalues --   -7.86320  -7.84490  -5.82741  -5.82237  -5.81788
  Beta  occ. eigenvalues --   -5.80876  -5.80433  -5.79961  -0.89155  -0.81788
  Beta  occ. eigenvalues --   -0.78168  -0.76469  -0.72262  -0.70403  -0.67929
  Beta  occ. eigenvalues --   -0.67181  -0.62954  -0.61151  -0.59901  -0.56460
  Beta  occ. eigenvalues --   -0.55259  -0.50393  -0.50196  -0.46646  -0.45139
  Beta  occ. eigenvalues --   -0.43769  -0.40033  -0.39470  -0.38664  -0.37221
  Beta  occ. eigenvalues --   -0.37136  -0.35393  -0.34721  -0.33241  -0.32274
  Beta  occ. eigenvalues --   -0.31604  -0.30654  -0.29488  -0.29410  -0.28501
  Beta  occ. eigenvalues --   -0.28171  -0.27275  -0.26542  -0.26509  -0.25634
  Beta  occ. eigenvalues --   -0.24982  -0.22993  -0.22928  -0.21823  -0.20117
  Beta  occ. eigenvalues --   -0.19584  -0.16745  -0.16663  -0.16026  -0.14484
  Beta  occ. eigenvalues --   -0.13975  -0.13055  -0.10487  -0.09386
  Beta virt. eigenvalues --    0.06560   0.06632   0.07347   0.08381   0.08844
  Beta virt. eigenvalues --    0.09108   0.09276   0.09773   0.09796   0.10194
  Beta virt. eigenvalues --    0.10520   0.10746   0.11472   0.12480   0.12738

 Mulliken charges and spin densities:
               1          2
     1  C   -0.671527  -0.000264
     2  C   -0.262066  -0.002523
     3  C   -0.417210  -0.011007
     4  N   -0.059270   0.028258
     5  S    0.656423   0.027703
     6  C    0.260822   0.035643
     7  N    0.039050   0.025655
     8  S   -0.313960  -0.019975
     9  C   -0.189309   0.082046
    10  N    0.318083   0.186995
    11  C   -0.564606  -0.029179
    12  C    0.045890   0.142525
    13  C   -0.531117   0.050694
    14  C   -0.541208   0.037520
    15  C   -0.638838   0.129047
    16  C    0.328412  -0.010268
    17  C    0.706133   0.299988
    18  C   -0.394983   0.018385
    19  C   -0.324974  -0.099378
    20  N   -0.317632  -0.020199
    21  H    0.159426   0.000047
    22  H    0.116986  -0.000030
    23  H    0.159389   0.000019
    24  H    0.147222  -0.000228
    25  H    0.146884  -0.000135
    26  H    0.134210  -0.012827
    27  H    0.127105  -0.004275
    28  H    0.106248  -0.002485
    29  H    0.094201   0.013488
    30  H    0.147949  -0.001358
    31  H    0.128290   0.033010
    32  H    0.040312   0.055049
    33  H    0.158171   0.045333
    34  H    0.205494   0.002729
 Sum of Mulliken charges =  -1.00000   1.00000

 Dipole moment (field-independent basis, Debye):
    X=              1.5635    Y=             -0.6738    Z=              0.4981  Tot=              1.7739
 Quadrupole moment (field-independent basis, Debye-Ang):
   XX=           -179.3005   YY=           -156.5707   ZZ=           -144.6140
   XY=              1.9120   XZ=             -1.7879   YZ=             -3.1336

 Summary of Natural Population Analysis:

                                       Natural Population
                Natural  -----------------------------------------------
    Atom  No    Charge         Core      Valence    Rydberg      Total
 -----------------------------------------------------------------------
      C    1   -0.28494      0.99968     2.28059    0.00467     3.28494
      C    2   -0.20525      0.99960     2.19890    0.00675     3.20525
      C    3    0.18558      0.99963     1.79719    0.01760     2.81442
      N    4   -0.33534      0.99968     2.82159    0.01406     3.83534
      S    5    0.31815      4.99942     2.65536    0.02707     7.68185
      C    6   -0.05791      0.99960     2.03967    0.01864     3.05791
      N    7   -0.27665      0.99962     2.76116    0.01587     3.77665
      S    8    0.17268      4.99938     2.80547    0.02246     7.82732
      C    9    0.06597      0.99949     1.91745    0.01710     2.93403
      N   10   -0.21094      0.99959     2.69783    0.01353     3.71094
      C   11    0.08401      0.99948     1.90436    0.01215     2.91599
      C   12   -0.08297      0.99957     2.06665    0.01675     3.08297
      C   13   -0.05596      0.99958     2.04955    0.00683     3.05596
      C   14   -0.11718      0.99961     2.10211    0.01547     3.11718
      C   15   -0.06805      0.99955     2.06042    0.00808     3.06805
      C   16   -0.05488      0.99940     2.04616    0.00932     3.05488
      C   17    0.07625      0.99951     1.91376    0.01048     2.92375
      C   18   -0.10722      0.99946     2.10251    0.00525     3.10722
      C   19   -0.10151      0.99961     2.09116    0.01074     3.10151
      N   20   -0.41588      0.99977     2.90567    0.01044     3.91588
      H   21    0.10193      0.00000     0.39710    0.00097     0.39807
      H   22    0.09113      0.00000     0.40799    0.00088     0.40887
      H   23    0.10188      0.00000     0.39715    0.00097     0.39812
      H   24    0.10248      0.00000     0.39625    0.00127     0.39752
      H   25    0.10239      0.00000     0.39634    0.00127     0.39761
      H   26    0.09881      0.00000     0.39996    0.00123     0.40119
      H   27    0.08672      0.00000     0.41207    0.00121     0.41328
      H   28    0.09026      0.00000     0.40873    0.00101     0.40974
      H   29    0.08925      0.00000     0.40872    0.00203     0.41075
      H   30    0.09523      0.00000     0.40372    0.00105     0.40477
      H   31    0.08976      0.00000     0.40795    0.00230     0.41024
      H   32    0.08152      0.00000     0.41621    0.00227     0.41848
      H   33    0.16644      0.00000     0.33135    0.00221     0.33356
      H   34    0.17474      0.00000     0.32350    0.00177     0.32526
 =======================================================================
   * Total *    0.00051     27.99123    50.72458    0.28367    78.99949

 Normal termination of Gaussian 16 at Sat Dec 12 16:58:16 2020.
