 Gaussian 16, Revision A.03,

 -----------------------------------------------------------
 # opt freq B3LYP/6-31G(d) empiricaldispersion=gd3bj scf=xqc
 -----------------------------------------------------------

 -------------------------------
 CID_130012177_JID_4341_neutraal
 -------------------------------
 Symbolic Z-matrix:
 Charge =  0 Multiplicity = 1

 SCF Done:  E(RB3LYP) =  -742.407754058     A.U. after   15 cycles
 SCF Done:  E(RB3LYP) =  -742.411655536     A.U. after   13 cycles
 SCF Done:  E(RB3LYP) =  -742.411889030     A.U. after   12 cycles
 SCF Done:  E(RB3LYP) =  -742.413241683     A.U. after   12 cycles
 SCF Done:  E(RB3LYP) =  -742.413512737     A.U. after   12 cycles
 SCF Done:  E(RB3LYP) =  -742.413451759     A.U. after   12 cycles
 SCF Done:  E(RB3LYP) =  -742.413727697     A.U. after   12 cycles
 SCF Done:  E(RB3LYP) =  -742.413772076     A.U. after   11 cycles
 SCF Done:  E(RB3LYP) =  -742.413809328     A.U. after   11 cycles
 SCF Done:  E(RB3LYP) =  -742.413836668     A.U. after   12 cycles
 SCF Done:  E(RB3LYP) =  -742.414049849     A.U. after   12 cycles
 SCF Done:  E(RB3LYP) =  -742.414062643     A.U. after   11 cycles
 SCF Done:  E(RB3LYP) =  -742.414054219     A.U. after   11 cycles
 SCF Done:  E(RB3LYP) =  -742.414064294     A.U. after   11 cycles
 SCF Done:  E(RB3LYP) =  -742.414064236     A.U. after    8 cycles
 SCF Done:  E(RB3LYP) =  -742.414064382     A.U. after    9 cycles
 Optimization completed.
    -- Stationary point found.
 Normal termination of Gaussian 16 at Thu Dec 10 09:33:03 2020.

 --------------------------------------------------------------------
 #N Geom=AllCheck Guess=TCheck SCRF=Check GenChk RB3LYP/6-31G(d) Freq
 --------------------------------------------------------------------

 Structure from the checkpoint file:  "JID_4341.chk"
 -------------------------------
 CID_130012177_JID_4341_neutraal
 -------------------------------
 Charge =  0 Multiplicity = 1

 SCF Done:  E(RB3LYP) =  -742.414064382     A.U. after    1 cycles

  Exact polarizability: 105.560  -2.423  97.828   1.950  -1.292  88.331
 Approx polarizability: 136.193  -0.887 132.402   4.852  -6.107 161.754

                      1                      2                      3
                      A                      A                      A
 Frequencies --     36.5925                63.1064                77.4326
 Red. masses --      9.3701                 5.1775                10.3493
 Frc consts  --      0.0074                 0.0121                 0.0366
 IR Inten    --      2.4422                 1.0402                 3.7875

                      4                      5                      6
                      A                      A                      A
 Frequencies --    128.5978               155.1070               171.6731
 Red. masses --      4.7736                 5.1468                 3.9120
 Frc consts  --      0.0465                 0.0730                 0.0679
 IR Inten    --      3.6043                 1.2996                 3.2600

                      7                      8                      9
                      A                      A                      A
 Frequencies --    218.9091               241.6462               262.0892
 Red. masses --      2.6338                 1.3867                 3.0867
 Frc consts  --      0.0744                 0.0477                 0.1249
 IR Inten    --      0.4313                 0.5346                 5.1871

                     10                     11                     12
                      A                      A                      A
 Frequencies --    266.0177               289.9901               331.7247
 Red. masses --      3.0417                 4.3741                 6.1462
 Frc consts  --      0.1268                 0.2167                 0.3985
 IR Inten    --      6.7868                 5.1624                17.5153

                     13                     14                     15
                      A                      A                      A
 Frequencies --    375.5673               395.2919               397.9517
 Red. masses --      4.3794                 4.2927                 2.8649
 Frc consts  --      0.3639                 0.3952                 0.2673
 IR Inten    --      3.5398                15.5948                 1.8761

                     16                     17                     18
                      A                      A                      A
 Frequencies --    457.1504               528.5875               596.9550
 Red. masses --      2.4981                 4.6514                 3.2004
 Frc consts  --      0.3076                 0.7657                 0.6719
 IR Inten    --      8.3530                 3.6168                28.8170

                     19                     20                     21
                      A                      A                      A
 Frequencies --    631.6133               656.2352               698.9382
 Red. masses --      4.4217                 3.6192                 1.7021
 Frc consts  --      1.0393                 0.9183                 0.4899
 IR Inten    --      8.2930                14.8423               115.1970

                     22                     23                     24
                      A                      A                      A
 Frequencies --    733.2085               746.3089               772.0129
 Red. masses --      3.6343                 4.7256                 4.6062
 Frc consts  --      1.1511                 1.5508                 1.6175
 IR Inten    --      7.7288                 7.5282                20.7205

                     25                     26                     27
                      A                      A                      A
 Frequencies --    842.4560               856.0578               884.2634
 Red. masses --      2.7179                 3.1027                 2.5109
 Frc consts  --      1.1365                 1.3396                 1.1567
 IR Inten    --     26.3092                 4.2202                 9.6276

                     28                     29                     30
                      A                      A                      A
 Frequencies --    912.7320               950.0109               956.8288
 Red. masses --      3.4164                 2.8170                 3.4565
 Frc consts  --      1.6769                 1.4979                 1.8645
 IR Inten    --     11.6241                 4.0513                17.8113

                     31                     32                     33
                      A                      A                      A
 Frequencies --   1015.6598              1048.8937              1060.4681
 Red. masses --      2.4903                 1.9784                 2.4109
 Frc consts  --      1.5136                 1.2824                 1.5974
 IR Inten    --      6.5834                12.2351                17.4779

                     34                     35                     36
                      A                      A                      A
 Frequencies --   1088.0352              1104.6156              1118.3194
 Red. masses --      3.4389                 2.4583                 2.7747
 Frc consts  --      2.3986                 1.7673                 2.0446
 IR Inten    --    154.4231                44.7067                22.0769

                     37                     38                     39
                      A                      A                      A
 Frequencies --   1164.2395              1203.8193              1211.7375
 Red. masses --      2.4158                 2.6435                 1.7286
 Frc consts  --      1.9293                 2.2571                 1.4955
 IR Inten    --      5.5849               125.8465                77.0218

                     40                     41                     42
                      A                      A                      A
 Frequencies --   1253.4745              1283.8992              1291.1108
 Red. masses --      1.3478                 1.7121                 2.2729
 Frc consts  --      1.2477                 1.6628                 2.2323
 IR Inten    --     89.4539                62.1523               252.7721

                     43                     44                     45
                      A                      A                      A
 Frequencies --   1300.7354              1351.5922              1358.4716
 Red. masses --      1.6262                 1.4356                 1.3029
 Frc consts  --      1.6210                 1.5452                 1.4166
 IR Inten    --    105.7615                 6.5715                 6.9345

                     46                     47                     48
                      A                      A                      A
 Frequencies --   1368.4353              1371.1536              1406.8333
 Red. masses --      1.4084                 1.4518                 1.4028
 Frc consts  --      1.5539                 1.6081                 1.6358
 IR Inten    --     15.2700                19.4520                 0.9869

                     49                     50                     51
                      A                      A                      A
 Frequencies --   1435.0590              1488.7282              1506.4479
 Red. masses --      1.2614                 1.0853                 1.1183
 Frc consts  --      1.5306                 1.4172                 1.4952
 IR Inten    --      6.3821                11.0522                15.0674

                     52                     53                     54
                      A                      A                      A
 Frequencies --   1517.0795              1527.7625              1538.3679
 Red. masses --      1.0439                 1.0527                 1.0854
 Frc consts  --      1.4155                 1.4477                 1.5134
 IR Inten    --      9.6954                 1.3225                 6.2594

                     55                     56                     57
                      A                      A                      A
 Frequencies --   1550.6909              1809.8577              1844.2321
 Red. masses --      1.5071                 9.0086                11.7109
 Frc consts  --      2.1352                17.3858                23.4678
 IR Inten    --    146.5362               130.0681               122.5742

                     58                     59                     60
                      A                      A                      A
 Frequencies --   1856.2433              3069.9400              3073.3337
 Red. masses --     11.8724                 1.0341                 1.0646
 Frc consts  --     24.1023                 5.7423                 5.9248
 IR Inten    --    343.0399                11.3124                12.6288

                     61                     62                     63
                      A                      A                      A
 Frequencies --   3090.6834              3106.9433              3134.0520
 Red. masses --      1.0593                 1.0659                 1.0913
 Frc consts  --      5.9618                 6.0620                 6.3156
 IR Inten    --     26.3445                16.2488                 0.7505

                     64                     65                     66
                      A                      A                      A
 Frequencies --   3139.7300              3149.4862              3153.0661
 Red. masses --      1.1012                 1.1035                 1.0992
 Frc consts  --      6.3961                 6.4489                 6.4385
 IR Inten    --      7.2626                11.0753                14.7853

                     67                     68                     69
                      A                      A                      A
 Frequencies --   3153.7758              3198.9790              3592.9717
 Red. masses --      1.1081                 1.1013                 1.0757
 Frc consts  --      6.4935                 6.6404                 8.1819
 IR Inten    --     11.9517                 0.1445                19.0072

 - Thermochemistry -
 -------------------
 Temperature   298.150 Kelvin.  Pressure   1.00000 Atm.
 Atom     1 has atomic number  6 and mass  12.00000

 Molecular mass:   201.06372 amu.
 Principal axes and moments of inertia in atomic units:
                           1         2         3
     Eigenvalues --  1814.882482658.996853468.05234
           X            0.99949  -0.03028   0.00979
           Y            0.03029   0.99954  -0.00057
           Z           -0.00977   0.00087   0.99995
 This molecule is an asymmetric top.
 Rotational symmetry number  1.
 Warning -- assumption of classical behavior for rotation
           may cause significant error
 Rotational temperatures (Kelvin)      0.04772     0.03257     0.02497
 Rotational constants (GHZ):           0.99441     0.67873     0.52039
 Zero-point vibrational energy     523808.7 (Joules/Mol)
                                  125.19329 (Kcal/Mol)
 Warning -- explicit consideration of  18 degrees of freedom as
           vibrations may cause significant error
 Vibrational temperatures:     52.65    90.80   111.41   185.02   223.16
          (Kelvin)            247.00   314.96   347.67   377.09   382.74
                              417.23   477.28   540.36   568.74   572.56
                              657.74   760.52   858.89   908.75   944.18
                             1005.62  1054.92  1073.77  1110.75  1212.11
                             1231.68  1272.26  1313.22  1366.85  1376.66
                             1461.31  1509.12  1525.78  1565.44  1589.30
                             1609.01  1675.08  1732.03  1743.42  1803.47
                             1847.24  1857.62  1871.47  1944.64  1954.54
                             1968.87  1972.78  2024.12  2064.73  2141.95
                             2167.44  2182.74  2198.11  2213.37  2231.10
                             2603.98  2653.44  2670.72  4416.96  4421.84
                             4446.80  4470.20  4509.20  4517.37  4531.41
                             4536.56  4537.58  4602.62  5169.48

 Zero-point correction=                           0.199508 (Hartree/Particle)
 Thermal correction to Energy=                    0.212419
 Thermal correction to Enthalpy=                  0.213363
 Thermal correction to Gibbs Free Energy=         0.159746
 Sum of electronic and zero-point Energies=           -742.214556
 Sum of electronic and thermal Energies=              -742.201645
 Sum of electronic and thermal Enthalpies=            -742.200701
 Sum of electronic and thermal Free Energies=         -742.254318

                     E (Thermal)             CV                S
                      KCal/Mol        Cal/Mol-Kelvin    Cal/Mol-Kelvin
 Total                  133.295             48.185            112.846
 Electronic               0.000              0.000              0.000
 Translational            0.889              2.981             41.800
 Rotational               0.889              2.981             31.193
 Vibrational            131.518             42.224             39.853
 Vibration     1          0.594              1.982              5.436
 Vibration     2          0.597              1.972              4.358
 Vibration     3          0.599              1.964              3.955
 Vibration     4          0.611              1.925              2.967
 Vibration     5          0.620              1.897              2.609
 Vibration     6          0.626              1.877              2.417
 Vibration     7          0.647              1.812              1.968
 Vibration     8          0.658              1.777              1.791
 Vibration     9          0.669              1.742              1.648
 Vibration    10          0.672              1.735              1.622
 Vibration    11          0.686              1.692              1.474
 Vibration    12          0.714              1.612              1.252
 Vibration    13          0.746              1.522              1.057
 Vibration    14          0.762              1.480              0.980
 Vibration    15          0.764              1.475              0.970
 Vibration    16          0.815              1.345              0.774
 Vibration    17          0.884              1.187              0.590
 Vibration    18          0.955              1.038              0.455

 Optimization completed.
    -- Stationary point found.
 Normal termination of Gaussian 16 at Thu Dec 10 09:41:00 2020.

 ----------------------------------------------------------------------
 # B3LYP/6-311++G(d,p) empiricaldispersion=gd3bj scf=xqc pop=npa geom=c
 heck
 ----------------------------------------------------------------------

 ---------------------------------------
 CID_130012177_JID_4341_Energie_neutraal
 ---------------------------------------
 Structure from the checkpoint file:  "JID_4341.chk"
 Charge =  0 Multiplicity = 1

 SCF Done:  E(RB3LYP) =  -742.637164182     A.U. after   14 cycles
 Normal termination of Gaussian 16 at Thu Dec 10 09:44:05 2020.

 ----------------------------------------------------------------------
 # B3LYP/6-311++G(d,p) empiricaldispersion=gd3bj scf=xqc pop=npa geom=c
 heck
 ----------------------------------------------------------------------

 -------------------------------------
 CID_130012177_JID_4341_Energie_kation
 -------------------------------------
 Structure from the checkpoint file:  "JID_4341.chk"
 Charge =  1 Multiplicity = 2

 SCF Done:  E(UB3LYP) =  -742.296042455     A.U. after   25 cycles
 Normal termination of Gaussian 16 at Thu Dec 10 09:51:54 2020.
 Gaussian 16:  ES64L-G16RevA.03 25-Dec-2016

 ----------------------------------------------------------------------
 # B3LYP/6-311++G(d,p) empiricaldispersion=gd3bj scf=xqc pop=npa geom=c
 heck
 ----------------------------------------------------------------------

 ------------------------------------
 CID_130012177_JID_4341_Energie_anion
 ------------------------------------
 Structure from the checkpoint file:  "JID_4341.chk"
 Charge = -1 Multiplicity = 2

                         Standard orientation:
 ---------------------------------------------------------------------
 Center     Atomic      Atomic             Coordinates (Angstroms)
 Number     Number       Type             X           Y           Z
 ---------------------------------------------------------------------
      1          6           0       -3.115958    0.073064   -1.052951
      2          6           0       -2.064956    0.314847    0.020067
      3          6           0       -1.341779   -0.981239    0.411358
      4          8           0       -1.649300   -1.686035    1.339698
      5          8           0       -0.321616   -1.222316   -0.442775
      6          6           0        0.728725   -2.128491   -0.037260
      7          6           0        2.022319   -1.573784   -0.645903
      8          6           0        2.206594   -0.133602   -0.168350
      9          8           0        2.757209    0.137881    0.884705
     10          7           0        1.625718    0.821383   -0.986840
     11          6           0        1.123283    2.048817   -0.368912
     12          6           0       -0.164528    1.689186    0.368409
     13          8           0       -0.307651    1.655072    1.565354
     14          8           0       -1.105950    1.249506   -0.519739
     15          1           0       -3.618347    1.012155   -1.301045
     16          1           0       -3.860819   -0.640121   -0.687581
     17          1           0       -2.653055   -0.329802   -1.958596
     18          1           0       -2.502299    0.718793    0.934427
     19          1           0        0.500910   -3.132212   -0.407159
     20          1           0        0.775423   -2.150726    1.053782
     21          1           0        1.976002   -1.635413   -1.739046
     22          1           0        2.869177   -2.169538   -0.296143
     23          1           0        0.988851    0.441726   -1.677048
     24          1           0        0.946198    2.800249   -1.142626
     25          1           0        1.854210    2.409556    0.352225
 ---------------------------------------------------------------------

 SCF Done:  E(UB3LYP) =  -742.629329398     A.U. after   32 cycles

 The electronic state is 2-A.
 Alpha  occ. eigenvalues --  -19.07643 -19.07462 -19.02624 -19.02499 -19.00014
 Alpha  occ. eigenvalues --  -14.24253 -10.21213 -10.20894 -10.17981 -10.15506
 Alpha  occ. eigenvalues --  -10.14351 -10.12549 -10.08992 -10.07816  -1.02719
 Alpha  occ. eigenvalues --   -1.00930  -0.95086  -0.93749  -0.93369  -0.83419
 Alpha  occ. eigenvalues --   -0.71153  -0.69857  -0.63739  -0.58682  -0.56045
 Alpha  occ. eigenvalues --   -0.50559  -0.49014  -0.47870  -0.43149  -0.42872
 Alpha  occ. eigenvalues --   -0.41430  -0.40455  -0.38220  -0.38036  -0.37110
 Alpha  occ. eigenvalues --   -0.35268  -0.33922  -0.33498  -0.32397  -0.31261
 Alpha  occ. eigenvalues --   -0.30538  -0.29804  -0.29668  -0.28220  -0.27375
 Alpha  occ. eigenvalues --   -0.26965  -0.26123  -0.23060  -0.22248  -0.20762
 Alpha  occ. eigenvalues --   -0.18712  -0.17353  -0.15793   0.04229
 Alpha virt. eigenvalues --    0.06659   0.07134   0.07486   0.08509   0.09063
 Alpha virt. eigenvalues --    0.09677   0.10119   0.10393   0.10646   0.11475
 Alpha virt. eigenvalues --    0.11673   0.12861   0.13650   0.14470   0.14724

  Beta  occ. eigenvalues --  -19.07627 -19.07455 -19.02593 -19.02454 -18.99996
  Beta  occ. eigenvalues --  -14.24226 -10.21182 -10.20829 -10.17965 -10.15502
  Beta  occ. eigenvalues --  -10.14329 -10.12541 -10.08960 -10.07760  -1.02669
  Beta  occ. eigenvalues --   -1.00877  -0.95044  -0.93690  -0.93321  -0.83360
  Beta  occ. eigenvalues --   -0.71094  -0.69795  -0.63678  -0.58607  -0.55961
  Beta  occ. eigenvalues --   -0.50495  -0.48942  -0.47818  -0.43080  -0.42807
  Beta  occ. eigenvalues --   -0.41341  -0.40360  -0.38151  -0.37979  -0.37054
  Beta  occ. eigenvalues --   -0.35166  -0.33861  -0.33409  -0.32348  -0.31209
  Beta  occ. eigenvalues --   -0.30452  -0.29749  -0.29625  -0.28108  -0.27303
  Beta  occ. eigenvalues --   -0.26894  -0.26060  -0.22982  -0.22156  -0.20716
  Beta  occ. eigenvalues --   -0.18669  -0.17314  -0.15738
  Beta virt. eigenvalues --    0.06905   0.07568   0.07768   0.08076   0.08930
  Beta virt. eigenvalues --    0.09681   0.10167   0.10535   0.10865   0.11005
  Beta virt. eigenvalues --    0.11795   0.12165   0.13219   0.13863   0.14629

 Mulliken charges and spin densities:
               1          2
     1  C    1.208351  -1.697028
     2  C   -1.447762   1.159788
     3  C    0.572633  -0.539810
     4  O   -0.231506   0.022578
     5  O   -0.020443   0.050001
     6  C    0.120016  -0.159609
     7  C    0.944887  -1.453932
     8  C   -0.069587  -0.075250
     9  O   -0.312095   0.019216
    10  N   -0.098870   0.196402
    11  C    0.058094  -0.605331
    12  C    0.024012   0.143484
    13  O   -0.186692   0.013550
    14  O    0.045534   0.022827
    15  H   -0.565338   0.741692
    16  H    0.012859   0.147837
    17  H   -0.344203   0.522915
    18  H    0.156702   0.106609
    19  H   -0.541967   0.750610
    20  H    0.280701  -0.071187
    21  H   -0.593258   0.798097
    22  H    0.014486   0.168187
    23  H    0.167388   0.106372
    24  H   -0.454638   0.657721
    25  H    0.260696  -0.025739
 Sum of Mulliken charges =  -1.00000   1.00000

 Dipole moment (field-independent basis, Debye):
    X=              0.3551    Y=              1.2764    Z=              2.8871  Tot=              3.1766
 Quadrupole moment (field-independent basis, Debye-Ang):
   XX=           -129.8632   YY=           -120.3960   ZZ=           -126.9962
   XY=              2.2613   XZ=             -3.2317   YZ=             -2.8116

 Summary of Natural Population Analysis:

                                       Natural Population
                Natural  -----------------------------------------------
    Atom  No    Charge         Core      Valence    Rydberg      Total
 -----------------------------------------------------------------------
      C    1   -0.28778      0.99964     2.28249    0.00566     3.28778
      C    2    0.01876      0.99950     1.96789    0.01384     2.98124
      C    3    0.41013      0.99966     1.56407    0.02614     2.58987
      O    4   -0.29128      0.99987     3.28623    0.00519     4.29128
      O    5   -0.29209      0.99985     3.28088    0.01136     4.29209
      C    6   -0.00870      0.99956     1.99744    0.01170     3.00870
      C    7   -0.24014      0.99958     2.23109    0.00948     3.24014
      C    8    0.34702      0.99967     1.62880    0.02450     2.65298
      O    9   -0.31254      0.99987     3.30720    0.00547     4.31254
      N   10   -0.31764      0.99967     2.80651    0.01146     3.81764
      C   11   -0.13490      0.99957     2.12368    0.01165     3.13490
      C   12    0.40948      0.99970     1.56513    0.02569     2.59052
      O   13   -0.28852      0.99987     3.28333    0.00532     4.28852
      O   14   -0.29095      0.99986     3.28031    0.01078     4.29095
      H   15    0.10806      0.00000     0.38974    0.00219     0.39194
      H   16    0.10538      0.00000     0.39364    0.00098     0.39462
      H   17    0.10945      0.00000     0.38830    0.00225     0.39055
      H   18    0.10694      0.00000     0.39142    0.00164     0.39306
      H   19    0.09696      0.00000     0.40089    0.00215     0.40304
      H   20    0.09871      0.00000     0.40010    0.00119     0.40129
      H   21    0.11109      0.00000     0.38507    0.00384     0.38891
      H   22    0.11444      0.00000     0.38458    0.00098     0.38556
      H   23    0.20056      0.00000     0.29460    0.00484     0.29944
      H   24    0.11027      0.00000     0.38817    0.00155     0.38973
      H   25    0.11730      0.00000     0.38172    0.00098     0.38270
 =======================================================================
   * Total *   -0.00000     13.99587    38.80328    0.20086    53.00000

 Normal termination of Gaussian 16 at Thu Dec 10 10:01:56 2020.
