 Gaussian 16, Revision A.03,

 -----------------------------------------------------------
 # opt freq B3LYP/6-31G(d) empiricaldispersion=gd3bj scf=xqc
 -----------------------------------------------------------

 ------------------------------
 CID_63764913_JID_7295_neutraal
 ------------------------------
 Symbolic Z-matrix:
 Charge =  0 Multiplicity = 1

 SCF Done:  E(RB3LYP) =  -815.546007924     A.U. after   16 cycles
 SCF Done:  E(RB3LYP) =  -815.560371229     A.U. after   14 cycles
 SCF Done:  E(RB3LYP) =  -815.561720455     A.U. after   14 cycles
 SCF Done:  E(RB3LYP) =  -815.563885122     A.U. after   13 cycles
 SCF Done:  E(RB3LYP) =  -815.564892866     A.U. after   13 cycles
 SCF Done:  E(RB3LYP) =  -815.565324964     A.U. after   12 cycles
 SCF Done:  E(RB3LYP) =  -815.565693745     A.U. after   12 cycles
 SCF Done:  E(RB3LYP) =  -815.565762066     A.U. after   12 cycles
 SCF Done:  E(RB3LYP) =  -815.565854351     A.U. after   11 cycles
 SCF Done:  E(RB3LYP) =  -815.565851886     A.U. after   10 cycles
 SCF Done:  E(RB3LYP) =  -815.565859344     A.U. after   10 cycles
 SCF Done:  E(RB3LYP) =  -815.565867756     A.U. after    9 cycles
 SCF Done:  E(RB3LYP) =  -815.565868721     A.U. after    9 cycles
 SCF Done:  E(RB3LYP) =  -815.565869035     A.U. after    8 cycles
 SCF Done:  E(RB3LYP) =  -815.565869083     A.U. after    7 cycles
 Optimization completed.
    -- Stationary point found.
 Normal termination of Gaussian 16 at Sun Dec 13 12:33:10 2020.

 --------------------------------------------------------------------
 #N Geom=AllCheck Guess=TCheck SCRF=Check GenChk RB3LYP/6-31G(d) Freq
 --------------------------------------------------------------------

 Structure from the checkpoint file:  "JID_7295.chk"
 ------------------------------
 CID_63764913_JID_7295_neutraal
 ------------------------------
 Charge =  0 Multiplicity = 1

 SCF Done:  E(RB3LYP) =  -815.565869083     A.U. after    1 cycles

  Exact polarizability: 163.495  12.393 150.176   4.934  14.106 109.897
 Approx polarizability: 225.562  30.055 237.886  13.480  47.957 174.793

                      1                      2                      3
                      A                      A                      A
 Frequencies --     42.2976                54.3376                67.1932
 Red. masses --      5.2560                 5.6832                 3.3585
 Frc consts  --      0.0055                 0.0099                 0.0089
 IR Inten    --      1.4827                 0.7501                 0.9113

                      4                      5                      6
                      A                      A                      A
 Frequencies --     75.0846                86.7949               127.4712
 Red. masses --      3.7684                 3.6860                 4.6779
 Frc consts  --      0.0125                 0.0164                 0.0448
 IR Inten    --      0.3252                 0.9388                 0.0393

                      7                      8                      9
                      A                      A                      A
 Frequencies --    143.2741               164.9286               174.7943
 Red. masses --      7.3702                 2.9599                 3.3759
 Frc consts  --      0.0891                 0.0474                 0.0608
 IR Inten    --      1.7627                 3.8570                 1.7881

                     10                     11                     12
                      A                      A                      A
 Frequencies --    249.5260               256.3613               257.4578
 Red. masses --      2.6939                 2.4138                 3.1118
 Frc consts  --      0.0988                 0.0935                 0.1215
 IR Inten    --      0.9765                10.4196                 3.6624

                     13                     14                     15
                      A                      A                      A
 Frequencies --    275.4454               327.8206               335.5206
 Red. masses --      1.2912                 4.6946                 3.0377
 Frc consts  --      0.0577                 0.2972                 0.2015
 IR Inten    --     68.4652                 0.2914                 0.9768

                     16                     17                     18
                      A                      A                      A
 Frequencies --    391.4779               417.4551               453.8669
 Red. masses --      8.9947                 3.4583                 3.1451
 Frc consts  --      0.8122                 0.3551                 0.3817
 IR Inten    --     21.5627                 1.2919                 6.8191

                     19                     20                     21
                      A                      A                      A
 Frequencies --    474.5973               497.2415               540.9417
 Red. masses --      3.9040                 3.2604                 3.8282
 Frc consts  --      0.5181                 0.4750                 0.6600
 IR Inten    --      8.1665                 7.5489                22.2773

                     22                     23                     24
                      A                      A                      A
 Frequencies --    556.3502               562.9745               588.1698
 Red. masses --      1.4134                 2.0342                 2.9228
 Frc consts  --      0.2578                 0.3799                 0.5957
 IR Inten    --     53.0391                19.4773                16.3521

                     25                     26                     27
                      A                      A                      A
 Frequencies --    615.3747               652.5815               689.5862
 Red. masses --      2.9028                 4.9373                 3.0111
 Frc consts  --      0.6477                 1.2388                 0.8436
 IR Inten    --      1.8804                12.7271                10.4287

                     28                     29                     30
                      A                      A                      A
 Frequencies --    695.5909               729.3798               750.6091
 Red. masses --      1.6246                 4.3007                 4.3060
 Frc consts  --      0.4631                 1.3480                 1.4294
 IR Inten    --     61.0953                82.1623                12.5244

                     31                     32                     33
                      A                      A                      A
 Frequencies --    779.0275               822.0220               859.0296
 Red. masses --      7.9821                 2.0686                 2.0511
 Frc consts  --      2.8541                 0.8236                 0.8918
 IR Inten    --     15.5607                 3.9988                 8.3164

                     34                     35                     36
                      A                      A                      A
 Frequencies --    866.8773               879.6218               886.2455
 Red. masses --      1.8815                 1.5477                 1.8311
 Frc consts  --      0.8331                 0.7056                 0.8474
 IR Inten    --     16.1337                84.9221                 2.1373

                     37                     38                     39
                      A                      A                      A
 Frequencies --    898.5165               916.9606               946.6068
 Red. masses --      2.2102                 2.4396                 1.8670
 Frc consts  --      1.0513                 1.2086                 0.9857
 IR Inten    --      6.9012                 0.2347                 1.1960

                     40                     41                     42
                      A                      A                      A
 Frequencies --    969.9058              1012.9417              1025.3231
 Red. masses --      1.6716                 3.5248                 2.3684
 Frc consts  --      0.9265                 2.1309                 1.4670
 IR Inten    --      8.0869                55.1044                 9.0253

                     43                     44                     45
                      A                      A                      A
 Frequencies --   1042.5318              1061.1124              1093.1841
 Red. masses --      1.3917                 1.8600                 2.6213
 Frc consts  --      0.8912                 1.2339                 1.8456
 IR Inten    --      7.5708                 9.2820                 4.7618

                     46                     47                     48
                      A                      A                      A
 Frequencies --   1104.4110              1121.4429              1138.1528
 Red. masses --      2.9610                 2.0478                 3.4498
 Frc consts  --      2.1279                 1.5174                 2.6330
 IR Inten    --      7.1963                14.2950                15.8300

                     49                     50                     51
                      A                      A                      A
 Frequencies --   1184.0059              1196.6461              1208.3294
 Red. masses --      1.7603                 1.5013                 1.6503
 Frc consts  --      1.4540                 1.2666                 1.4197
 IR Inten    --     15.9921                 4.4001                26.0982

                     52                     53                     54
                      A                      A                      A
 Frequencies --   1220.0729              1261.7389              1271.2464
 Red. masses --      2.2572                 1.4059                 1.2801
 Frc consts  --      1.9797                 1.3187                 1.2188
 IR Inten    --      8.3539                 0.1755                 5.7625

                     55                     56                     57
                      A                      A                      A
 Frequencies --   1273.8238              1300.0317              1325.6964
 Red. masses --      2.7373                 2.3513                 1.3052
 Frc consts  --      2.6169                 2.3413                 1.3515
 IR Inten    --    169.9112                30.8192                 0.1909

                     58                     59                     60
                      A                      A                      A
 Frequencies --   1341.6569              1356.4235              1362.6218
 Red. masses --      1.2026                 1.4981                 1.2296
 Frc consts  --      1.2755                 1.6239                 1.3451
 IR Inten    --      3.2201                32.8490                 5.3152

                     61                     62                     63
                      A                      A                      A
 Frequencies --   1365.7781              1369.0758              1386.5267
 Red. masses --      1.2950                 1.4221                 1.9278
 Frc consts  --      1.4232                 1.5705                 2.1836
 IR Inten    --      2.4309                17.4979               138.7539

                     64                     65                     66
                      A                      A                      A
 Frequencies --   1408.0645              1413.1550              1434.0869
 Red. masses --      1.2696                 1.6976                 1.4115
 Frc consts  --      1.4831                 1.9974                 1.7103
 IR Inten    --      6.9298                24.2935                 6.5898

                     67                     68                     69
                      A                      A                      A
 Frequencies --   1436.5528              1459.5564              1505.5368
 Red. masses --      2.1972                 1.6659                 1.3766
 Frc consts  --      2.6715                 2.0910                 1.8384
 IR Inten    --     42.2040                15.8845                 5.9576

                     70                     71                     72
                      A                      A                      A
 Frequencies --   1510.7998              1515.4600              1520.4629
 Red. masses --      1.4404                 1.0999                 1.0945
 Frc consts  --      1.9370                 1.4883                 1.4908
 IR Inten    --      4.5556                 3.7662                 3.5114

                     73                     74                     75
                      A                      A                      A
 Frequencies --   1529.2172              1530.4506              1540.4160
 Red. masses --      1.2591                 1.0898                 1.1097
 Frc consts  --      1.7348                 1.5040                 1.5514
 IR Inten    --     23.2796                 1.6484                 7.4823

                     76                     77                     78
                      A                      A                      A
 Frequencies --   1635.3589              1698.6490              1801.6982
 Red. masses --      7.2760                 1.0899                 9.4967
 Frc consts  --     11.4648                 1.8528                18.1630
 IR Inten    --    127.6894                31.3100               356.1068

                     79                     80                     81
                      A                      A                      A
 Frequencies --   1840.7519              2984.4096              3038.8858
 Red. masses --      8.3254                 1.0711                 1.0685
 Frc consts  --     16.6206                 5.6206                 5.8136
 IR Inten    --    711.8172                70.5757                36.9217

                     82                     83                     84
                      A                      A                      A
 Frequencies --   3055.4533              3068.2863              3072.1723
 Red. masses --      1.0744                 1.0608                 1.0787
 Frc consts  --      5.9096                 5.8839                 5.9983
 IR Inten    --     17.9773                29.7749                23.3764

                     85                     86                     87
                      A                      A                      A
 Frequencies --   3078.7134              3083.5140              3087.0382
 Red. masses --      1.0880                 1.0741                 1.0700
 Frc consts  --      6.0760                 6.0168                 6.0077
 IR Inten    --     16.9680                61.0370                55.9895

                     88                     89                     90
                      A                      A                      A
 Frequencies --   3101.3188              3112.9992              3133.7072
 Red. masses --      1.0926                 1.1042                 1.0979
 Frc consts  --      6.1914                 6.3044                 6.3521
 IR Inten    --     31.9149                38.0729                13.6014

                     91                     92                     93
                      A                      A                      A
 Frequencies --   3137.7538              3199.9154              3485.7995
 Red. masses --      1.1018                 1.0932                 1.0499
 Frc consts  --      6.3912                 6.5950                 7.5160
 IR Inten    --     62.0788                 7.7661                 0.6424

                     94                     95                     96
                      A                      A                      A
 Frequencies --   3570.1128              3602.9698              3652.8358
 Red. masses --      1.0930                 1.0774                 1.0790
 Frc consts  --      8.2083                 8.2404                 8.4830
 IR Inten    --      0.2964                70.1371                64.8054

 - Thermochemistry -
 -------------------
 Temperature   298.150 Kelvin.  Pressure   1.00000 Atm.
 Atom     1 has atomic number  6 and mass  12.00000

 Molecular mass:   239.13822 amu.
 Principal axes and moments of inertia in atomic units:
                           1         2         3
     Eigenvalues --  2887.661494628.214556007.58598
           X            0.99954  -0.03034  -0.00014
           Y            0.03032   0.99923  -0.02502
           Z            0.00090   0.02501   0.99969
 This molecule is an asymmetric top.
 Rotational symmetry number  1.
 Warning -- assumption of classical behavior for rotation
           may cause significant error
 Rotational temperatures (Kelvin)      0.02999     0.01871     0.01442
 Rotational constants (GHZ):           0.62498     0.38994     0.30041
 Zero-point vibrational energy     761711.4 (Joules/Mol)
                                  182.05338 (Kcal/Mol)
 Warning -- explicit consideration of  25 degrees of freedom as
           vibrations may cause significant error
 Vibrational temperatures:     60.86    78.18    96.68   108.03   124.88
          (Kelvin)            183.40   206.14   237.30   251.49   359.01
                              368.85   370.42   396.30   471.66   482.74
                              563.25   600.62   653.01   682.84   715.42
                              778.29   800.46   809.99   846.25   885.39
                              938.92   992.16  1000.80  1049.41  1079.96
                             1120.85  1182.71  1235.95  1247.24  1265.58
                             1275.11  1292.76  1319.30  1361.96  1395.48
                             1457.40  1475.21  1499.97  1526.70  1572.85
                             1589.00  1613.51  1637.55  1703.52  1721.71
                             1738.52  1755.41  1815.36  1829.04  1832.75
                             1870.46  1907.38  1930.35  1951.59  1960.51
                             1965.05  1969.79  1994.90  2025.89  2033.21
                             2063.33  2066.88  2099.98  2166.13  2173.70
                             2180.41  2187.61  2200.20  2201.98  2216.32
                             2352.92  2443.98  2592.24  2648.43  4293.90
                             4372.28  4396.12  4414.58  4420.17  4429.58
                             4436.49  4441.56  4462.11  4478.91  4508.71
                             4514.53  4603.96  5015.29  5136.60  5183.87
                             5255.62

 Zero-point correction=                           0.290121 (Hartree/Particle)
 Thermal correction to Energy=                    0.306030
 Thermal correction to Enthalpy=                  0.306974
 Thermal correction to Gibbs Free Energy=         0.246427
 Sum of electronic and zero-point Energies=           -815.275749
 Sum of electronic and thermal Energies=              -815.259840
 Sum of electronic and thermal Enthalpies=            -815.258895
 Sum of electronic and thermal Free Energies=         -815.319442

                     E (Thermal)             CV                S
                      KCal/Mol        Cal/Mol-Kelvin    Cal/Mol-Kelvin
 Total                  192.036             61.147            127.431
 Electronic               0.000              0.000              0.000
 Translational            0.889              2.981             42.317
 Rotational               0.889              2.981             32.751
 Vibrational            190.259             55.185             52.363
 Vibration     1          0.595              1.980              5.148
 Vibration     2          0.596              1.976              4.653
 Vibration     3          0.598              1.970              4.234
 Vibration     4          0.599              1.966              4.015
 Vibration     5          0.601              1.958              3.731
 Vibration     6          0.611              1.926              2.984
 Vibration     7          0.616              1.910              2.760
 Vibration     8          0.623              1.886              2.492
 Vibration     9          0.627              1.873              2.383
 Vibration    10          0.662              1.764              1.734
 Vibration    11          0.666              1.752              1.686
 Vibration    12          0.667              1.750              1.679
 Vibration    13          0.677              1.719              1.562
 Vibration    14          0.711              1.620              1.271
 Vibration    15          0.717              1.605              1.233
 Vibration    16          0.759              1.488              0.995
 Vibration    17          0.780              1.432              0.901
 Vibration    18          0.812              1.352              0.784
 Vibration    19          0.831              1.306              0.725
 Vibration    20          0.853              1.256              0.665
 Vibration    21          0.896              1.160              0.563
 Vibration    22          0.912              1.126              0.531
 Vibration    23          0.919              1.111              0.518
 Vibration    24          0.945              1.057              0.470
 Vibration    25          0.975              0.999              0.424

 Optimization completed.
    -- Stationary point found.
 Normal termination of Gaussian 16 at Sun Dec 13 12:47:28 2020.

 ----------------------------------------------------------------------
 # B3LYP/6-311++G(d,p) empiricaldispersion=gd3bj scf=xqc pop=npa geom=c
 heck
 ----------------------------------------------------------------------

 --------------------------------------
 CID_63764913_JID_7295_Energie_neutraal
 --------------------------------------
 Structure from the checkpoint file:  "JID_7295.chk"
 Charge =  0 Multiplicity = 1

 SCF Done:  E(RB3LYP) =  -815.807680021     A.U. after   16 cycles
 Normal termination of Gaussian 16 at Sun Dec 13 12:54:43 2020.

 ----------------------------------------------------------------------
 # B3LYP/6-311++G(d,p) empiricaldispersion=gd3bj scf=xqc pop=npa geom=c
 heck
 ----------------------------------------------------------------------

 ------------------------------------
 CID_63764913_JID_7295_Energie_kation
 ------------------------------------
 Structure from the checkpoint file:  "JID_7295.chk"
 Charge =  1 Multiplicity = 2

 SCF Done:  E(UB3LYP) =  -815.524539577     A.U. after   23 cycles
 Normal termination of Gaussian 16 at Sun Dec 13 13:09:37 2020.
 Gaussian 16:  ES64L-G16RevA.03 25-Dec-2016

 ----------------------------------------------------------------------
 # B3LYP/6-311++G(d,p) empiricaldispersion=gd3bj scf=xqc pop=npa geom=c
 heck
 ----------------------------------------------------------------------

 -----------------------------------
 CID_63764913_JID_7295_Energie_anion
 -----------------------------------
 Structure from the checkpoint file:  "JID_7295.chk"
 Charge = -1 Multiplicity = 2

                         Standard orientation:
 ---------------------------------------------------------------------
 Center     Atomic      Atomic             Coordinates (Angstroms)
 Number     Number       Type             X           Y           Z
 ---------------------------------------------------------------------
      1          6           0        3.169681   -1.967496    0.615345
      2          6           0        2.803440   -1.738250   -0.860764
      3          6           0        2.441935   -0.242454   -0.930421
      4          6           0        1.978601    0.149642    0.515415
      5          6           0        2.126004   -1.132560    1.369979
      6          7           0        0.672499    0.808650    0.665776
      7          6           0        0.686547    2.276744    0.584385
      8          6           0        0.872210    2.801064   -0.845404
      9          7           0       -0.207916    2.302708   -1.703492
     10          6           0       -0.478865    0.136676    0.312952
     11          7           0       -0.391471   -0.964189   -0.378747
     12          7           0       -1.530391   -1.684056   -0.612719
     13          6           0       -2.821473   -1.322354   -0.322951
     14          8           0       -3.807636   -1.969298   -0.628813
     15          7           0       -2.869495   -0.124193    0.389261
     16          6           0       -1.797819    0.633616    0.837506
     17          8           0       -1.967646    1.571215    1.596665
     18          1           0        4.179927   -1.585112    0.816077
     19          1           0        3.157681   -3.023882    0.903148
     20          1           0        3.606662   -2.014361   -1.551827
     21          1           0        1.921485   -2.336544   -1.112213
     22          1           0        1.670239   -0.044640   -1.676572
     23          1           0        3.320259    0.354385   -1.202122
     24          1           0        2.686122    0.888279    0.902335
     25          1           0        1.176857   -1.672586    1.402102
     26          1           0        2.411551   -0.895146    2.399245
     27          1           0       -0.250960    2.650605    0.987801
     28          1           0        1.501344    2.633188    1.223763
     29          1           0        0.805496    3.895104   -0.810852
     30          1           0        1.882651    2.553192   -1.211357
     31          1           0       -0.266071    2.857796   -2.554161
     32          1           0       -0.009609    1.348153   -1.995264
     33          1           0       -1.397856   -2.531041   -1.145496
     34          1           0       -3.787676    0.167060    0.705768
 ---------------------------------------------------------------------

 SCF Done:  E(UB3LYP) =  -815.812090318     A.U. after   33 cycles
 SCF Done:  E(UB3LYP) =  -815.812090319     a.u. after    1 cycles

 The electronic state is 2-A.
 Alpha  occ. eigenvalues --  -18.97274 -18.94919 -14.24762 -14.22198 -14.19994
 Alpha  occ. eigenvalues --  -14.18701 -14.18267 -10.18323 -10.12730 -10.09431
 Alpha  occ. eigenvalues --  -10.09111 -10.08074 -10.07223 -10.06276 -10.05591
 Alpha  occ. eigenvalues --  -10.05252 -10.04998  -0.94862  -0.90632  -0.87927
 Alpha  occ. eigenvalues --   -0.82454  -0.79247  -0.76909  -0.72154  -0.69869
 Alpha  occ. eigenvalues --   -0.61495  -0.60185  -0.59352  -0.54423  -0.53026
 Alpha  occ. eigenvalues --   -0.49922  -0.47921  -0.46677  -0.44001  -0.41667
 Alpha  occ. eigenvalues --   -0.38910  -0.38230  -0.37932  -0.35632  -0.34994
 Alpha  occ. eigenvalues --   -0.34800  -0.33909  -0.32477  -0.31116  -0.30925
 Alpha  occ. eigenvalues --   -0.29834  -0.28809  -0.27453  -0.27103  -0.26210
 Alpha  occ. eigenvalues --   -0.25025  -0.23864  -0.23563  -0.23476  -0.23125
 Alpha  occ. eigenvalues --   -0.22135  -0.20998  -0.19606  -0.15927  -0.15295
 Alpha  occ. eigenvalues --   -0.14873  -0.13574  -0.12092  -0.08113   0.04463
 Alpha virt. eigenvalues --    0.06550   0.07478   0.08163   0.08817   0.09750
 Alpha virt. eigenvalues --    0.09753   0.10669   0.11093   0.11272   0.12063
 Alpha virt. eigenvalues --    0.12883   0.13143   0.13780   0.14115   0.14433

  Beta  occ. eigenvalues --  -18.97288 -18.94641 -14.24699 -14.22088 -14.19985
  Beta  occ. eigenvalues --  -14.18252 -14.18201 -10.18337 -10.12444 -10.09284
  Beta  occ. eigenvalues --  -10.09108 -10.08058 -10.07220 -10.06270 -10.05585
  Beta  occ. eigenvalues --  -10.05252 -10.04969  -0.94732  -0.90187  -0.87513
  Beta  occ. eigenvalues --   -0.82361  -0.78938  -0.76866  -0.72089  -0.69499
  Beta  occ. eigenvalues --   -0.61452  -0.60153  -0.59135  -0.54131  -0.52596
  Beta  occ. eigenvalues --   -0.49840  -0.47857  -0.46632  -0.43784  -0.41537
  Beta  occ. eigenvalues --   -0.38842  -0.38159  -0.37874  -0.35482  -0.34824
  Beta  occ. eigenvalues --   -0.34330  -0.33780  -0.32382  -0.31046  -0.30847
  Beta  occ. eigenvalues --   -0.29590  -0.28582  -0.27208  -0.26789  -0.25324
  Beta  occ. eigenvalues --   -0.24429  -0.23583  -0.23480  -0.23427  -0.23081
  Beta  occ. eigenvalues --   -0.21938  -0.20955  -0.19325  -0.15501  -0.14658
  Beta  occ. eigenvalues --   -0.14356  -0.13383  -0.11683  -0.07030
  Beta virt. eigenvalues --    0.06679   0.07621   0.08192   0.08909   0.09685
  Beta virt. eigenvalues --    0.09830   0.10662   0.10820   0.11169   0.11241
  Beta virt. eigenvalues --    0.12076   0.12975   0.13141   0.13771   0.14230

 Mulliken charges and spin densities:
               1          2
     1  C   -0.419719  -0.017190
     2  C    0.000377  -0.471501
     3  C    0.270631  -0.370602
     4  C   -0.651111   0.448470
     5  C    0.090236  -0.236199
     6  N    0.370108  -0.002706
     7  C   -0.464998   0.236716
     8  C    0.262890  -0.596091
     9  N   -0.375477  -0.029115
    10  C   -0.901542  -0.147961
    11  N   -0.021786   0.318658
    12  N   -0.179840  -0.044933
    13  C    0.286516   0.005470
    14  O   -0.407385  -0.002145
    15  N   -0.384020   0.032004
    16  C    0.568426   0.089364
    17  O   -0.396970   0.108129
    18  H    0.023974   0.081044
    19  H    0.097869   0.052639
    20  H   -0.019172   0.166297
    21  H    0.116633  -0.003878
    22  H    0.004101   0.105084
    23  H   -0.204452   0.361060
    24  H   -0.023226   0.178130
    25  H    0.191755  -0.009849
    26  H    0.133832   0.010331
    27  H    0.214447   0.020278
    28  H    0.079497   0.021804
    29  H   -0.161829   0.308176
    30  H   -0.036521   0.170709
    31  H    0.178101   0.085729
    32  H    0.124977   0.106638
    33  H    0.291475   0.025329
    34  H    0.342205   0.000113
 Sum of Mulliken charges =  -1.00000   1.00000

 Dipole moment (field-independent basis, Debye):
    X=              3.4543    Y=             -1.3443    Z=             -0.0537  Tot=              3.7071
 Quadrupole moment (field-independent basis, Debye-Ang):
   XX=           -156.7908   YY=           -132.8663   ZZ=           -122.0230
   XY=             -5.4264   XZ=              4.5953   YZ=             -3.3512

 Summary of Natural Population Analysis:

                                       Natural Population
                Natural  -----------------------------------------------
    Atom  No    Charge         Core      Valence    Rydberg      Total
 -----------------------------------------------------------------------
      C    1   -0.19037      0.99964     2.18408    0.00665     3.19037
      C    2   -0.19334      0.99964     2.18546    0.00824     3.19334
      C    3   -0.20075      0.99962     2.19159    0.00954     3.20075
      C    4    0.00045      0.99959     1.98560    0.01437     2.99955
      C    5   -0.19450      0.99961     2.18749    0.00739     3.19450
      N    6   -0.25591      0.99964     2.74343    0.01284     3.75591
      C    7   -0.08747      0.99959     2.07579    0.01209     3.08747
      C    8   -0.09913      0.99963     2.08862    0.01088     3.09913
      N    9   -0.42143      0.99977     2.91087    0.01079     3.92143
      C   10    0.18443      0.99953     1.79885    0.01720     2.81557
      N   11   -0.11570      0.99964     2.60121    0.01485     3.61570
      N   12   -0.20835      0.99967     2.69818    0.01050     3.70835
      C   13    0.38923      0.99971     1.58842    0.02264     2.61077
      O   14   -0.34764      0.99987     3.34220    0.00556     4.34764
      N   15   -0.30576      0.99965     2.79895    0.00716     3.80576
      C   16    0.35853      0.99965     1.61966    0.02215     2.64147
      O   17   -0.29669      0.99987     3.29104    0.00577     4.29669
      H   18    0.08884      0.00000     0.40993    0.00123     0.41116
      H   19    0.09533      0.00000     0.40374    0.00093     0.40467
      H   20    0.09296      0.00000     0.40617    0.00087     0.40704
      H   21    0.10103      0.00000     0.39754    0.00144     0.39897
      H   22    0.10638      0.00000     0.39185    0.00177     0.39362
      H   23    0.09244      0.00000     0.40614    0.00141     0.40756
      H   24    0.09324      0.00000     0.40540    0.00136     0.40676
      H   25    0.10902      0.00000     0.38946    0.00152     0.39098
      H   26    0.09482      0.00000     0.40427    0.00090     0.40518
      H   27    0.12150      0.00000     0.37696    0.00154     0.37850
      H   28    0.08690      0.00000     0.41219    0.00091     0.41310
      H   29    0.08785      0.00000     0.41089    0.00126     0.41215
      H   30    0.07736      0.00000     0.42066    0.00198     0.42264
      H   31    0.17121      0.00000     0.32744    0.00134     0.32879
      H   32    0.17907      0.00000     0.31905    0.00188     0.32093
      H   33    0.18996      0.00000     0.30730    0.00274     0.31004
      H   34    0.19648      0.00000     0.30003    0.00349     0.30352
 =======================================================================
   * Total *   -0.00000     16.99433    46.78047    0.22520    64.00000

 Normal termination of Gaussian 16 at Sun Dec 13 13:31:18 2020.
