 Gaussian 16, Revision A.03,

 -----------------------------------------------------------
 # opt freq B3LYP/6-31G(d) empiricaldispersion=gd3bj scf=xqc
 -----------------------------------------------------------

 ------------------------------
 CID_71154625_JID_6598_neutraal
 ------------------------------
 Symbolic Z-matrix:
 Charge =  0 Multiplicity = 1

 SCF Done:  E(RB3LYP) =  -695.819200994     A.U. after   14 cycles
 SCF Done:  E(RB3LYP) =  -695.823496285     A.U. after   13 cycles
 SCF Done:  E(RB3LYP) =  -695.822495005     A.U. after   12 cycles
 SCF Done:  E(RB3LYP) =  -695.823849453     A.U. after   13 cycles
 SCF Done:  E(RB3LYP) =  -695.823222994     A.U. after   12 cycles
 SCF Done:  E(RB3LYP) =  -695.824186131     A.U. after   13 cycles
 SCF Done:  E(RB3LYP) =  -695.824867710     A.U. after   12 cycles
 SCF Done:  E(RB3LYP) =  -695.825721901     A.U. after   13 cycles
 SCF Done:  E(RB3LYP) =  -695.826309729     A.U. after   13 cycles
 SCF Done:  E(RB3LYP) =  -695.827618644     A.U. after   13 cycles
 SCF Done:  E(RB3LYP) =  -695.828604748     A.U. after   10 cycles
 SCF Done:  E(RB3LYP) =  -695.828634313     A.U. after    9 cycles
 SCF Done:  E(RB3LYP) =  -695.828638829     A.U. after    8 cycles
 SCF Done:  E(RB3LYP) =  -695.828639276     A.U. after    7 cycles
 SCF Done:  E(RB3LYP) =  -695.828639379     A.U. after    7 cycles
 Optimization completed.
    -- Stationary point found.
 Normal termination of Gaussian 16 at Fri Dec 11 00:01:48 2020.

 --------------------------------------------------------------------
 #N Geom=AllCheck Guess=TCheck SCRF=Check GenChk RB3LYP/6-31G(d) Freq
 --------------------------------------------------------------------

 Structure from the checkpoint file:  "JID_6598.chk"
 ------------------------------
 CID_71154625_JID_6598_neutraal
 ------------------------------
 Charge =  0 Multiplicity = 1

 SCF Done:  E(RB3LYP) =  -695.828639379     A.U. after    1 cycles

  Exact polarizability: 161.840   1.007 154.540   1.440   0.600 134.494
 Approx polarizability: 201.232   1.727 211.610   4.276   8.987 211.233

                      1                      2                      3
                      A                      A                      A
 Frequencies --     38.0753                48.5881                55.3559
 Red. masses --      3.6203                 3.4615                 2.6600
 Frc consts  --      0.0031                 0.0048                 0.0048
 IR Inten    --      0.6521                 0.9516                 0.0620

                      4                      5                      6
                      A                      A                      A
 Frequencies --     74.1688                77.3355                95.5311
 Red. masses --      3.2550                 2.4913                 3.8027
 Frc consts  --      0.0105                 0.0088                 0.0204
 IR Inten    --      0.3096                 0.1214                 2.7915

                      7                      8                      9
                      A                      A                      A
 Frequencies --    111.1670               157.4850               185.0822
 Red. masses --      2.8200                 3.3360                 3.3940
 Frc consts  --      0.0205                 0.0487                 0.0685
 IR Inten    --      1.3455                 1.1216                 1.3721

                     10                     11                     12
                      A                      A                      A
 Frequencies --    210.7980               233.6867               236.8930
 Red. masses --      2.7037                 1.4910                 1.3760
 Frc consts  --      0.0708                 0.0480                 0.0455
 IR Inten    --      0.7937                 0.7384                 0.2374

                     13                     14                     15
                      A                      A                      A
 Frequencies --    240.0144               248.3925               267.6182
 Red. masses --      1.6385                 1.9420                 1.3983
 Frc consts  --      0.0556                 0.0706                 0.0590
 IR Inten    --      1.2636                 0.7599                 0.3757

                     16                     17                     18
                      A                      A                      A
 Frequencies --    282.5430               322.1132               344.3833
 Red. masses --      2.0616                 2.1706                 1.9678
 Frc consts  --      0.0970                 0.1327                 0.1375
 IR Inten    --      1.1120                 0.8265                 3.6105

                     19                     20                     21
                      A                      A                      A
 Frequencies --    367.1067               380.5789               383.8143
 Red. masses --      2.6300                 2.2353                 2.1966
 Frc consts  --      0.2088                 0.1908                 0.1906
 IR Inten    --      6.6288                 0.5951                 1.7113

                     22                     23                     24
                      A                      A                      A
 Frequencies --    415.4254               441.4672               473.8677
 Red. masses --      2.5081                 2.2989                 2.8013
 Frc consts  --      0.2550                 0.2640                 0.3706
 IR Inten    --      0.4853                 1.7750                 3.7418

                     25                     26                     27
                      A                      A                      A
 Frequencies --    504.5307               541.6522               581.6487
 Red. masses --      2.7686                 2.3653                 2.7922
 Frc consts  --      0.4152                 0.4089                 0.5566
 IR Inten    --      1.4169                 3.0106                21.6081

                     28                     29                     30
                      A                      A                      A
 Frequencies --    622.6982               678.7489               698.0816
 Red. masses --      3.2456                 2.5148                 2.0366
 Frc consts  --      0.7415                 0.6826                 0.5848
 IR Inten    --      3.2998                11.0772                70.4803

                     31                     32                     33
                      A                      A                      A
 Frequencies --    777.5318               790.4022               799.0165
 Red. masses --      2.7375                 1.4647                 1.7175
 Frc consts  --      0.9751                 0.5391                 0.6460
 IR Inten    --      1.2317                 1.2822                 8.0666

                     34                     35                     36
                      A                      A                      A
 Frequencies --    811.3161               831.6546               846.2796
 Red. masses --      1.4441                 1.5086                 2.2476
 Frc consts  --      0.5600                 0.6148                 0.9484
 IR Inten    --      8.5182                 0.5624                 8.3524

                     37                     38                     39
                      A                      A                      A
 Frequencies --    903.6994               909.9226               916.1253
 Red. masses --      2.2765                 1.9965                 2.3312
 Frc consts  --      1.0954                 0.9739                 1.1528
 IR Inten    --      1.7438                 2.1434                26.4249

                     40                     41                     42
                      A                      A                      A
 Frequencies --    971.4074               987.3509              1006.2438
 Red. masses --      1.7034                 2.2183                 1.5239
 Frc consts  --      0.9471                 1.2741                 0.9091
 IR Inten    --      9.2267                 1.0708                 1.9779

                     43                     44                     45
                      A                      A                      A
 Frequencies --   1017.2109              1035.4118              1045.5719
 Red. masses --      2.2833                 2.2392                 2.3501
 Frc consts  --      1.3920                 1.4144                 1.5137
 IR Inten    --     10.4646                 5.0951                24.8931

                     46                     47                     48
                      A                      A                      A
 Frequencies --   1071.8934              1079.1977              1094.2299
 Red. masses --      1.9287                 1.6554                 1.9945
 Frc consts  --      1.3056                 1.1359                 1.4070
 IR Inten    --      9.2926                 6.1944                 6.7477

                     49                     50                     51
                      A                      A                      A
 Frequencies --   1100.1063              1116.7477              1132.5928
 Red. masses --      1.8608                 1.7650                 1.9913
 Frc consts  --      1.3269                 1.2969                 1.5050
 IR Inten    --     15.0311                 5.5124                 3.7987

                     52                     53                     54
                      A                      A                      A
 Frequencies --   1141.6445              1163.8410              1180.5369
 Red. masses --      2.1401                 1.6120                 2.6709
 Frc consts  --      1.6434                 1.2864                 2.1931
 IR Inten    --      1.5777                15.3460                60.7808

                     55                     56                     57
                      A                      A                      A
 Frequencies --   1187.1242              1191.9324              1199.5667
 Red. masses --      2.0367                 1.9136                 1.3125
 Frc consts  --      1.6911                 1.6018                 1.1127
 IR Inten    --      1.7958                40.2598                 5.1062

                     58                     59                     60
                      A                      A                      A
 Frequencies --   1202.4503              1229.9723              1269.2252
 Red. masses --      2.0374                 1.6629                 1.6055
 Frc consts  --      1.7356                 1.4822                 1.5238
 IR Inten    --     24.6671                27.1790                 1.4962

                     61                     62                     63
                      A                      A                      A
 Frequencies --   1295.3249              1306.4275              1316.5089
 Red. masses --      1.2247                 1.2049                 1.3493
 Frc consts  --      1.2107                 1.2116                 1.3778
 IR Inten    --      2.8640                 8.3021                15.1038

                     64                     65                     66
                      A                      A                      A
 Frequencies --   1325.1985              1332.1467              1342.5259
 Red. masses --      1.8275                 1.3496                 1.3803
 Frc consts  --      1.8909                 1.4111                 1.4658
 IR Inten    --     20.2798                11.4609                 1.7308

                     67                     68                     69
                      A                      A                      A
 Frequencies --   1358.0360              1361.2361              1364.8348
 Red. masses --      1.4808                 1.3255                 1.2541
 Frc consts  --      1.6090                 1.4471                 1.3764
 IR Inten    --      9.2040                 2.2236                 2.6195

                     70                     71                     72
                      A                      A                      A
 Frequencies --   1388.1214              1397.6478              1401.9916
 Red. masses --      1.2584                 1.3508                 1.3425
 Frc consts  --      1.4287                 1.5546                 1.5547
 IR Inten    --      5.7109                12.6035                 2.0432

                     73                     74                     75
                      A                      A                      A
 Frequencies --   1409.8463              1417.0736              1422.6519
 Red. masses --      1.3418                 1.4234                 1.2231
 Frc consts  --      1.5714                 1.6840                 1.4585
 IR Inten    --      3.6224                 2.4626                 1.5920

                     76                     77                     78
                      A                      A                      A
 Frequencies --   1427.9747              1435.4088              1437.5666
 Red. masses --      1.4993                 1.3017                 1.3829
 Frc consts  --      1.8013                 1.5802                 1.6839
 IR Inten    --     13.7252                22.8149                20.2496

                     79                     80                     81
                      A                      A                      A
 Frequencies --   1485.6002              1494.3860              1503.2024
 Red. masses --      1.2014                 1.1012                 1.1002
 Frc consts  --      1.5622                 1.4489                 1.4648
 IR Inten    --      0.0569                 3.1431                12.4973

                     82                     83                     84
                      A                      A                      A
 Frequencies --   1504.4157              1507.3111              1515.7193
 Red. masses --      1.0865                 1.0925                 1.1018
 Frc consts  --      1.4488                 1.4624                 1.4914
 IR Inten    --      7.7479                 1.6374                 7.6482

                     85                     86                     87
                      A                      A                      A
 Frequencies --   1516.7756              1520.5365              1521.9378
 Red. masses --      1.0615                 1.0797                 1.0798
 Frc consts  --      1.4388                 1.4708                 1.4736
 IR Inten    --      8.1465                10.4749                 8.5316

                     88                     89                     90
                      A                      A                      A
 Frequencies --   1527.0522              1531.5264              1536.2736
 Red. masses --      1.0538                 1.0920                 1.0878
 Frc consts  --      1.4479                 1.5091                 1.5126
 IR Inten    --      4.4196                11.5297                15.1434

                     91                     92                     93
                      A                      A                      A
 Frequencies --   1537.5172              1539.8236              1541.5229
 Red. masses --      1.0526                 1.0555                 1.1136
 Frc consts  --      1.4660                 1.4746                 1.5592
 IR Inten    --      3.2210                10.0900                 2.3868

                     94                     95                     96
                      A                      A                      A
 Frequencies --   1796.1390              2892.8332              2901.9550
 Red. masses --     11.2179                 1.0739                 1.0721
 Frc consts  --     21.3226                 5.2951                 5.3197
 IR Inten    --    115.7961                27.3269                82.4724

                     97                     98                     99
                      A                      A                      A
 Frequencies --   2936.0298              2990.5091              2995.9096
 Red. masses --      1.0624                 1.0810                 1.0825
 Frc consts  --      5.3959                 5.6958                 5.7243
 IR Inten    --    138.8736                14.7645                24.2853

                    100                    101                    102
                      A                      A                      A
 Frequencies --   3036.7446              3047.0329              3049.0442
 Red. masses --      1.0620                 1.0552                 1.0440
 Frc consts  --      5.7701                 5.7722                 5.7183
 IR Inten    --     49.0641                 4.2291                22.8149

                    103                    104                    105
                      A                      A                      A
 Frequencies --   3052.2576              3058.7174              3065.0040
 Red. masses --      1.0663                 1.0359                 1.0651
 Frc consts  --      5.8531                 5.7103                 5.8955
 IR Inten    --     48.6232                25.6195                42.8063

                    106                    107                    108
                      A                      A                      A
 Frequencies --   3070.1680              3071.8370              3072.8394
 Red. masses --      1.0839                 1.0592                 1.0791
 Frc consts  --      6.0195                 5.8890                 6.0030
 IR Inten    --     66.0670                18.1880                18.2847

                    109                    110                    111
                      A                      A                      A
 Frequencies --   3074.7202              3077.4804              3093.8012
 Red. masses --      1.1026                 1.0780                 1.0997
 Frc consts  --      6.1416                 6.0152                 6.2018
 IR Inten    --     16.5723                58.7503                58.2396

                    112                    113                    114
                      A                      A                      A
 Frequencies --   3111.0067              3115.2295              3119.0236
 Red. masses --      1.0992                 1.1004                 1.1040
 Frc consts  --      6.2680                 6.2920                 6.3279
 IR Inten    --     31.7580                31.1829                32.2313

                    115                    116                    117
                      A                      A                      A
 Frequencies --   3120.1490              3120.6047              3128.5759
 Red. masses --      1.1035                 1.0970                 1.1029
 Frc consts  --      6.3295                 6.2943                 6.3601
 IR Inten    --     11.7182                16.5596                38.4094

                    118                    119                    120
                      A                      A                      A
 Frequencies --   3129.3108              3146.7357              3572.8687
 Red. masses --      1.1018                 1.1039                 1.0735
 Frc consts  --      6.3573                 6.4403                 8.0737
 IR Inten    --     26.7032                36.6990                 5.1259

 - Thermochemistry -
 -------------------
 Temperature   298.150 Kelvin.  Pressure   1.00000 Atm.
 Atom     1 has atomic number  6 and mass  12.00000

 Molecular mass:   226.20451 amu.
 Principal axes and moments of inertia in atomic units:
                           1         2         3
     Eigenvalues --  2800.824455171.234066380.77124
           X            0.99978   0.01829   0.00994
           Y           -0.01797   0.99935  -0.03127
           Z           -0.01051   0.03108   0.99946
 This molecule is an asymmetric top.
 Rotational symmetry number  1.
 Warning -- assumption of classical behavior for rotation
           may cause significant error
 Rotational temperatures (Kelvin)      0.03092     0.01675     0.01357
 Rotational constants (GHZ):           0.64436     0.34900     0.28284
 Zero-point vibrational energy    1015029.7 (Joules/Mol)
                                  242.59791 (Kcal/Mol)
 Warning -- explicit consideration of  27 degrees of freedom as
           vibrations may cause significant error
 Vibrational temperatures:     54.78    69.91    79.64   106.71   111.27
          (Kelvin)            137.45   159.94   226.59   266.29   303.29
                              336.22   340.84   345.33   357.38   385.04
                              406.52   463.45   495.49   528.18   547.57
                              552.22   597.70   635.17   681.79   725.91
                              779.32   836.86   895.92   976.57  1004.38
                             1118.69  1137.21  1149.61  1167.30  1196.57
                             1217.61  1300.22  1309.18  1318.10  1397.64
                             1420.58  1447.76  1463.54  1489.73  1504.34
                             1542.22  1552.72  1574.35  1582.81  1606.75
                             1629.55  1642.57  1674.51  1698.53  1708.01
                             1714.92  1725.91  1730.06  1769.66  1826.13
                             1863.68  1879.66  1894.16  1906.67  1916.66
                             1931.60  1953.91  1958.52  1963.69  1997.20
                             2010.90  2017.15  2028.45  2038.85  2046.88
                             2054.54  2065.23  2068.34  2137.45  2150.09
                             2162.77  2164.52  2168.68  2180.78  2182.30
                             2187.71  2189.73  2197.09  2203.52  2210.36
                             2212.14  2215.46  2217.91  2584.24  4162.14
                             4175.27  4224.29  4302.68  4310.45  4369.20
                             4384.00  4386.89  4391.52  4400.81  4409.86
                             4417.29  4419.69  4421.13  4423.84  4427.81
                             4451.29  4476.04  4482.12  4487.58  4489.20
                             4489.85  4501.32  4502.38  4527.45  5140.56

 Zero-point correction=                           0.386604 (Hartree/Particle)
 Thermal correction to Energy=                    0.404535
 Thermal correction to Enthalpy=                  0.405480
 Thermal correction to Gibbs Free Energy=         0.340764
 Sum of electronic and zero-point Energies=           -695.442035
 Sum of electronic and thermal Energies=              -695.424104
 Sum of electronic and thermal Enthalpies=            -695.423160
 Sum of electronic and thermal Free Energies=         -695.487875

                     E (Thermal)             CV                S
                      KCal/Mol        Cal/Mol-Kelvin    Cal/Mol-Kelvin
 Total                  253.850             68.134            136.205
 Electronic               0.000              0.000              0.000
 Translational            0.889              2.981             42.151
 Rotational               0.889              2.981             32.891
 Vibrational            252.072             62.172             61.163
 Vibration     1          0.594              1.982              5.357
 Vibration     2          0.595              1.978              4.874
 Vibration     3          0.596              1.975              4.616
 Vibration     4          0.599              1.966              4.040
 Vibration     5          0.599              1.964              3.957
 Vibration     6          0.603              1.952              3.544
 Vibration     7          0.607              1.940              3.248
 Vibration     8          0.621              1.894              2.580
 Vibration     9          0.631              1.860              2.277
 Vibration    10          0.643              1.824              2.037
 Vibration    11          0.654              1.789              1.850
 Vibration    12          0.656              1.784              1.826
 Vibration    13          0.657              1.779              1.803
 Vibration    14          0.662              1.765              1.742
 Vibration    15          0.673              1.733              1.612
 Vibration    16          0.682              1.706              1.518
 Vibration    17          0.707              1.631              1.299
 Vibration    18          0.723              1.587              1.192
 Vibration    19          0.740              1.540              1.092
 Vibration    20          0.750              1.512              1.037
 Vibration    21          0.753              1.505              1.024
 Vibration    22          0.779              1.437              0.908
 Vibration    23          0.801              1.380              0.822
 Vibration    24          0.831              1.308              0.727
 Vibration    25          0.860              1.240              0.647
 Vibration    26          0.897              1.158              0.562
 Vibration    27          0.938              1.071              0.482

                           ! Non-Optimized Parameters !
 Normal termination of Gaussian 16 at Fri Dec 11 00:18:27 2020.

 ----------------------------------------------------------------------
 # B3LYP/6-311++G(d,p) empiricaldispersion=gd3bj scf=xqc pop=npa geom=c
 heck
 ----------------------------------------------------------------------

 --------------------------------------
 CID_71154625_JID_6598_Energie_neutraal
 --------------------------------------
 Structure from the checkpoint file:  "JID_6598.chk"
 Charge =  0 Multiplicity = 1

 SCF Done:  E(RB3LYP) =  -696.026012531     A.U. after   15 cycles
 Normal termination of Gaussian 16 at Fri Dec 11 00:26:36 2020.

 ----------------------------------------------------------------------
 # B3LYP/6-311++G(d,p) empiricaldispersion=gd3bj scf=xqc pop=npa geom=c
 heck
 ----------------------------------------------------------------------

 ------------------------------------
 CID_71154625_JID_6598_Energie_kation
 ------------------------------------
 Structure from the checkpoint file:  "JID_6598.chk"
 Charge =  1 Multiplicity = 2

 SCF Done:  E(UB3LYP) =  -695.747532610     A.U. after   26 cycles
 Normal termination of Gaussian 16 at Fri Dec 11 00:45:26 2020.
 Gaussian 16:  ES64L-G16RevA.03 25-Dec-2016

 ----------------------------------------------------------------------
 # B3LYP/6-311++G(d,p) empiricaldispersion=gd3bj scf=xqc pop=npa geom=c
 heck
 ----------------------------------------------------------------------

 -----------------------------------
 CID_71154625_JID_6598_Energie_anion
 -----------------------------------
 Structure from the checkpoint file:  "JID_6598.chk"
 Charge = -1 Multiplicity = 2

                         Standard orientation:
 ---------------------------------------------------------------------
 Center     Atomic      Atomic             Coordinates (Angstroms)
 Number     Number       Type             X           Y           Z
 ---------------------------------------------------------------------
      1          6           0        2.035970   -2.341940    1.626631
      2          6           0        2.957495   -1.694832    0.578161
      3          6           0        2.158101   -1.169308   -0.602730
      4          8           0        1.885820   -1.894143   -1.544092
      5          6           0        1.751618    0.322973   -0.594900
      6          6           0        0.610271    0.609871   -1.597308
      7          6           0       -0.842484    0.274202   -1.185801
      8          6           0       -1.548535    1.383552   -0.385884
      9          6           0       -3.003233    1.010830   -0.101009
     10          7           0       -3.081340   -0.254086    0.624110
     11          6           0       -2.491650   -1.340264   -0.155713
     12          6           0       -1.018805   -1.069724   -0.462536
     13          6           0       -4.447244   -0.560482    1.013570
     14          7           0        1.615125    0.817796    0.773862
     15          6           0        2.205053    2.117621    1.083002
     16          6           0        1.641073    3.340457    0.345465
     17          1           0        1.386293   -1.589811    2.082228
     18          1           0        2.629066   -2.808459    2.420380
     19          1           0        1.411624   -3.115176    1.166959
     20          1           0        3.524782   -0.885217    1.045427
     21          1           0        3.649488   -2.446550    0.184101
     22          1           0        2.652089    0.810009   -1.005222
     23          1           0        0.647155    1.668498   -1.878509
     24          1           0        0.852275    0.032180   -2.494232
     25          1           0       -1.401709    0.192876   -2.131030
     26          1           0       -1.510254    2.329742   -0.940588
     27          1           0       -1.050639    1.558176    0.574405
     28          1           0       -3.565183    0.961303   -1.058334
     29          1           0       -3.480086    1.787581    0.508521
     30          1           0       -2.589422   -2.267975    0.420126
     31          1           0       -3.043241   -1.492327   -1.107906
     32          1           0       -0.609518   -1.883031   -1.068398
     33          1           0       -0.466143   -1.068408    0.485870
     34          1           0       -5.127749   -0.689833    0.148387
     35          1           0       -4.465517   -1.486143    1.598923
     36          1           0       -4.844078    0.247338    1.638157
     37          1           0        0.650620    0.774726    1.080420
     38          1           0        2.100335    2.267256    2.164640
     39          1           0        3.283468    2.042769    0.889341
     40          1           0        0.566191    3.450392    0.526448
     41          1           0        2.138207    4.256316    0.687401
     42          1           0        1.793118    3.263209   -0.736281
 ---------------------------------------------------------------------

 SCF Done:  E(UB3LYP) =  -696.014462230     A.U. after   33 cycles
 SCF Done:  E(UB3LYP) =  -696.014462230     a.u. after    1 cycles

 The electronic state is 2-A.
 Alpha  occ. eigenvalues --  -18.99518 -14.21550 -14.19604 -10.13588 -10.10351
 Alpha  occ. eigenvalues --  -10.10021 -10.09944 -10.09932 -10.09396 -10.07940
 Alpha  occ. eigenvalues --  -10.07092 -10.06660 -10.06558 -10.06539 -10.06260
 Alpha  occ. eigenvalues --  -10.05799  -0.93025  -0.84068  -0.80987  -0.71852
 Alpha  occ. eigenvalues --   -0.67590  -0.66255  -0.65804  -0.62870  -0.59796
 Alpha  occ. eigenvalues --   -0.55979  -0.53695  -0.53141  -0.51125  -0.49018
 Alpha  occ. eigenvalues --   -0.46042  -0.43247  -0.39818  -0.38414  -0.37662
 Alpha  occ. eigenvalues --   -0.37220  -0.36683  -0.35955  -0.34647  -0.34289
 Alpha  occ. eigenvalues --   -0.33339  -0.32408  -0.32219  -0.31391  -0.30580
 Alpha  occ. eigenvalues --   -0.30072  -0.29844  -0.28895  -0.28271  -0.27359
 Alpha  occ. eigenvalues --   -0.26917  -0.26494  -0.25988  -0.25750  -0.24307
 Alpha  occ. eigenvalues --   -0.24071  -0.23794  -0.22186  -0.21408  -0.21040
 Alpha  occ. eigenvalues --   -0.15340  -0.13271  -0.11452   0.04202
 Alpha virt. eigenvalues --    0.05764   0.06532   0.07394   0.07725   0.07903
 Alpha virt. eigenvalues --    0.08447   0.09038   0.09353   0.09754   0.10213
 Alpha virt. eigenvalues --    0.10432   0.10788   0.11266   0.11931   0.12199

  Beta  occ. eigenvalues --  -18.99400 -14.21543 -14.19595 -10.13442 -10.10359
  Beta  occ. eigenvalues --  -10.10016 -10.09926 -10.09918 -10.09369 -10.07939
  Beta  occ. eigenvalues --  -10.07082 -10.06653 -10.06549 -10.06543 -10.06226
  Beta  occ. eigenvalues --  -10.05765  -0.92784  -0.84052  -0.80959  -0.71837
  Beta  occ. eigenvalues --   -0.67488  -0.66234  -0.65767  -0.62829  -0.59737
  Beta  occ. eigenvalues --   -0.55871  -0.53664  -0.53081  -0.51051  -0.48969
  Beta  occ. eigenvalues --   -0.46016  -0.43076  -0.39784  -0.38320  -0.37615
  Beta  occ. eigenvalues --   -0.37162  -0.36650  -0.35910  -0.34611  -0.34232
  Beta  occ. eigenvalues --   -0.33268  -0.32356  -0.32077  -0.31334  -0.30525
  Beta  occ. eigenvalues --   -0.30036  -0.29759  -0.28832  -0.28228  -0.27306
  Beta  occ. eigenvalues --   -0.26837  -0.26434  -0.25953  -0.25722  -0.24164
  Beta  occ. eigenvalues --   -0.23810  -0.23755  -0.22157  -0.21343  -0.20962
  Beta  occ. eigenvalues --   -0.15269  -0.13236  -0.11401
  Beta virt. eigenvalues --    0.06088   0.06676   0.07165   0.07750   0.08290
  Beta virt. eigenvalues --    0.08343   0.08849   0.09515   0.09674   0.10042
  Beta virt. eigenvalues --    0.10433   0.10764   0.11145   0.11396   0.11915

 Mulliken charges and spin densities:
               1          2
     1  C    0.071235  -0.648065
     2  C   -0.159556  -0.116187
     3  C    0.183927   0.023233
     4  O   -0.269377   0.044981
     5  C   -0.178257  -0.125860
     6  C    0.284493  -0.675903
     7  C    0.137018   0.034148
     8  C   -0.631872   0.472746
     9  C    0.448778  -1.145239
    10  N    0.071167   0.095890
    11  C   -0.561023  -0.191024
    12  C   -0.416508   0.217078
    13  C    0.280851  -0.550709
    14  N   -0.010212   0.021520
    15  C   -0.232991   0.046165
    16  C    0.724403  -1.231025
    17  H   -0.123502   0.293599
    18  H   -0.268187   0.420157
    19  H    0.151086  -0.011629
    20  H    0.007813   0.122388
    21  H   -0.050544   0.231450
    22  H   -0.220387   0.438022
    23  H    0.136975  -0.007102
    24  H    0.118719   0.096398
    25  H    0.125936   0.025434
    26  H   -0.200871   0.365476
    27  H    0.136678   0.019727
    28  H    0.091118   0.007753
    29  H   -0.306740   0.482680
    30  H    0.063614   0.103061
    31  H    0.087916   0.016889
    32  H    0.150787   0.039117
    33  H    0.316893  -0.154974
    34  H   -0.027909   0.124099
    35  H   -0.044225   0.169208
    36  H   -0.137985   0.277161
    37  H    0.335724  -0.160285
    38  H   -0.351304   0.513242
    39  H   -0.017364   0.157823
    40  H   -0.048640   0.183437
    41  H   -0.548374   0.710516
    42  H   -0.119305   0.264602
 Sum of Mulliken charges =  -1.00000   1.00000

 Dipole moment (field-independent basis, Debye):
    X=             -2.8063    Y=             -2.7182    Z=             -2.3652  Tot=              4.5671
 Quadrupole moment (field-independent basis, Debye-Ang):
   XX=           -172.0102   YY=           -163.6833   ZZ=           -141.7539
   XY=              2.9292   XZ=              2.9180   YZ=             -4.6228

 Summary of Natural Population Analysis:

                                       Natural Population
                Natural  -----------------------------------------------
    Atom  No    Charge         Core      Valence    Rydberg      Total
 -----------------------------------------------------------------------
      C    1   -0.27950      0.99965     2.27463    0.00521     3.27950
      C    2   -0.23628      0.99959     2.22778    0.00891     3.23628
      C    3    0.31778      0.99964     1.65991    0.02267     2.68222
      O    4   -0.29334      0.99987     3.28717    0.00630     4.29334
      C    5   -0.05456      0.99953     2.04115    0.01389     3.05456
      C    6   -0.19550      0.99959     2.18513    0.01079     3.19550
      C    7   -0.10941      0.99958     2.10012    0.00970     3.10941
      C    8   -0.19177      0.99960     2.18230    0.00987     3.19177
      C    9   -0.08290      0.99961     2.07051    0.01278     3.08290
      N   10   -0.27916      0.99971     2.76795    0.01150     3.77916
      C   11   -0.07793      0.99962     2.06940    0.00892     3.07793
      C   12   -0.20025      0.99960     2.19293    0.00771     3.20025
      C   13   -0.17522      0.99965     2.16710    0.00848     3.17522
      N   14   -0.35092      0.99974     2.83933    0.01185     3.85092
      C   15   -0.08135      0.99963     2.07066    0.01106     3.08135
      C   16   -0.29628      0.99966     2.29182    0.00480     3.29628
      H   17    0.10200      0.00000     0.39666    0.00134     0.39800
      H   18    0.09798      0.00000     0.40097    0.00105     0.40202
      H   19    0.09660      0.00000     0.40246    0.00094     0.40340
      H   20    0.10700      0.00000     0.39152    0.00147     0.39300
      H   21    0.10258      0.00000     0.39619    0.00123     0.39742
      H   22    0.11171      0.00000     0.38660    0.00169     0.38829
      H   23    0.09857      0.00000     0.40024    0.00119     0.40143
      H   24    0.11150      0.00000     0.38746    0.00104     0.38850
      H   25    0.09374      0.00000     0.40456    0.00170     0.40626
      H   26    0.10006      0.00000     0.39886    0.00108     0.39994
      H   27    0.09396      0.00000     0.40357    0.00247     0.40604
      H   28    0.07542      0.00000     0.42296    0.00162     0.42458
      H   29    0.09845      0.00000     0.40023    0.00132     0.40155
      H   30    0.09541      0.00000     0.40342    0.00117     0.40459
      H   31    0.07551      0.00000     0.42297    0.00152     0.42449
      H   32    0.11110      0.00000     0.38794    0.00096     0.38890
      H   33    0.09743      0.00000     0.40035    0.00222     0.40257
      H   34    0.07787      0.00000     0.42074    0.00139     0.42213
      H   35    0.09417      0.00000     0.40480    0.00103     0.40583
      H   36    0.09656      0.00000     0.40229    0.00115     0.40344
      H   37    0.17575      0.00000     0.32032    0.00393     0.32425
      H   38    0.09207      0.00000     0.40688    0.00105     0.40793
      H   39    0.08843      0.00000     0.41015    0.00142     0.41157
      H   40    0.09703      0.00000     0.40145    0.00152     0.40297
      H   41    0.09975      0.00000     0.39881    0.00144     0.40025
      H   42    0.09597      0.00000     0.40275    0.00129     0.40403
 =======================================================================
   * Total *    0.00000     15.99428    46.80305    0.20267    63.00000

 Normal termination of Gaussian 16 at Fri Dec 11 01:10:28 2020.
