 Gaussian 16, Revision A.03,

 -----------------------------------------------------------
 # opt freq B3LYP/6-31G(d) empiricaldispersion=gd3bj scf=xqc
 -----------------------------------------------------------

 --------------------------------
 CID_151435637_JID_10844_neutraal
 --------------------------------
 Symbolic Z-matrix:
 Charge =  0 Multiplicity = 1

 SCF Done:  E(RB3LYP) =  -969.577738052     A.U. after   16 cycles
 SCF Done:  E(RB3LYP) =  -969.585621223     A.U. after   14 cycles
 SCF Done:  E(RB3LYP) =  -969.585612147     A.U. after   14 cycles
 SCF Done:  E(RB3LYP) =  -969.584551438     A.U. after   14 cycles
 SCF Done:  E(RB3LYP) =  -969.585630203     A.U. after   13 cycles
 SCF Done:  E(RB3LYP) =  -969.587609535     A.U. after   11 cycles
 SCF Done:  E(RB3LYP) =  -969.589077071     A.U. after   13 cycles
 SCF Done:  E(RB3LYP) =  -969.589122882     A.U. after   14 cycles
 SCF Done:  E(RB3LYP) =  -969.590322020     A.U. after   13 cycles
 SCF Done:  E(RB3LYP) =  -969.589796296     A.U. after   14 cycles
 SCF Done:  E(RB3LYP) =  -969.591239506     A.U. after   11 cycles
 SCF Done:  E(RB3LYP) =  -969.591241751     A.U. after   10 cycles
 SCF Done:  E(RB3LYP) =  -969.591242497     A.U. after    8 cycles
 SCF Done:  E(RB3LYP) =  -969.591242708     A.U. after    8 cycles
 Optimization completed.
    -- Stationary point found.
 Normal termination of Gaussian 16 at Sun Dec 13 13:30:12 2020.

 --------------------------------------------------------------------
 #N Geom=AllCheck Guess=TCheck SCRF=Check GenChk RB3LYP/6-31G(d) Freq
 --------------------------------------------------------------------

 Structure from the checkpoint file:  "JID_10844.chk"
 --------------------------------
 CID_151435637_JID_10844_neutraal
 --------------------------------
 Charge =  0 Multiplicity = 1

 SCF Done:  E(RB3LYP) =  -969.591242708     A.U. after    1 cycles

  Exact polarizability: 172.631  19.229 155.901 -13.816   0.053 142.324
 Approx polarizability: 273.664  57.458 224.808 -45.898  -3.264 249.866

                      1                      2                      3
                      A                      A                      A
 Frequencies --     17.2656                38.8934                45.0250
 Red. masses --      5.1867                 4.8587                 5.2959
 Frc consts  --      0.0009                 0.0043                 0.0063
 IR Inten    --      0.0666                 0.3019                 0.4734

                      4                      5                      6
                      A                      A                      A
 Frequencies --     51.8716                57.4337                70.4223
 Red. masses --      5.8288                 6.4759                 7.3733
 Frc consts  --      0.0092                 0.0126                 0.0215
 IR Inten    --      0.0452                 0.4501                 0.6385

                      7                      8                      9
                      A                      A                      A
 Frequencies --     74.4319               101.2753               104.8772
 Red. masses --      4.9456                 4.5010                 3.8207
 Frc consts  --      0.0161                 0.0272                 0.0248
 IR Inten    --      0.7126                 1.3137                 1.9370

                     10                     11                     12
                      A                      A                      A
 Frequencies --    121.3076               161.7196               188.4000
 Red. masses --      4.8892                 5.2732                 5.8942
 Frc consts  --      0.0424                 0.0813                 0.1233
 IR Inten    --      0.5083                 0.2823                 0.4654

                     13                     14                     15
                      A                      A                      A
 Frequencies --    207.9598               241.7884               264.8479
 Red. masses --      5.3797                 1.2765                 6.9792
 Frc consts  --      0.1371                 0.0440                 0.2884
 IR Inten    --      5.1661                 2.5211                 1.0495

                     16                     17                     18
                      A                      A                      A
 Frequencies --    293.6435               310.7348               335.3984
 Red. masses --      5.4288                 2.5887                 2.9697
 Frc consts  --      0.2758                 0.1473                 0.1968
 IR Inten    --      0.6743                 1.7927                14.3660

                     19                     20                     21
                      A                      A                      A
 Frequencies --    347.8924               369.3350               417.2444
 Red. masses --      2.6098                 7.2905                 3.0589
 Frc consts  --      0.1861                 0.5859                 0.3138
 IR Inten    --     12.0536                 7.6579                 0.4986

                     22                     23                     24
                      A                      A                      A
 Frequencies --    421.9843               451.5358               461.9680
 Red. masses --      5.0697                 4.4962                 3.0666
 Frc consts  --      0.5319                 0.5401                 0.3856
 IR Inten    --     17.2412                 2.9691                 2.4098

                     25                     26                     27
                      A                      A                      A
 Frequencies --    496.2533               569.7654               584.2929
 Red. masses --      4.6006                13.2606                 5.3459
 Frc consts  --      0.6675                 2.5363                 1.0753
 IR Inten    --      3.5454                 8.7340                19.0013

                     28                     29                     30
                      A                      A                      A
 Frequencies --    628.5084               636.4050               670.7619
 Red. masses --      4.2499                 6.3534                 4.4476
 Frc consts  --      0.9891                 1.5161                 1.1790
 IR Inten    --      5.4019                 0.0205                 1.6799

                     31                     32                     33
                      A                      A                      A
 Frequencies --    697.4613               715.4259               727.6535
 Red. masses --      6.6478                 2.3293                 3.6212
 Frc consts  --      1.9053                 0.7024                 1.1297
 IR Inten    --     29.1822                14.9379                 3.0157

                     34                     35                     36
                      A                      A                      A
 Frequencies --    755.5650               789.2417               817.2634
 Red. masses --      1.5652                 3.5449                 1.5456
 Frc consts  --      0.5265                 1.3010                 0.6083
 IR Inten    --     31.8000                16.1491                 5.4009

                     37                     38                     39
                      A                      A                      A
 Frequencies --    831.7672               867.8572               870.5357
 Red. masses --      3.8677                 1.3025                 3.2496
 Frc consts  --      1.5765                 0.5780                 1.4510
 IR Inten    --      5.0925                 0.2477                 4.7127

                     40                     41                     42
                      A                      A                      A
 Frequencies --    873.9730               931.2754               937.0411
 Red. masses --      2.6729                 1.3876                 3.1082
 Frc consts  --      1.2029                 0.7091                 1.6079
 IR Inten    --      9.2592                 1.3624                12.3991

                     43                     44                     45
                      A                      A                      A
 Frequencies --    967.9579               980.2824               996.3399
 Red. masses --      5.4474                 1.3334                 2.9692
 Frc consts  --      3.0071                 0.7550                 1.7366
 IR Inten    --     16.9670                 0.1593                20.5526

                     46                     47                     48
                      A                      A                      A
 Frequencies --   1002.9539              1021.5631              1028.5468
 Red. masses --      1.2981                 4.6714                 3.0537
 Frc consts  --      0.7693                 2.8723                 1.9034
 IR Inten    --      0.1100                 8.1285                28.6281

                     49                     50                     51
                      A                      A                      A
 Frequencies --   1041.9905              1052.4443              1061.9649
 Red. masses --      3.8021                 2.6997                 2.2259
 Frc consts  --      2.4322                 1.7618                 1.4790
 IR Inten    --     61.1930                31.3605                 1.0274

                     52                     53                     54
                      A                      A                      A
 Frequencies --   1078.8143              1123.7760              1133.7549
 Red. masses --      4.2031                 1.5611                 1.9533
 Frc consts  --      2.8821                 1.1615                 1.4793
 IR Inten    --      3.4979                 0.5222                34.3426

                     55                     56                     57
                      A                      A                      A
 Frequencies --   1178.1363              1195.6927              1210.6272
 Red. masses --      1.5060                 1.0990                 2.0542
 Frc consts  --      1.2316                 0.9257                 1.7738
 IR Inten    --     84.2569                 0.0841               160.5039

                     58                     59                     60
                      A                      A                      A
 Frequencies --   1211.8917              1220.9539              1240.2879
 Red. masses --      1.8433                 1.2869                 2.9447
 Frc consts  --      1.5950                 1.1303                 2.6689
 IR Inten    --     51.9348                34.0911                16.8783

                     61                     62                     63
                      A                      A                      A
 Frequencies --   1257.0402              1301.8254              1306.0097
 Red. masses --      2.0084                 1.3903                 1.6939
 Frc consts  --      1.8698                 1.3883                 1.7023
 IR Inten    --    330.8958                14.9204                50.8736

                     64                     65                     66
                      A                      A                      A
 Frequencies --   1343.3233              1347.5636              1357.6141
 Red. masses --      1.1289                 3.3381                 2.5375
 Frc consts  --      1.2003                 3.5714                 2.7555
 IR Inten    --     10.6993               110.1294                 2.6564

                     67                     68                     69
                      A                      A                      A
 Frequencies --   1373.3349              1383.1020              1402.5046
 Red. masses --      1.6641                 1.5279                 1.4070
 Frc consts  --      1.8492                 1.7221                 1.6307
 IR Inten    --      1.2482               117.4252                 0.7421

                     70                     71                     72
                      A                      A                      A
 Frequencies --   1423.3307              1425.5268              1444.9908
 Red. masses --      1.3823                 1.4586                 1.3246
 Frc consts  --      1.6499                 1.7464                 1.6295
 IR Inten    --     27.5932                 9.2549                 6.2179

                     73                     74                     75
                      A                      A                      A
 Frequencies --   1503.2329              1504.1781              1512.2532
 Red. masses --      1.1231                 1.8198                 1.1888
 Frc consts  --      1.4953                 2.4259                 1.6018
 IR Inten    --      9.8015                 2.4372                20.1028

                     76                     77                     78
                      A                      A                      A
 Frequencies --   1518.2724              1520.5925              1537.7615
 Red. masses --      1.0723                 1.0662                 1.0652
 Frc consts  --      1.4563                 1.4524                 1.4841
 IR Inten    --      5.8539                 7.0854                14.0896

                     79                     80                     81
                      A                      A                      A
 Frequencies --   1551.8414              1649.9702              1670.1956
 Red. masses --      2.1897                 5.5300                 5.4863
 Frc consts  --      3.1069                 8.8700                 9.0170
 IR Inten    --      5.2871                 0.6539                 0.3335

                     82                     83                     84
                      A                      A                      A
 Frequencies --   1822.4543              1841.3942              2270.8149
 Red. masses --     11.0344                12.1271                13.9124
 Frc consts  --     21.5929                24.2271                42.2683
 IR Inten    --    209.6667               157.3391               415.0668

                     85                     86                     87
                      A                      A                      A
 Frequencies --   3063.8037              3080.1256              3094.8701
 Red. masses --      1.0361                 1.0609                 1.0574
 Frc consts  --      5.7302                 5.9299                 5.9670
 IR Inten    --     12.3200                 2.9738                25.8423

                     88                     89                     90
                      A                      A                      A
 Frequencies --   3100.7233              3118.7346              3129.8877
 Red. masses --      1.0593                 1.0862                 1.1011
 Frc consts  --      6.0008                 6.2245                 6.3551
 IR Inten    --     24.6611                 2.7348                33.9677

                     91                     92                     93
                      A                      A                      A
 Frequencies --   3139.0333              3145.2159              3146.9487
 Red. masses --      1.1020                 1.1042                 1.1092
 Frc consts  --      6.3978                 6.4358                 6.4717
 IR Inten    --      4.0830                11.1237                 4.1598

                     94                     95                     96
                      A                      A                      A
 Frequencies --   3164.6029              3183.4729              3189.6527
 Red. masses --      1.1084                 1.0855                 1.0883
 Frc consts  --      6.5403                 6.4815                 6.5237
 IR Inten    --     21.3404                 3.2604                 3.7127

                     97                     98                     99
                      A                      A                      A
 Frequencies --   3199.9736              3211.8117              3221.7893
 Red. masses --      1.0923                 1.0964                 1.0933
 Frc consts  --      6.5899                 6.6639                 6.6864
 IR Inten    --     28.8572                19.4795                 4.9538

 - Thermochemistry -
 -------------------
 Temperature   298.150 Kelvin.  Pressure   1.00000 Atm.
 Atom     1 has atomic number  6 and mass  12.00000

 Molecular mass:   277.10626 amu.
 Principal axes and moments of inertia in atomic units:
                           1         2         3
     Eigenvalues --  4893.317685760.874158626.10370
           X            0.99784   0.06563  -0.00034
           Y           -0.06563   0.99784   0.00176
           Z            0.00046  -0.00174   1.00000
 This molecule is an asymmetric top.
 Rotational symmetry number  1.
 Warning -- assumption of classical behavior for rotation
           may cause significant error
 Rotational temperatures (Kelvin)      0.01770     0.01503     0.01004
 Rotational constants (GHZ):           0.36882     0.31328     0.20922
 Zero-point vibrational energy     728322.8 (Joules/Mol)
                                  174.07332 (Kcal/Mol)
 Warning -- explicit consideration of  27 degrees of freedom as
           vibrations may cause significant error
 Vibrational temperatures:     24.84    55.96    64.78    74.63    82.63
          (Kelvin)            101.32   107.09   145.71   150.89   174.53
                              232.68   271.07   299.21   347.88   381.06
                              422.49   447.08   482.56   500.54   531.39
                              600.32   607.14   649.66   664.67   714.00
                              819.77   840.67   904.28   915.64   965.08
                             1003.49  1029.34  1046.93  1087.09  1135.54
                             1175.86  1196.73  1248.65  1252.51  1257.45
                             1339.90  1348.19  1392.68  1410.41  1433.51
                             1443.03  1469.80  1479.85  1499.19  1514.23
                             1527.93  1552.17  1616.86  1631.22  1695.08
                             1720.34  1741.82  1743.64  1756.68  1784.50
                             1808.60  1873.04  1879.06  1932.74  1938.84
                             1953.30  1975.92  1989.98  2017.89  2047.86
                             2051.02  2079.02  2162.82  2164.18  2175.80
                             2184.46  2187.79  2212.50  2232.75  2373.94
                             2403.04  2622.11  2649.36  3267.20  4408.13
                             4431.61  4452.83  4461.25  4487.16  4503.21
                             4516.37  4525.26  4527.76  4553.16  4580.31
                             4589.20  4604.05  4621.08  4635.44

 Zero-point correction=                           0.277403 (Hartree/Particle)
 Thermal correction to Energy=                    0.296480
 Thermal correction to Enthalpy=                  0.297424
 Thermal correction to Gibbs Free Energy=         0.227164
 Sum of electronic and zero-point Energies=           -969.313839
 Sum of electronic and thermal Energies=              -969.294763
 Sum of electronic and thermal Enthalpies=            -969.293819
 Sum of electronic and thermal Free Energies=         -969.364079

                     E (Thermal)             CV                S
                      KCal/Mol        Cal/Mol-Kelvin    Cal/Mol-Kelvin
 Total                  186.044             69.435            147.876
 Electronic               0.000              0.000              0.000
 Translational            0.889              2.981             42.756
 Rotational               0.889              2.981             33.852
 Vibrational            184.267             63.473             71.267
 Vibration     1          0.593              1.986              6.926
 Vibration     2          0.594              1.981              5.315
 Vibration     3          0.595              1.979              5.025
 Vibration     4          0.596              1.977              4.745
 Vibration     5          0.596              1.975              4.543
 Vibration     6          0.598              1.968              4.142
 Vibration     7          0.599              1.966              4.033
 Vibration     8          0.604              1.948              3.430
 Vibration     9          0.605              1.945              3.362
 Vibration    10          0.609              1.931              3.079
 Vibration    11          0.622              1.889              2.530
 Vibration    12          0.633              1.856              2.244
 Vibration    13          0.641              1.829              2.062
 Vibration    14          0.658              1.776              1.790
 Vibration    15          0.671              1.737              1.630
 Vibration    16          0.688              1.686              1.453
 Vibration    17          0.700              1.653              1.358
 Vibration    18          0.717              1.605              1.234
 Vibration    19          0.726              1.580              1.176
 Vibration    20          0.742              1.535              1.083
 Vibration    21          0.780              1.433              0.901
 Vibration    22          0.784              1.422              0.885
 Vibration    23          0.810              1.357              0.791
 Vibration    24          0.820              1.334              0.760
 Vibration    25          0.852              1.258              0.668
 Vibration    26          0.926              1.097              0.505
 Vibration    27          0.941              1.065              0.477

 Optimization completed.
    -- Stationary point found.
 Normal termination of Gaussian 16 at Sun Dec 13 13:48:38 2020.

 ----------------------------------------------------------------------
 # B3LYP/6-311++G(d,p) empiricaldispersion=gd3bj scf=xqc pop=npa geom=c
 heck
 ----------------------------------------------------------------------

 ----------------------------------------
 CID_151435637_JID_10844_Energie_neutraal
 ----------------------------------------
 Structure from the checkpoint file:  "JID_10844.chk"
 Charge =  0 Multiplicity = 1

 SCF Done:  E(RB3LYP) =  -969.863283393     A.U. after   16 cycles
 Normal termination of Gaussian 16 at Sun Dec 13 13:55:30 2020.

 ----------------------------------------------------------------------
 # B3LYP/6-311++G(d,p) empiricaldispersion=gd3bj scf=xqc pop=npa geom=c
 heck
 ----------------------------------------------------------------------

 --------------------------------------
 CID_151435637_JID_10844_Energie_kation
 --------------------------------------
 Structure from the checkpoint file:  "JID_10844.chk"
 Charge =  1 Multiplicity = 2

 SCF Done:  E(UB3LYP) =  -969.542418521     A.U. after   33 cycles
 SCF Done:  E(UB3LYP) =  -969.542418521     a.u. after    1 cycles
 Normal termination of Gaussian 16 at Sun Dec 13 14:15:45 2020.
 Gaussian 16:  ES64L-G16RevA.03 25-Dec-2016

 ----------------------------------------------------------------------
 # B3LYP/6-311++G(d,p) empiricaldispersion=gd3bj scf=xqc pop=npa geom=c
 heck
 ----------------------------------------------------------------------

 -------------------------------------
 CID_151435637_JID_10844_Energie_anion
 -------------------------------------
 Structure from the checkpoint file:  "JID_10844.chk"
 Charge = -1 Multiplicity = 2

                         Standard orientation:
 ---------------------------------------------------------------------
 Center     Atomic      Atomic             Coordinates (Angstroms)
 Number     Number       Type             X           Y           Z
 ---------------------------------------------------------------------
      1          6           0       -0.906357   -3.583604    0.585104
      2          6           0       -1.703566   -3.272999   -0.671615
      3          8           0       -1.526922   -1.889088   -1.070483
      4          6           0       -2.291669   -0.986399   -0.424180
      5          8           0       -3.129195   -1.267018    0.405290
      6          6           0       -1.999615    0.430265   -0.880155
      7          6           0       -1.874443    1.381715    0.332553
      8          6           0       -0.508335    1.219488    1.007012
      9          8           0        0.278943    2.111394    1.210146
     10          8           0       -0.298268   -0.077588    1.310759
     11          6           0        1.028821   -0.404922    1.795388
     12          6           0        2.058559   -0.360007    0.694463
     13          6           0        3.306013    0.223259    0.927958
     14          6           0        4.278618    0.236558   -0.071894
     15          6           0        4.004146   -0.321093   -1.320706
     16          6           0        2.753623   -0.892464   -1.563773
     17          6           0        1.785220   -0.916810   -0.561135
     18          7           0       -2.152433    2.777421   -0.011462
     19          7           0       -1.290790    3.361752   -0.686782
     20          7           0       -0.609922    4.028601   -1.310869
     21          1           0        0.159534   -3.389501    0.428828
     22          1           0       -1.028470   -4.639881    0.849274
     23          1           0       -1.261976   -2.974528    1.420078
     24          1           0       -1.348459   -3.846391   -1.530317
     25          1           0       -2.769325   -3.459042   -0.522454
     26          1           0       -1.107726    0.461725   -1.511245
     27          1           0       -2.855055    0.768260   -1.474956
     28          1           0       -2.650484    1.098471    1.048096
     29          1           0        1.290748    0.278348    2.606192
     30          1           0        0.905847   -1.413451    2.197299
     31          1           0        3.512771    0.679443    1.892489
     32          1           0        5.243884    0.696004    0.120515
     33          1           0        4.757340   -0.303285   -2.103219
     34          1           0        2.530695   -1.320645   -2.537170
     35          1           0        0.810136   -1.349480   -0.759422
 ---------------------------------------------------------------------

 SCF Done:  E(UB3LYP) =  -969.857950745     A.U. after   33 cycles
 SCF Done:  E(UB3LYP) =  -969.857950745     a.u. after    1 cycles

 The electronic state is 2-A.
 Alpha  occ. eigenvalues --  -19.08128 -19.07995 -19.02630 -19.02256 -14.34891
 Alpha  occ. eigenvalues --  -14.25326 -14.24194 -10.21580 -10.21326 -10.14394
 Alpha  occ. eigenvalues --  -10.13913 -10.13522 -10.10301 -10.08767 -10.08510
 Alpha  occ. eigenvalues --  -10.08455 -10.08349 -10.08024 -10.07753 -10.07035
 Alpha  occ. eigenvalues --   -1.02575  -1.01895  -1.01586  -0.93788  -0.93358
 Alpha  occ. eigenvalues --   -0.86406  -0.76861  -0.72515  -0.68924  -0.67732
 Alpha  occ. eigenvalues --   -0.65647  -0.62614  -0.60402  -0.55599  -0.52698
 Alpha  occ. eigenvalues --   -0.51604  -0.48359  -0.46815  -0.45159  -0.44046
 Alpha  occ. eigenvalues --   -0.42923  -0.41386  -0.39698  -0.39247  -0.38931
 Alpha  occ. eigenvalues --   -0.38379  -0.38091  -0.37711  -0.36145  -0.35854
 Alpha  occ. eigenvalues --   -0.34810  -0.34023  -0.33217  -0.33173  -0.32707
 Alpha  occ. eigenvalues --   -0.31616  -0.30846  -0.29315  -0.28739  -0.28248
 Alpha  occ. eigenvalues --   -0.27521  -0.27163  -0.26002  -0.25633  -0.24704
 Alpha  occ. eigenvalues --   -0.22593  -0.21676  -0.20678  -0.19691  -0.18600
 Alpha  occ. eigenvalues --   -0.16567  -0.16129  -0.14474   0.04140
 Alpha virt. eigenvalues --    0.05659   0.06398   0.06685   0.07148   0.07515
 Alpha virt. eigenvalues --    0.07768   0.08349   0.08579   0.08818   0.09526
 Alpha virt. eigenvalues --    0.10414   0.10744   0.10896   0.11274   0.11664

  Beta  occ. eigenvalues --  -19.08104 -19.07994 -19.02613 -19.02249 -14.34650
  Beta  occ. eigenvalues --  -14.25012 -14.24230 -10.21581 -10.21318 -10.14387
  Beta  occ. eigenvalues --  -10.13852 -10.13495 -10.10294 -10.08671 -10.08504
  Beta  occ. eigenvalues --  -10.08447 -10.08358 -10.07932 -10.07724 -10.06996
  Beta  occ. eigenvalues --   -1.02480  -1.01865  -1.01202  -0.93748  -0.93348
  Beta  occ. eigenvalues --   -0.86186  -0.76752  -0.72433  -0.68825  -0.67636
  Beta  occ. eigenvalues --   -0.65583  -0.62541  -0.60279  -0.55519  -0.52570
  Beta  occ. eigenvalues --   -0.51541  -0.48243  -0.46770  -0.45099  -0.43888
  Beta  occ. eigenvalues --   -0.42875  -0.41271  -0.39547  -0.39015  -0.38761
  Beta  occ. eigenvalues --   -0.38202  -0.37984  -0.37434  -0.35873  -0.35749
  Beta  occ. eigenvalues --   -0.34747  -0.33805  -0.33150  -0.33111  -0.32284
  Beta  occ. eigenvalues --   -0.31484  -0.30783  -0.29234  -0.28621  -0.28209
  Beta  occ. eigenvalues --   -0.27438  -0.26976  -0.25951  -0.25595  -0.24667
  Beta  occ. eigenvalues --   -0.22523  -0.21643  -0.20423  -0.19649  -0.18223
  Beta  occ. eigenvalues --   -0.16400  -0.15667  -0.14380
  Beta virt. eigenvalues --    0.06338   0.06909   0.07063   0.07316   0.07498
  Beta virt. eigenvalues --    0.07758   0.08042   0.08674   0.08941   0.09492
  Beta virt. eigenvalues --    0.09676   0.10710   0.10843   0.11226   0.11505

 Mulliken charges and spin densities:
               1          2
     1  C    0.122517  -0.605111
     2  C    0.499918  -0.638455
     3  O    0.042874   0.020035
     4  C   -0.545080   0.164392
     5  O   -0.212213   0.008398
     6  C    0.152395  -0.539554
     7  C    0.223346  -0.214224
     8  C   -0.474673   0.050193
     9  O   -0.187274   0.002664
    10  O    0.083163   0.035091
    11  C    0.327759  -0.943021
    12  C    0.025482   1.294000
    13  C   -0.680503   0.368839
    14  C   -0.414676  -0.054867
    15  C   -0.118797  -0.084950
    16  C   -0.032877  -0.213229
    17  C    0.127646  -0.430976
    18  N   -0.572857   0.176506
    19  N    0.702799   0.005715
    20  N   -0.192135   0.063181
    21  H    0.003982   0.153816
    22  H   -0.819025   0.982970
    23  H    0.114713   0.084077
    24  H   -0.488896   0.666022
    25  H    0.023318   0.145136
    26  H    0.247069  -0.013661
    27  H   -0.096823   0.316185
    28  H    0.107812   0.211679
    29  H    0.231034  -0.050317
    30  H   -0.071532   0.263274
    31  H    0.090633   0.048185
    32  H    0.119237   0.021991
    33  H    0.097542   0.028782
    34  H   -0.133955   0.314178
    35  H    0.698077  -0.636944
 Sum of Mulliken charges =  -1.00000   1.00000

 Dipole moment (field-independent basis, Debye):
    X=              2.9479    Y=              1.4688    Z=              0.9505  Tot=              3.4280
 Quadrupole moment (field-independent basis, Debye-Ang):
   XX=           -158.2451   YY=           -204.6345   ZZ=           -138.0355
   XY=             -1.1823   XZ=              4.9462   YZ=              3.3728

 Summary of Natural Population Analysis:

                                       Natural Population
                Natural  -----------------------------------------------
    Atom  No    Charge         Core      Valence    Rydberg      Total
 -----------------------------------------------------------------------
      C    1   -0.30101      0.99966     2.29576    0.00558     3.30101
      C    2   -0.01680      0.99957     2.00518    0.01204     3.01680
      O    3   -0.28238      0.99986     3.27307    0.00945     4.28238
      C    4    0.41547      0.99968     1.55974    0.02511     2.58453
      O    5   -0.30976      0.99987     3.30439    0.00550     4.30976
      C    6   -0.23988      0.99956     2.23100    0.00932     3.23988
      C    7   -0.05528      0.99952     2.04165    0.01411     3.05528
      C    8    0.40613      0.99966     1.56753    0.02668     2.59387
      O    9   -0.29003      0.99987     3.28499    0.00517     4.29003
      O   10   -0.28101      0.99986     3.27205    0.00909     4.28101
      C   11   -0.01923      0.99951     2.00807    0.01165     3.01923
      C   12   -0.02228      0.99950     2.01307    0.00972     3.02228
      C   13   -0.09434      0.99952     2.08671    0.00812     3.09434
      C   14   -0.10075      0.99957     2.09131    0.00987     3.10075
      C   15   -0.08999      0.99957     2.08146    0.00896     3.08999
      C   16   -0.10099      0.99957     2.09117    0.01025     3.10099
      C   17   -0.09924      0.99951     2.09009    0.00965     3.09924
      N   18   -0.20554      0.99970     2.69162    0.01422     3.70554
      N   19    0.13537      0.99970     2.34901    0.01592     3.36463
      N   20   -0.00459      0.99982     2.49132    0.01346     3.50459
      H   21    0.10169      0.00000     0.39688    0.00144     0.39831
      H   22    0.10528      0.00000     0.39285    0.00186     0.39472
      H   23    0.10624      0.00000     0.39249    0.00128     0.39376
      H   24    0.09300      0.00000     0.40520    0.00180     0.40700
      H   25    0.09471      0.00000     0.40407    0.00122     0.40529
      H   26    0.11298      0.00000     0.38565    0.00138     0.38702
      H   27    0.12048      0.00000     0.37831    0.00121     0.37952
      H   28    0.12193      0.00000     0.37626    0.00181     0.37807
      H   29    0.09591      0.00000     0.40280    0.00129     0.40409
      H   30    0.10095      0.00000     0.39789    0.00115     0.39905
      H   31    0.09839      0.00000     0.40067    0.00095     0.40161
      H   32    0.09727      0.00000     0.40195    0.00078     0.40273
      H   33    0.09659      0.00000     0.40268    0.00072     0.40341
      H   34    0.10047      0.00000     0.39874    0.00079     0.39953
      H   35    0.11023      0.00000     0.38738    0.00239     0.38977
 =======================================================================
   * Total *    0.00000     19.99307    52.75300    0.25393    73.00000

 Normal termination of Gaussian 16 at Sun Dec 13 14:35:53 2020.
