 Gaussian 16, Revision A.03,

 -----------------------------------------------------------
 # opt freq B3LYP/6-31G(d) empiricaldispersion=gd3bj scf=xqc
 -----------------------------------------------------------

 ----------------------------
 CID_293640_JID_2560_neutraal
 ----------------------------
 Symbolic Z-matrix:
 Charge =  0 Multiplicity = 1

 SCF Done:  E(RB3LYP) =  -554.782611358     A.U. after   15 cycles
 SCF Done:  E(RB3LYP) =  -554.810106504     A.U. after   14 cycles
 SCF Done:  E(RB3LYP) =  -554.812107896     A.U. after   14 cycles
 SCF Done:  E(RB3LYP) =  -554.813058871     A.U. after   13 cycles
 SCF Done:  E(RB3LYP) =  -554.813633300     A.U. after   12 cycles
 SCF Done:  E(RB3LYP) =  -554.813747377     A.U. after   13 cycles
 SCF Done:  E(RB3LYP) =  -554.813776128     A.U. after   12 cycles
 SCF Done:  E(RB3LYP) =  -554.813839490     A.U. after   11 cycles
 SCF Done:  E(RB3LYP) =  -554.813844826     A.U. after   11 cycles
 SCF Done:  E(RB3LYP) =  -554.813851473     A.U. after    9 cycles
 SCF Done:  E(RB3LYP) =  -554.813851756     A.U. after    8 cycles
 SCF Done:  E(RB3LYP) =  -554.813851890     A.U. after    8 cycles
 Optimization completed.
    -- Stationary point found.
 Normal termination of Gaussian 16 at Wed Dec  9 17:35:04 2020.

 --------------------------------------------------------------------
 #N Geom=AllCheck Guess=TCheck SCRF=Check GenChk RB3LYP/6-31G(d) Freq
 --------------------------------------------------------------------

 Structure from the checkpoint file:  "JID_2560.chk"
 ----------------------------
 CID_293640_JID_2560_neutraal
 ----------------------------
 Charge =  0 Multiplicity = 1

 SCF Done:  E(RB3LYP) =  -554.813851890     A.U. after    1 cycles

  Exact polarizability: 101.408   0.838  91.102   3.265  -1.658  91.137
 Approx polarizability: 125.905   6.175 142.898   1.041  -1.316 159.861

                      1                      2                      3
                      A                      A                      A
 Frequencies --     38.6935                66.7702                78.5652
 Red. masses --      6.5406                 5.8283                 8.6686
 Frc consts  --      0.0058                 0.0153                 0.0315
 IR Inten    --      5.1705                 7.5273                 4.6660

                      4                      5                      6
                      A                      A                      A
 Frequencies --    103.0039               182.8411               187.8217
 Red. masses --      3.6843                 3.6988                 4.7208
 Frc consts  --      0.0230                 0.0729                 0.0981
 IR Inten    --      0.5069                 6.8321                 3.0176

                      7                      8                      9
                      A                      A                      A
 Frequencies --    229.2110               283.6673               311.4492
 Red. masses --      2.4609                 2.6511                 6.2472
 Frc consts  --      0.0762                 0.1257                 0.3570
 IR Inten    --      1.4431                 1.6703                19.0730

                     10                     11                     12
                      A                      A                      A
 Frequencies --    386.0408               390.5629               406.8512
 Red. masses --      3.0839                 2.9763                 4.1989
 Frc consts  --      0.2708                 0.2675                 0.4095
 IR Inten    --      2.2659                 0.0493                 1.7211

                     13                     14                     15
                      A                      A                      A
 Frequencies --    467.1457               549.1195               566.8442
 Red. masses --      2.2198                 4.6245                 2.9485
 Frc consts  --      0.2854                 0.8216                 0.5582
 IR Inten    --      6.8440                 4.2187                 1.1879

                     16                     17                     18
                      A                      A                      A
 Frequencies --    590.2555               610.1613               652.6038
 Red. masses --      4.2924                 4.0796                 4.0729
 Frc consts  --      0.8811                 0.8949                 1.0220
 IR Inten    --      0.8063                17.0981                 7.9050

                     19                     20                     21
                      A                      A                      A
 Frequencies --    767.1734               845.7042               855.0634
 Red. masses --      1.9475                 2.7062                 2.5527
 Frc consts  --      0.6753                 1.1404                 1.0996
 IR Inten    --      4.6660                16.3332                 6.7695

                     22                     23                     24
                      A                      A                      A
 Frequencies --    866.1146               875.8459               901.2710
 Red. masses --      1.5564                 2.6459                 2.6183
 Frc consts  --      0.6879                 1.1958                 1.2531
 IR Inten    --      0.1687                 3.8517                 1.2263

                     25                     26                     27
                      A                      A                      A
 Frequencies --    946.0672              1010.4014              1036.0126
 Red. masses --      2.2634                 2.3524                 1.6915
 Frc consts  --      1.1936                 1.4149                 1.0697
 IR Inten    --      1.0606                 1.8562                33.0284

                     28                     29                     30
                      A                      A                      A
 Frequencies --   1053.1758              1071.2476              1082.9604
 Red. masses --      1.7350                 2.4398                 2.5186
 Frc consts  --      1.1338                 1.6496                 1.7404
 IR Inten    --      0.9710                 4.2684                 4.8376

                     31                     32                     33
                      A                      A                      A
 Frequencies --   1123.9578              1148.5383              1195.8726
 Red. masses --      2.6086                 1.6158                 1.6068
 Frc consts  --      1.9416                 1.2558                 1.3539
 IR Inten    --      4.6753                31.3023                33.6118

                     34                     35                     36
                      A                      A                      A
 Frequencies --   1222.6778              1232.9368              1263.6923
 Red. masses --      1.2927                 1.3515                 1.5500
 Frc consts  --      1.1386                 1.2105                 1.4583
 IR Inten    --      8.8421                 5.6814                32.0982

                     37                     38                     39
                      A                      A                      A
 Frequencies --   1270.1094              1298.1764              1349.5485
 Red. masses --      1.3633                 1.3599                 1.4755
 Frc consts  --      1.2958                 1.3503                 1.5833
 IR Inten    --     14.9638                22.0629                 0.2259

                     40                     41                     42
                      A                      A                      A
 Frequencies --   1359.5640              1361.2343              1368.2691
 Red. masses --      1.7170                 1.2762                 1.3111
 Frc consts  --      1.8699                 1.3933                 1.4462
 IR Inten    --     33.8600                 0.1511                 6.5532

                     43                     44                     45
                      A                      A                      A
 Frequencies --   1384.9522              1413.6939              1494.5373
 Red. masses --      1.4417                 1.6251                 1.0962
 Frc consts  --      1.6293                 1.9135                 1.4426
 IR Inten    --     11.9555                24.3892                 5.9005

                     46                     47                     48
                      A                      A                      A
 Frequencies --   1502.9528              1504.3792              1508.9889
 Red. masses --      1.0875                 1.0827                 1.0931
 Frc consts  --      1.4474                 1.4437                 1.4665
 IR Inten    --     10.5836                12.2581                10.3350

                     49                     50                     51
                      A                      A                      A
 Frequencies --   1527.8384              1801.5906              1834.2629
 Red. masses --      1.0874                10.9162                11.6177
 Frc consts  --      1.4955                20.8754                23.0300
 IR Inten    --      3.9962               232.8770               124.9891

                     52                     53                     54
                      A                      A                      A
 Frequencies --   2364.6303              3004.7595              3037.0042
 Red. masses --     12.5871                 1.0801                 1.0693
 Frc consts  --     41.4670                 5.7458                 5.8107
 IR Inten    --      8.5806                 8.6000                 6.1108

                     55                     56                     57
                      A                      A                      A
 Frequencies --   3039.5563              3060.4829              3076.0014
 Red. masses --      1.0689                 1.0623                 1.0622
 Frc consts  --      5.8185                 5.8623                 5.9213
 IR Inten    --      4.7438                28.3717                 8.6305

                     58                     59                     60
                      A                      A                      A
 Frequencies --   3096.8422              3109.3768              3123.7772
 Red. masses --      1.0612                 1.1014                 1.1000
 Frc consts  --      5.9966                 6.2739                 6.3240
 IR Inten    --      8.4806                20.4799                 3.6471

                     61                     62                     63
                      A                      A                      A
 Frequencies --   3134.1520              3135.5611              3144.5997
 Red. masses --      1.0951                 1.0968                 1.1046
 Frc consts  --      6.3381                 6.3535                 6.4358
 IR Inten    --     14.2366                11.1969                 5.2778

 - Thermochemistry -
 -------------------
 Temperature   298.150 Kelvin.  Pressure   1.00000 Atm.
 Atom     1 has atomic number  6 and mass  12.00000

 Molecular mass:   165.07898 amu.
 Principal axes and moments of inertia in atomic units:
                           1         2         3
     Eigenvalues --  1320.118052709.480293093.41297
           X            0.99903  -0.02148   0.03843
           Y            0.02261   0.99932  -0.02929
           Z           -0.03778   0.03013   0.99883
 This molecule is an asymmetric top.
 Rotational symmetry number  1.
 Warning -- assumption of classical behavior for rotation
           may cause significant error
 Rotational temperatures (Kelvin)      0.06561     0.03197     0.02800
 Rotational constants (GHZ):           1.36711     0.66608     0.58341
 Zero-point vibrational energy     495895.0 (Joules/Mol)
                                  118.52174 (Kcal/Mol)
 Warning -- explicit consideration of  17 degrees of freedom as
           vibrations may cause significant error
 Vibrational temperatures:     55.67    96.07   113.04   148.20   263.07
          (Kelvin)            270.23   329.78   408.13   448.11   555.43
                              561.93   585.37   672.12   790.06   815.56
                              849.25   877.89   938.95  1103.79  1216.78
                             1230.25  1246.15  1260.15  1296.73  1361.18
                             1453.74  1490.59  1515.29  1541.29  1558.14
                             1617.12  1652.49  1720.59  1759.16  1773.92
                             1818.17  1827.40  1867.79  1941.70  1956.11
                             1958.51  1968.63  1992.64  2033.99  2150.31
                             2162.41  2164.47  2171.10  2198.22  2592.09
                             2639.10  3402.18  4323.18  4369.57  4373.24
                             4403.35  4425.68  4455.67  4473.70  4494.42
                             4509.35  4511.37  4524.38

 Zero-point correction=                           0.188876 (Hartree/Particle)
 Thermal correction to Energy=                    0.200215
 Thermal correction to Enthalpy=                  0.201159
 Thermal correction to Gibbs Free Energy=         0.150685
 Sum of electronic and zero-point Energies=           -554.624975
 Sum of electronic and thermal Energies=              -554.613637
 Sum of electronic and thermal Enthalpies=            -554.612692
 Sum of electronic and thermal Free Energies=         -554.663167

                     E (Thermal)             CV                S
                      KCal/Mol        Cal/Mol-Kelvin    Cal/Mol-Kelvin
 Total                  125.637             41.869            106.233
 Electronic               0.000              0.000              0.000
 Translational            0.889              2.981             41.212
 Rotational               0.889              2.981             30.782
 Vibrational            123.860             35.907             34.239
 Vibration     1          0.594              1.981              5.325
 Vibration     2          0.598              1.970              4.246
 Vibration     3          0.600              1.964              3.926
 Vibration     4          0.605              1.947              3.397
 Vibration     5          0.630              1.863              2.299
 Vibration     6          0.633              1.857              2.249
 Vibration     7          0.652              1.796              1.885
 Vibration     8          0.682              1.704              1.511
 Vibration     9          0.700              1.652              1.355
 Vibration    10          0.755              1.500              1.015
 Vibration    11          0.758              1.490              0.998
 Vibration    12          0.772              1.455              0.938
 Vibration    13          0.824              1.323              0.746
 Vibration    14          0.904              1.142              0.546
 Vibration    15          0.923              1.103              0.510
 Vibration    16          0.948              1.053              0.467
 Vibration    17          0.969              1.010              0.433

                           ! Non-Optimized Parameters !
 Normal termination of Gaussian 16 at Wed Dec  9 17:40:11 2020.

 ----------------------------------------------------------------------
 # B3LYP/6-311++G(d,p) empiricaldispersion=gd3bj scf=xqc pop=npa geom=c
 heck
 ----------------------------------------------------------------------

 ------------------------------------
 CID_293640_JID_2560_Energie_neutraal
 ------------------------------------
 Structure from the checkpoint file:  "JID_2560.chk"
 Charge =  0 Multiplicity = 1

 SCF Done:  E(RB3LYP) =  -554.973150470     A.U. after   14 cycles
 Normal termination of Gaussian 16 at Wed Dec  9 17:43:35 2020.

 ----------------------------------------------------------------------
 # B3LYP/6-311++G(d,p) empiricaldispersion=gd3bj scf=xqc pop=npa geom=c
 heck
 ----------------------------------------------------------------------

 ----------------------------------
 CID_293640_JID_2560_Energie_kation
 ----------------------------------
 Structure from the checkpoint file:  "JID_2560.chk"
 Charge =  1 Multiplicity = 2

 SCF Done:  E(UB3LYP) =  -554.624928050     A.U. after   24 cycles
 Normal termination of Gaussian 16 at Wed Dec  9 17:48:22 2020.
 Gaussian 16:  ES64L-G16RevA.03 25-Dec-2016

 ----------------------------------------------------------------------
 # B3LYP/6-311++G(d,p) empiricaldispersion=gd3bj scf=xqc pop=npa geom=c
 heck
 ----------------------------------------------------------------------

 ---------------------------------
 CID_293640_JID_2560_Energie_anion
 ---------------------------------
 Structure from the checkpoint file:  "JID_2560.chk"
 Charge = -1 Multiplicity = 2

                         Standard orientation:
 ---------------------------------------------------------------------
 Center     Atomic      Atomic             Coordinates (Angstroms)
 Number     Number       Type             X           Y           Z
 ---------------------------------------------------------------------
      1          6           0        2.735538   -0.647762    0.395381
      2          6           0        2.299925    0.759427    0.844321
      3          6           0        1.119321    1.243796    0.020323
      4          8           0        1.114824    2.293985   -0.586116
      5          6           0       -0.084275    0.283972   -0.015217
      6          6           0        0.405841   -1.117838   -0.406893
      7          8           0       -0.079702   -1.731536   -1.336694
      8          6           0        1.562125   -1.646060    0.421590
      9          6           0       -1.224598    0.805073   -0.884686
     10          6           0       -2.534737    0.008393   -0.715336
     11          6           0       -2.956201   -0.060235    0.686047
     12          7           0       -3.229733   -0.107803    1.813601
     13          1           0        3.541222   -1.008810    1.042115
     14          1           0        3.142645   -0.594495   -0.621981
     15          1           0        1.993824    0.724811    1.900000
     16          1           0        3.111198    1.484954    0.748068
     17          1           0       -0.413963    0.198881    1.033883
     18          1           0        1.853498   -2.623702    0.030373
     19          1           0        1.218456   -1.776846    1.457744
     20          1           0       -1.392644    1.857959   -0.645014
     21          1           0       -0.931439    0.756209   -1.936780
     22          1           0       -3.334104    0.473549   -1.302990
     23          1           0       -2.399180   -1.010093   -1.091332
 ---------------------------------------------------------------------

 SCF Done:  E(UB3LYP) =  -554.980940953     A.U. after   25 cycles

 The electronic state is 2-A.
 Alpha  occ. eigenvalues --  -18.96899 -18.96740 -14.20727 -10.11157 -10.10810
 Alpha  occ. eigenvalues --  -10.10807 -10.10578 -10.06861 -10.05827 -10.05581
 Alpha  occ. eigenvalues --  -10.04924 -10.04802  -0.90966  -0.90479  -0.80519
 Alpha  occ. eigenvalues --   -0.71072  -0.69118  -0.62640  -0.59599  -0.53965
 Alpha  occ. eigenvalues --   -0.48044  -0.42846  -0.41668  -0.39155  -0.36763
 Alpha  occ. eigenvalues --   -0.35140  -0.34063  -0.32816  -0.31558  -0.30640
 Alpha  occ. eigenvalues --   -0.28918  -0.28228  -0.27346  -0.26398  -0.25409
 Alpha  occ. eigenvalues --   -0.24522  -0.23977  -0.23501  -0.22373  -0.21771
 Alpha  occ. eigenvalues --   -0.21413  -0.21175  -0.12144  -0.11311   0.04424
 Alpha virt. eigenvalues --    0.07817   0.08869   0.10328   0.10371   0.11191
 Alpha virt. eigenvalues --    0.11319   0.11649   0.11852   0.12829   0.13168
 Alpha virt. eigenvalues --    0.13399   0.13724   0.14085   0.15156   0.16017

  Beta  occ. eigenvalues --  -18.96629 -18.96442 -14.20710 -10.10913 -10.10809
  Beta  occ. eigenvalues --  -10.10570 -10.10526 -10.06857 -10.05873 -10.05514
  Beta  occ. eigenvalues --  -10.04930 -10.04813  -0.90440  -0.89930  -0.80495
  Beta  occ. eigenvalues --   -0.70946  -0.68963  -0.62501  -0.59367  -0.53767
  Beta  occ. eigenvalues --   -0.47936  -0.42265  -0.41449  -0.38846  -0.36602
  Beta  occ. eigenvalues --   -0.34993  -0.33933  -0.32577  -0.31232  -0.30336
  Beta  occ. eigenvalues --   -0.28589  -0.27901  -0.27194  -0.26324  -0.25240
  Beta  occ. eigenvalues --   -0.23982  -0.23330  -0.23225  -0.22211  -0.21689
  Beta  occ. eigenvalues --   -0.20807  -0.20473  -0.11956  -0.10924
  Beta virt. eigenvalues --    0.07701   0.08494   0.10081   0.10472   0.11056
  Beta virt. eigenvalues --    0.11456   0.11564   0.12049   0.12947   0.13218
  Beta virt. eigenvalues --    0.13501   0.13791   0.13890   0.14318   0.15159

 Mulliken charges and spin densities:
               1          2
     1  C   -0.106040  -0.126435
     2  C   -0.052175  -0.281713
     3  C    0.377634  -0.327319
     4  O   -0.368788   0.100671
     5  C    0.410641   0.212263
     6  C    0.005804  -0.098280
     7  O   -0.368073   0.106400
     8  C    0.066443  -0.420459
     9  C   -0.583379  -0.007527
    10  C   -0.107220   0.095814
    11  C    0.098072  -0.239775
    12  N   -0.338213   0.007340
    13  H   -0.709389   0.909068
    14  H    0.172309  -0.060384
    15  H   -0.221588   0.385998
    16  H    0.082093   0.082218
    17  H    0.085537   0.116941
    18  H    0.069113   0.083828
    19  H   -0.167077   0.337117
    20  H    0.166107   0.020895
    21  H    0.185572   0.024068
    22  H    0.116345   0.049933
    23  H    0.186273   0.029339
 Sum of Mulliken charges =  -1.00000   1.00000

 Dipole moment (field-independent basis, Debye):
    X=             -2.7757    Y=              0.7471    Z=             -3.8720  Tot=              4.8224
 Quadrupole moment (field-independent basis, Debye-Ang):
   XX=           -109.2873   YY=           -100.1609   ZZ=           -101.6391
   XY=             -0.7981   XZ=              2.4813   YZ=              2.2370

 Summary of Natural Population Analysis:

                                       Natural Population
                Natural  -----------------------------------------------
    Atom  No    Charge         Core      Valence    Rydberg      Total
 -----------------------------------------------------------------------
      C    1   -0.18122      0.99963     2.17324    0.00836     3.18122
      C    2   -0.23526      0.99958     2.22660    0.00908     3.23526
      C    3    0.32829      0.99965     1.64965    0.02241     2.67171
      O    4   -0.27594      0.99987     3.26982    0.00624     4.27594
      C    5   -0.20231      0.99951     2.19271    0.01009     3.20231
      C    6    0.33078      0.99965     1.64678    0.02279     2.66922
      O    7   -0.28044      0.99987     3.27426    0.00630     4.28044
      C    8   -0.23528      0.99958     2.22654    0.00916     3.23528
      C    9   -0.18134      0.99962     2.17060    0.01112     3.18134
      C   10   -0.24945      0.99954     2.24334    0.00657     3.24945
      C   11    0.16114      0.99967     1.82199    0.01720     2.83886
      N   12   -0.19320      0.99979     2.68144    0.01196     3.69320
      H   13    0.10460      0.00000     0.39146    0.00394     0.39540
      H   14    0.09309      0.00000     0.40581    0.00111     0.40691
      H   15    0.10972      0.00000     0.38726    0.00302     0.39028
      H   16    0.10450      0.00000     0.39444    0.00105     0.39550
      H   17    0.12641      0.00000     0.37093    0.00266     0.37359
      H   18    0.10441      0.00000     0.39451    0.00107     0.39559
      H   19    0.10960      0.00000     0.38741    0.00299     0.39040
      H   20    0.10685      0.00000     0.39193    0.00122     0.39315
      H   21    0.10985      0.00000     0.38911    0.00104     0.39015
      H   22    0.11236      0.00000     0.38658    0.00105     0.38764
      H   23    0.13283      0.00000     0.36580    0.00137     0.36717
 =======================================================================
   * Total *   -0.00000     11.99596    31.84224    0.16180    44.00000

 Normal termination of Gaussian 16 at Wed Dec  9 17:54:23 2020.
