 Gaussian 16, Revision A.03,

 -----------------------------------------------------------
 # opt freq B3LYP/6-31G(d) empiricaldispersion=gd3bj scf=xqc
 -----------------------------------------------------------

 -------------------------------
 CID_151673904_JID_2237_neutraal
 -------------------------------
 Symbolic Z-matrix:
 Charge =  0 Multiplicity = 1

 SCF Done:  E(RB3LYP) =  -516.411427874     A.U. after   16 cycles
 SCF Done:  E(RB3LYP) =  -516.416886567     A.U. after   13 cycles
 SCF Done:  E(RB3LYP) =  -516.417579441     A.U. after   12 cycles
 SCF Done:  E(RB3LYP) =  -516.417708956     A.U. after   12 cycles
 SCF Done:  E(RB3LYP) =  -516.417723658     A.U. after   11 cycles
 SCF Done:  E(RB3LYP) =  -516.417728984     A.U. after   10 cycles
 SCF Done:  E(RB3LYP) =  -516.417730567     A.U. after    9 cycles
 SCF Done:  E(RB3LYP) =  -516.417730711     A.U. after    8 cycles
 Optimization completed.
    -- Stationary point found.
 Normal termination of Gaussian 16 at Wed Dec  9 16:52:52 2020.

 --------------------------------------------------------------------
 #N Geom=AllCheck Guess=TCheck SCRF=Check GenChk RB3LYP/6-31G(d) Freq
 --------------------------------------------------------------------

 Structure from the checkpoint file:  "JID_2237.chk"
 -------------------------------
 CID_151673904_JID_2237_neutraal
 -------------------------------
 Charge =  0 Multiplicity = 1

 SCF Done:  E(RB3LYP) =  -516.417730711     A.U. after    1 cycles

  Exact polarizability: 186.600  -2.409 117.405   0.471  -1.843  49.608
 Approx polarizability: 365.674   6.338 197.693   0.519  -3.331  77.098

                      1                      2                      3
                      A                      A                      A
 Frequencies --    104.7611               121.7213               175.8087
 Red. masses --      5.4998                 3.4115                 4.2038
 Frc consts  --      0.0356                 0.0298                 0.0766
 IR Inten    --      1.7410                 1.6964                 0.8927

                      4                      5                      6
                      A                      A                      A
 Frequencies --    265.0095               341.5894               359.1444
 Red. masses --      3.1496                 4.5976                 3.8828
 Frc consts  --      0.1303                 0.3161                 0.2951
 IR Inten    --      2.4019                 2.8033                 0.2936

                      7                      8                      9
                      A                      A                      A
 Frequencies --    373.6532               411.6667               484.2738
 Red. masses --      4.9629                 4.1430                 3.8854
 Frc consts  --      0.4082                 0.4137                 0.5369
 IR Inten    --      3.7613                 1.0896                 4.1956

                     10                     11                     12
                      A                      A                      A
 Frequencies --    519.1582               538.9577               559.5534
 Red. masses --      4.4740                 3.5944                 3.0473
 Frc consts  --      0.7105                 0.6152                 0.5622
 IR Inten    --      3.1885                 7.0807                 6.7958

                     13                     14                     15
                      A                      A                      A
 Frequencies --    592.4798               667.1154               698.1664
 Red. masses --      3.8672                 4.9090                 4.7345
 Frc consts  --      0.7998                 1.2872                 1.3597
 IR Inten    --      6.2304                17.5028                 2.3265

                     16                     17                     18
                      A                      A                      A
 Frequencies --    709.8309               764.8443               782.7163
 Red. masses --      1.9634                 1.3312                 2.8863
 Frc consts  --      0.5829                 0.4588                 1.0418
 IR Inten    --      7.1703                17.2762                13.0126

                     19                     20                     21
                      A                      A                      A
 Frequencies --    829.5590               838.4731               879.6726
 Red. masses --      2.4895                 1.5493                 3.6350
 Frc consts  --      1.0094                 0.6417                 1.6573
 IR Inten    --      9.2600                57.3634                 5.6071

                     22                     23                     24
                      A                      A                      A
 Frequencies --    889.3381               941.7587               955.2659
 Red. masses --      1.6210                 4.1937                 1.3596
 Frc consts  --      0.7554                 2.1914                 0.7310
 IR Inten    --      2.2826                 2.6517                 2.3908

                     25                     26                     27
                      A                      A                      A
 Frequencies --    981.9210               989.2714               994.4068
 Red. masses --      1.3538                 1.3360                 2.0900
 Frc consts  --      0.7691                 0.7704                 1.2177
 IR Inten    --      1.3147                 0.3188                 7.0134

                     28                     29                     30
                      A                      A                      A
 Frequencies --   1054.2226              1076.9231              1152.2400
 Red. masses --      2.3273                 2.4229                 1.7312
 Frc consts  --      1.5240                 1.6556                 1.3542
 IR Inten    --      9.9704                 6.5717                 0.7112

                     31                     32                     33
                      A                      A                      A
 Frequencies --   1200.0964              1214.1616              1217.7439
 Red. masses --      1.0942                 1.4016                 2.0098
 Frc consts  --      0.9285                 1.2174                 1.7560
 IR Inten    --      0.1097                13.6873                37.8707

                     34                     35                     36
                      A                      A                      A
 Frequencies --   1241.2687              1269.2341              1306.1417
 Red. masses --      1.6276                 1.3948                 1.6156
 Frc consts  --      1.4775                 1.3239                 1.6239
 IR Inten    --      6.0203                29.6880                 6.6897

                     37                     38                     39
                      A                      A                      A
 Frequencies --   1346.7838              1371.9276              1379.0495
 Red. masses --      1.6849                 5.0610                 2.7250
 Frc consts  --      1.8007                 5.6124                 3.0534
 IR Inten    --      6.5645                 0.6899                81.8276

                     40                     41                     42
                      A                      A                      A
 Frequencies --   1403.5694              1442.3977              1492.2726
 Red. masses --      1.6713                 1.5734                 2.3075
 Frc consts  --      1.9398                 1.9287                 3.0275
 IR Inten    --     28.1140                 3.0151                 9.4779

                     43                     44                     45
                      A                      A                      A
 Frequencies --   1505.4148              1530.7041              1599.7937
 Red. masses --      1.1160                 2.6574                 5.3375
 Frc consts  --      1.4902                 3.6685                 8.0485
 IR Inten    --      6.7399                25.2775                29.6524

                     46                     47                     48
                      A                      A                      A
 Frequencies --   1645.1233              1661.5218              1710.5315
 Red. masses --      6.2467                 5.3621                 6.6149
 Frc consts  --      9.9609                 8.7217                11.4035
 IR Inten    --    168.6793                 1.7082                14.3822

                     49                     50                     51
                      A                      A                      A
 Frequencies --   3066.2155              3167.2868              3182.7405
 Red. masses --      1.0696                 1.0869                 1.0864
 Frc consts  --      5.9247                 6.4240                 6.4842
 IR Inten    --     16.4770                 5.5564                 8.4623

                     52                     53                     54
                      A                      A                      A
 Frequencies --   3187.9669              3191.3453              3201.3872
 Red. masses --      1.0882                 1.0961                 1.0923
 Frc consts  --      6.5163                 6.5770                 6.5961
 IR Inten    --      0.8576                 2.4346                21.1269

                     55                     56                     57
                      A                      A                      A
 Frequencies --   3207.3021              3214.9218              3231.5377
 Red. masses --      1.0950                 1.0975                 1.0888
 Frc consts  --      6.6366                 6.6833                 6.6990
 IR Inten    --     16.4875                25.5320                 3.6341

 - Thermochemistry -
 -------------------
 Temperature   298.150 Kelvin.  Pressure   1.00000 Atm.
 Atom     1 has atomic number  6 and mass  12.00000

 Molecular mass:   159.06841 amu.
 Principal axes and moments of inertia in atomic units:
                           1         2         3
     Eigenvalues --   900.908922437.160983208.22340
           X            0.99980  -0.01965  -0.00397
           Y            0.01964   0.99980  -0.00357
           Z            0.00404   0.00349   0.99999
 This molecule is an asymmetric top.
 Rotational symmetry number  1.
 Warning -- assumption of classical behavior for rotation
           may cause significant error
 Rotational temperatures (Kelvin)      0.09614     0.03554     0.02700
 Rotational constants (GHZ):           2.00324     0.74051     0.56254
 Zero-point vibrational energy     444065.4 (Joules/Mol)
                                  106.13419 (Kcal/Mol)
 Warning -- explicit consideration of  13 degrees of freedom as
           vibrations may cause significant error
 Vibrational temperatures:    150.73   175.13   252.95   381.29   491.47
          (Kelvin)            516.73   537.60   592.30   696.76   746.95
                              775.44   805.07   852.45   959.83  1004.51
                             1021.29  1100.44  1126.15  1193.55  1206.38
                             1265.65  1279.56  1354.98  1374.41  1412.77
                             1423.34  1430.73  1516.79  1549.45  1657.82
                             1726.67  1746.91  1752.06  1785.91  1826.14
                             1879.25  1937.72  1973.90  1984.14  2019.42
                             2075.29  2147.05  2165.96  2202.34  2301.75
                             2366.97  2390.56  2461.07  4411.60  4557.02
                             4579.25  4586.77  4591.63  4606.08  4614.59
                             4625.56  4649.46

 Zero-point correction=                           0.169136 (Hartree/Particle)
 Thermal correction to Energy=                    0.178007
 Thermal correction to Enthalpy=                  0.178951
 Thermal correction to Gibbs Free Energy=         0.135140
 Sum of electronic and zero-point Energies=           -516.248595
 Sum of electronic and thermal Energies=              -516.239724
 Sum of electronic and thermal Enthalpies=            -516.238780
 Sum of electronic and thermal Free Energies=         -516.282590

                     E (Thermal)             CV                S
                      KCal/Mol        Cal/Mol-Kelvin    Cal/Mol-Kelvin
 Total                  111.701             36.486             92.207
 Electronic               0.000              0.000              0.000
 Translational            0.889              2.981             41.102
 Rotational               0.889              2.981             30.333
 Vibrational            109.924             30.524             20.772
 Vibration     1          0.605              1.945              3.364
 Vibration     2          0.609              1.931              3.073
 Vibration     3          0.628              1.872              2.372
 Vibration     4          0.671              1.737              1.629
 Vibration     5          0.721              1.592              1.205
 Vibration     6          0.734              1.556              1.126
 Vibration     7          0.745              1.526              1.065
 Vibration     8          0.776              1.445              0.921
 Vibration     9          0.840              1.285              0.699
 Vibration    10          0.874              1.208              0.612
 Vibration    11          0.894              1.164              0.568
 Vibration    12          0.915              1.119              0.525
 Vibration    13          0.950              1.048              0.463

 Optimization completed.
    -- Stationary point found.
 Normal termination of Gaussian 16 at Wed Dec  9 16:57:42 2020.

 ----------------------------------------------------------------------
 # B3LYP/6-311++G(d,p) empiricaldispersion=gd3bj scf=xqc pop=npa geom=c
 heck
 ----------------------------------------------------------------------

 ---------------------------------------
 CID_151673904_JID_2237_Energie_neutraal
 ---------------------------------------
 Structure from the checkpoint file:  "JID_2237.chk"
 Charge =  0 Multiplicity = 1

 SCF Done:  E(RB3LYP) =  -516.556613578     A.U. after   16 cycles
 Normal termination of Gaussian 16 at Wed Dec  9 17:00:18 2020.

 ----------------------------------------------------------------------
 # B3LYP/6-311++G(d,p) empiricaldispersion=gd3bj scf=xqc pop=npa geom=c
 heck
 ----------------------------------------------------------------------

 -------------------------------------
 CID_151673904_JID_2237_Energie_kation
 -------------------------------------
 Structure from the checkpoint file:  "JID_2237.chk"
 Charge =  1 Multiplicity = 2

 SCF Done:  E(UB3LYP) =  -516.273036724     A.U. after   26 cycles
 Normal termination of Gaussian 16 at Wed Dec  9 17:05:20 2020.
 Gaussian 16:  ES64L-G16RevA.03 25-Dec-2016

 ----------------------------------------------------------------------
 # B3LYP/6-311++G(d,p) empiricaldispersion=gd3bj scf=xqc pop=npa geom=c
 heck
 ----------------------------------------------------------------------

 ------------------------------------
 CID_151673904_JID_2237_Energie_anion
 ------------------------------------
 Structure from the checkpoint file:  "JID_2237.chk"
 Charge = -1 Multiplicity = 2

                         Standard orientation:
 ---------------------------------------------------------------------
 Center     Atomic      Atomic             Coordinates (Angstroms)
 Number     Number       Type             X           Y           Z
 ---------------------------------------------------------------------
      1          6           0       -2.070535    0.616511    0.789483
      2          6           0       -1.538660    1.750808   -0.028924
      3          6           0       -0.248908    1.815655   -0.394404
      4          6           0        0.751167    0.781173   -0.149016
      5          6           0        2.099870    1.172098   -0.044298
      6          6           0        3.120507    0.250323    0.130478
      7          6           0        2.813272   -1.115660    0.171483
      8          6           0        1.497827   -1.529885    0.042458
      9          6           0        0.435724   -0.608554   -0.104139
     10          6           0       -0.876738   -1.185027   -0.323981
     11          7           0       -2.042515   -0.667715    0.016066
     12          8           0       -3.161259   -1.207406   -0.233509
     13          1           0       -3.115119    0.741038    1.064874
     14          1           0       -1.464713    0.459173    1.689427
     15          1           0       -2.227849    2.539923   -0.314638
     16          1           0        0.103739    2.703054   -0.916958
     17          1           0        2.333380    2.232138   -0.103228
     18          1           0        4.149379    0.585313    0.221159
     19          1           0        3.602677   -1.851463    0.293635
     20          1           0        1.262309   -2.590556    0.055392
     21          1           0       -0.957285   -2.170014   -0.768901
 ---------------------------------------------------------------------

 SCF Done:  E(UB3LYP) =  -516.567189897     A.U. after   26 cycles

 The electronic state is 2-A.
 Alpha  occ. eigenvalues --  -18.92810 -14.25680 -10.06412 -10.03712 -10.03298
 Alpha  occ. eigenvalues --  -10.03074 -10.03025 -10.02796 -10.02710 -10.02550
 Alpha  occ. eigenvalues --  -10.02327 -10.02155  -0.93864  -0.72779  -0.69426
 Alpha  occ. eigenvalues --   -0.65313  -0.61805  -0.60135  -0.55022  -0.49624
 Alpha  occ. eigenvalues --   -0.46271  -0.41975  -0.41326  -0.36506  -0.35911
 Alpha  occ. eigenvalues --   -0.33606  -0.32154  -0.30573  -0.29971  -0.29236
 Alpha  occ. eigenvalues --   -0.26649  -0.25553  -0.24169  -0.23025  -0.22701
 Alpha  occ. eigenvalues --   -0.20468  -0.19505  -0.15634  -0.13343  -0.10377
 Alpha  occ. eigenvalues --   -0.08431  -0.05787   0.04869
 Alpha virt. eigenvalues --    0.08820   0.09709   0.10271   0.10595   0.11442
 Alpha virt. eigenvalues --    0.11752   0.12670   0.13741   0.14086   0.15060
 Alpha virt. eigenvalues --    0.15378   0.16152   0.17282   0.17464   0.18662

  Beta  occ. eigenvalues --  -18.92367 -14.24942 -10.06455 -10.03837 -10.03367
  Beta  occ. eigenvalues --  -10.03102 -10.02823 -10.02819 -10.02586 -10.02330
  Beta  occ. eigenvalues --  -10.02162 -10.01858  -0.92807  -0.72357  -0.68938
  Beta  occ. eigenvalues --   -0.64932  -0.61362  -0.59861  -0.54852  -0.48942
  Beta  occ. eigenvalues --   -0.46168  -0.41659  -0.40931  -0.36201  -0.35569
  Beta  occ. eigenvalues --   -0.33238  -0.31470  -0.30049  -0.29752  -0.28992
  Beta  occ. eigenvalues --   -0.25793  -0.25290  -0.23954  -0.22367  -0.21967
  Beta  occ. eigenvalues --   -0.20278  -0.19095  -0.14701  -0.12271  -0.09556
  Beta  occ. eigenvalues --   -0.07757  -0.03884
  Beta virt. eigenvalues --    0.08777   0.09652   0.10211   0.10659   0.11274
  Beta virt. eigenvalues --    0.11476   0.11836   0.12672   0.13836   0.13998
  Beta virt. eigenvalues --    0.15120   0.15622   0.16769   0.17525   0.17655

 Mulliken charges and spin densities:
               1          2
     1  C   -0.657347  -0.026764
     2  C   -0.035239   0.252644
     3  C   -0.781071   0.028000
     4  C    1.641120   0.064137
     5  C   -0.241517  -0.047670
     6  C   -0.190944   0.138513
     7  C   -0.319524   0.101818
     8  C   -0.514294   0.006316
     9  C   -0.180208   0.082106
    10  C   -0.516786  -0.032174
    11  N    0.020899   0.204789
    12  O   -0.247931   0.180881
    13  H    0.144286   0.001023
    14  H    0.140175   0.010610
    15  H    0.130125  -0.017049
    16  H    0.096193   0.020867
    17  H    0.093650   0.006244
    18  H    0.102044  -0.011383
    19  H    0.103582  -0.008678
    20  H    0.101949   0.020557
    21  H    0.110839   0.025214
 Sum of Mulliken charges =  -1.00000   1.00000

 Dipole moment (field-independent basis, Debye):
    X=              3.4724    Y=              1.9746    Z=              0.9338  Tot=              4.1023
 Quadrupole moment (field-independent basis, Debye-Ang):
   XX=           -110.7911   YY=            -83.1810   ZZ=            -80.0034
   XY=             -8.3201   XZ=             -3.3865   YZ=             -1.2729

 Summary of Natural Population Analysis:

                                       Natural Population
                Natural  -----------------------------------------------
    Atom  No    Charge         Core      Valence    Rydberg      Total
 -----------------------------------------------------------------------
      C    1   -0.12589      0.99959     2.11703    0.00927     3.12589
      C    2   -0.04446      0.99954     2.03510    0.00981     3.04446
      C    3   -0.10673      0.99952     2.09764    0.00957     3.10673
      C    4   -0.00584      0.99948     1.99740    0.00896     3.00584
      C    5   -0.10626      0.99954     2.09800    0.00872     3.10626
      C    6   -0.09408      0.99957     2.08441    0.01010     3.09408
      C    7   -0.09161      0.99957     2.08257    0.00947     3.09161
      C    8   -0.10899      0.99955     2.10023    0.00922     3.10899
      C    9   -0.00028      0.99949     1.99323    0.00756     3.00028
      C   10   -0.05385      0.99956     2.04225    0.01204     3.05385
      N   11    0.13998      0.99959     2.34208    0.01835     3.36002
      O   12   -0.23760      0.99991     3.22860    0.00908     4.23760
      H   13    0.10623      0.00000     0.39253    0.00124     0.39377
      H   14    0.09915      0.00000     0.39855    0.00230     0.40085
      H   15    0.08633      0.00000     0.41255    0.00112     0.41367
      H   16    0.09082      0.00000     0.40765    0.00152     0.40918
      H   17    0.08986      0.00000     0.40862    0.00152     0.41014
      H   18    0.08712      0.00000     0.41127    0.00160     0.41288
      H   19    0.08805      0.00000     0.41083    0.00112     0.41195
      H   20    0.09180      0.00000     0.40654    0.00165     0.40820
      H   21    0.09625      0.00000     0.40209    0.00166     0.40375
 =======================================================================
   * Total *   -0.00000     11.99492    29.86920    0.13589    42.00000

 Normal termination of Gaussian 16 at Wed Dec  9 17:10:39 2020.
