 Gaussian 16, Revision A.03,

 -----------------------------------------------------------
 # opt freq B3LYP/6-31G(d) empiricaldispersion=gd3bj scf=xqc
 -----------------------------------------------------------

 -------------------------------
 CID_150687725_JID_4997_neutraal
 -------------------------------
 Symbolic Z-matrix:
 Charge =  0 Multiplicity = 1

 SCF Done:  E(RB3LYP) =  -630.795071399     A.U. after   17 cycles
 SCF Done:  E(RB3LYP) =  -630.799811831     A.U. after   14 cycles
 SCF Done:  E(RB3LYP) =  -630.799709262     A.U. after   13 cycles
 SCF Done:  E(RB3LYP) =  -630.800468824     A.U. after   13 cycles
 SCF Done:  E(RB3LYP) =  -630.800747911     A.U. after   12 cycles
 SCF Done:  E(RB3LYP) =  -630.800828311     A.U. after   12 cycles
 SCF Done:  E(RB3LYP) =  -630.800867376     A.U. after   11 cycles
 SCF Done:  E(RB3LYP) =  -630.800870546     A.U. after    9 cycles
 SCF Done:  E(RB3LYP) =  -630.800873139     A.U. after    9 cycles
 SCF Done:  E(RB3LYP) =  -630.800874318     A.U. after    9 cycles
 SCF Done:  E(RB3LYP) =  -630.800874814     A.U. after    8 cycles
 SCF Done:  E(RB3LYP) =  -630.800874919     A.U. after    8 cycles
 Optimization completed.
    -- Stationary point found.
 Normal termination of Gaussian 16 at Thu Dec 10 11:07:08 2020.

 --------------------------------------------------------------------
 #N Geom=AllCheck Guess=TCheck SCRF=Check GenChk RB3LYP/6-31G(d) Freq
 --------------------------------------------------------------------

 Structure from the checkpoint file:  "JID_4997.chk"
 -------------------------------
 CID_150687725_JID_4997_neutraal
 -------------------------------
 Charge =  0 Multiplicity = 1

 SCF Done:  E(RB3LYP) =  -630.800874919     A.U. after    1 cycles

  Exact polarizability: 164.946 -10.981 107.666   4.757  -0.861 102.973
 Approx polarizability: 230.383 -21.599 155.428  21.751  -0.049 178.170

                      1                      2                      3
                      A                      A                      A
 Frequencies --     27.3898                46.1518                84.9189
 Red. masses --      5.5498                 4.9667                 6.4623
 Frc consts  --      0.0025                 0.0062                 0.0275
 IR Inten    --      0.1644                 0.5161                 1.1763

                      4                      5                      6
                      A                      A                      A
 Frequencies --    124.5040               138.7347               167.7204
 Red. masses --      3.8627                 7.8957                 2.8682
 Frc consts  --      0.0353                 0.0895                 0.0475
 IR Inten    --      0.0527                 0.7649                 0.7674

                      7                      8                      9
                      A                      A                      A
 Frequencies --    197.9208               239.7233               253.2714
 Red. masses --      2.0674                 2.1911                 2.3225
 Frc consts  --      0.0477                 0.0742                 0.0878
 IR Inten    --      2.0472                 0.1756                 1.2267

                     10                     11                     12
                      A                      A                      A
 Frequencies --    279.8417               307.7875               314.3199
 Red. masses --      2.0999                 1.6811                 1.3974
 Frc consts  --      0.0969                 0.0938                 0.0813
 IR Inten    --      0.7456                 0.5671                 1.0739

                     13                     14                     15
                      A                      A                      A
 Frequencies --    332.9562               364.5454               372.9962
 Red. masses --      2.2691                 2.1254                 2.4006
 Frc consts  --      0.1482                 0.1664                 0.1968
 IR Inten    --      0.4315                 0.4845                 0.5279

                     16                     17                     18
                      A                      A                      A
 Frequencies --    430.9613               463.1713               475.6003
 Red. masses --      2.0362                 3.0465                 2.9211
 Frc consts  --      0.2228                 0.3851                 0.3893
 IR Inten    --      0.2043                 3.6119                 0.9734

                     19                     20                     21
                      A                      A                      A
 Frequencies --    502.3288               515.2133               554.9679
 Red. masses --      9.3323                 2.9616                 2.3638
 Frc consts  --      1.3874                 0.4632                 0.4289
 IR Inten    --      0.5111                 1.4609                 0.5703

                     22                     23                     24
                      A                      A                      A
 Frequencies --    590.4193               619.6343               694.4233
 Red. masses --      3.7517                 3.6810                 3.3685
 Frc consts  --      0.7705                 0.8327                 0.9570
 IR Inten    --     11.8134                14.8980                 9.9316

                     25                     26                     27
                      A                      A                      A
 Frequencies --    763.3081               809.7665               860.0872
 Red. masses --      6.2006                 1.6629                 2.6482
 Frc consts  --      2.1286                 0.6424                 1.1542
 IR Inten    --     31.3391                 0.0097                 0.6533

                     28                     29                     30
                      A                      A                      A
 Frequencies --    867.7725               895.5745               906.8975
 Red. masses --      2.0199                 2.8909                 2.1069
 Frc consts  --      0.8962                 1.3661                 1.0210
 IR Inten    --     11.3945                 7.4785                 5.0041

                     31                     32                     33
                      A                      A                      A
 Frequencies --    931.6766               956.2673               964.4632
 Red. masses --      2.1903                 1.5550                 1.7515
 Frc consts  --      1.1202                 0.8378                 0.9599
 IR Inten    --      0.6749                 0.2181                 1.2761

                     34                     35                     36
                      A                      A                      A
 Frequencies --    979.0795              1010.3130              1037.3428
 Red. masses --      1.8909                 1.8961                 1.2737
 Frc consts  --      1.0679                 1.1403                 0.8076
 IR Inten    --      5.8574                12.7502                 0.6332

                     37                     38                     39
                      A                      A                      A
 Frequencies --   1047.5450              1073.6868              1096.5146
 Red. masses --      1.7165                 2.0467                 2.5027
 Frc consts  --      1.1098                 1.3901                 1.7729
 IR Inten    --      2.3649                23.4310               108.5359

                     40                     41                     42
                      A                      A                      A
 Frequencies --   1104.4455              1116.3854              1171.7167
 Red. masses --      2.0943                 2.5094                 1.4548
 Frc consts  --      1.5051                 1.8426                 1.1768
 IR Inten    --     15.4198               141.3825                 7.0346

                     43                     44                     45
                      A                      A                      A
 Frequencies --   1191.8200              1210.1509              1225.5820
 Red. masses --      1.5788                 1.8432                 1.8489
 Frc consts  --      1.3213                 1.5903                 1.6363
 IR Inten    --      6.4439                10.3381                 6.6385

                     46                     47                     48
                      A                      A                      A
 Frequencies --   1257.5246              1268.3703              1277.2330
 Red. masses --      2.5903                 1.7549                 2.7544
 Frc consts  --      2.4135                 1.6634                 2.6474
 IR Inten    --     91.6183                30.5807               315.7180

                     49                     50                     51
                      A                      A                      A
 Frequencies --   1311.2143              1321.7121              1341.0544
 Red. masses --      1.2850                 1.4897                 1.4591
 Frc consts  --      1.3017                 1.5333                 1.5461
 IR Inten    --      0.9524                21.8230                33.7915

                     52                     53                     54
                      A                      A                      A
 Frequencies --   1379.1386              1390.0838              1394.8987
 Red. masses --      1.4150                 1.4433                 1.3996
 Frc consts  --      1.5857                 1.6432                 1.6044
 IR Inten    --      9.2909                 1.8824                18.5237

                     55                     56                     57
                      A                      A                      A
 Frequencies --   1405.6977              1411.8062              1416.2194
 Red. masses --      1.4632                 1.4584                 1.4807
 Frc consts  --      1.7035                 1.7127                 1.7497
 IR Inten    --     11.8273                 3.9147                20.0371

                     58                     59                     60
                      A                      A                      A
 Frequencies --   1432.6239              1455.2980              1495.1036
 Red. masses --      1.2429                 1.2286                 1.0894
 Frc consts  --      1.5030                 1.5331                 1.4347
 IR Inten    --      5.7851                 8.0715                 8.0361

                     61                     62                     63
                      A                      A                      A
 Frequencies --   1510.7831              1513.2279              1519.0414
 Red. masses --      1.0851                 1.0644                 1.0818
 Frc consts  --      1.4592                 1.4360                 1.4707
 IR Inten    --      0.7134                 0.8740                 5.1642

                     64                     65                     66
                      A                      A                      A
 Frequencies --   1523.3416              1534.0667              1537.7368
 Red. masses --      1.0699                 1.0737                 1.0763
 Frc consts  --      1.4629                 1.4887                 1.4995
 IR Inten    --      9.7915                 1.7614                 5.4279

                     67                     68                     69
                      A                      A                      A
 Frequencies --   1544.0588              1548.2673              1805.2502
 Red. masses --      1.0595                 1.0613                11.8404
 Frc consts  --      1.4883                 1.4990                22.7349
 IR Inten    --      4.7972                 6.1731               146.4378

                     70                     71                     72
                      A                      A                      A
 Frequencies --   2293.6815              3021.6267              3025.9582
 Red. masses --     13.9885                 1.0631                 1.0672
 Frc consts  --     43.3599                 5.7190                 5.7574
 IR Inten    --    512.8457                22.2760                21.2220

                     73                     74                     75
                      A                      A                      A
 Frequencies --   3030.7041              3038.2352              3039.2920
 Red. masses --      1.0649                 1.0755                 1.0644
 Frc consts  --      5.7629                 5.8494                 5.7930
 IR Inten    --      6.6868                 6.7414                 5.9236

                     76                     77                     78
                      A                      A                      A
 Frequencies --   3040.3270              3044.9543              3055.6527
 Red. masses --      1.0704                 1.0372                 1.0423
 Frc consts  --      5.8297                 5.6658                 5.7337
 IR Inten    --     39.9472                30.2293                11.2904

                     79                     80                     81
                      A                      A                      A
 Frequencies --   3065.4799              3068.5669              3074.8881
 Red. masses --      1.0952                 1.0978                 1.0980
 Frc consts  --      6.0636                 6.0906                 6.1165
 IR Inten    --     58.2925                34.2115                51.3049

                     82                     83                     84
                      A                      A                      A
 Frequencies --   3083.6331              3104.4866              3111.9716
 Red. masses --      1.1042                 1.1013                 1.1004
 Frc consts  --      6.1864                 6.2537                 6.2790
 IR Inten    --     80.1220                12.9837                62.7091

                     85                     86                     87
                      A                      A                      A
 Frequencies --   3123.7665              3131.5726              3136.0324
 Red. masses --      1.1022                 1.0956                 1.0942
 Frc consts  --      6.3366                 6.3306                 6.3405
 IR Inten    --     20.5990                28.2149                24.5170

 - Thermochemistry -
 -------------------
 Temperature   298.150 Kelvin.  Pressure   1.00000 Atm.
 Atom     1 has atomic number  6 and mass  12.00000

 Molecular mass:   195.13716 amu.
 Principal axes and moments of inertia in atomic units:
                           1         2         3
     Eigenvalues --  1168.649775002.690465366.96630
           X            1.00000  -0.00148  -0.00157
           Y            0.00145   0.99976  -0.02174
           Z            0.00160   0.02174   0.99976
 This molecule is an asymmetric top.
 Rotational symmetry number  1.
 Warning -- assumption of classical behavior for rotation
           may cause significant error
 Rotational temperatures (Kelvin)      0.07411     0.01731     0.01614
 Rotational constants (GHZ):           1.54430     0.36075     0.33627
 Zero-point vibrational energy     708216.1 (Joules/Mol)
                                  169.26770 (Kcal/Mol)
 Warning -- explicit consideration of  23 degrees of freedom as
           vibrations may cause significant error
 Vibrational temperatures:     39.41    66.40   122.18   179.13   199.61
          (Kelvin)            241.31   284.76   344.91   364.40   402.63
                              442.84   452.24   479.05   524.50   536.66
                              620.06   666.40   684.28   722.74   741.28
                              798.47   849.48   891.52   999.12  1098.23
                             1165.07  1237.47  1248.53  1288.53  1304.82
                             1340.47  1375.86  1387.65  1408.68  1453.62
                             1492.50  1507.18  1544.80  1577.64  1589.05
                             1606.23  1685.84  1714.76  1741.14  1763.34
                             1809.30  1824.90  1837.65  1886.54  1901.65
                             1929.48  1984.27  2000.02  2006.95  2022.49
                             2031.27  2037.62  2061.23  2093.85  2151.12
                             2173.68  2177.20  2185.56  2191.75  2207.18
                             2212.46  2221.56  2227.61  2597.35  3300.10
                             4347.45  4353.68  4360.51  4371.34  4372.86
                             4374.35  4381.01  4396.40  4410.54  4414.98
                             4424.08  4436.66  4466.66  4477.43  4494.40
                             4505.63  4512.05

 Zero-point correction=                           0.269745 (Hartree/Particle)
 Thermal correction to Energy=                    0.283733
 Thermal correction to Enthalpy=                  0.284677
 Thermal correction to Gibbs Free Energy=         0.228696
 Sum of electronic and zero-point Energies=           -630.531130
 Sum of electronic and thermal Energies=              -630.517142
 Sum of electronic and thermal Enthalpies=            -630.516198
 Sum of electronic and thermal Free Energies=         -630.572178

                     E (Thermal)             CV                S
                      KCal/Mol        Cal/Mol-Kelvin    Cal/Mol-Kelvin
 Total                  178.045             53.705            117.821
 Electronic               0.000              0.000              0.000
 Translational            0.889              2.981             41.711
 Rotational               0.889              2.981             31.818
 Vibrational            176.267             47.743             44.292
 Vibration     1          0.593              1.984              6.010
 Vibration     2          0.595              1.979              4.976
 Vibration     3          0.601              1.960              3.774
 Vibration     4          0.610              1.928              3.029
 Vibration     5          0.614              1.915              2.821
 Vibration     6          0.624              1.882              2.461
 Vibration     7          0.637              1.843              2.152
 Vibration     8          0.657              1.780              1.805
 Vibration     9          0.664              1.757              1.708
 Vibration    10          0.680              1.711              1.535
 Vibration    11          0.698              1.659              1.374
 Vibration    12          0.702              1.646              1.339
 Vibration    13          0.715              1.610              1.246
 Vibration    14          0.738              1.545              1.103
 Vibration    15          0.744              1.528              1.067
 Vibration    16          0.792              1.403              0.856
 Vibration    17          0.821              1.332              0.757
 Vibration    18          0.832              1.304              0.722
 Vibration    19          0.858              1.245              0.652
 Vibration    20          0.870              1.216              0.621
 Vibration    21          0.910              1.129              0.534
 Vibration    22          0.948              1.052              0.466
 Vibration    23          0.980              0.990              0.417

 Optimization completed.
    -- Stationary point found.
 Normal termination of Gaussian 16 at Thu Dec 10 11:16:21 2020.

 ----------------------------------------------------------------------
 # B3LYP/6-311++G(d,p) empiricaldispersion=gd3bj scf=xqc pop=npa geom=c
 heck
 ----------------------------------------------------------------------

 ---------------------------------------
 CID_150687725_JID_4997_Energie_neutraal
 ---------------------------------------
 Structure from the checkpoint file:  "JID_4997.chk"
 Charge =  0 Multiplicity = 1

 SCF Done:  E(RB3LYP) =  -630.976049471     A.U. after   16 cycles
 Normal termination of Gaussian 16 at Thu Dec 10 11:20:21 2020.

 ----------------------------------------------------------------------
 # B3LYP/6-311++G(d,p) empiricaldispersion=gd3bj scf=xqc pop=npa geom=c
 heck
 ----------------------------------------------------------------------

 -------------------------------------
 CID_150687725_JID_4997_Energie_kation
 -------------------------------------
 Structure from the checkpoint file:  "JID_4997.chk"
 Charge =  1 Multiplicity = 2

 SCF Done:  E(UB3LYP) =  -630.617452758     A.U. after   33 cycles
 SCF Done:  E(UB3LYP) =  -630.617452759     a.u. after    1 cycles
 Normal termination of Gaussian 16 at Thu Dec 10 11:31:36 2020.
 Gaussian 16:  ES64L-G16RevA.03 25-Dec-2016

 ----------------------------------------------------------------------
 # B3LYP/6-311++G(d,p) empiricaldispersion=gd3bj scf=xqc pop=npa geom=c
 heck
 ----------------------------------------------------------------------

 ------------------------------------
 CID_150687725_JID_4997_Energie_anion
 ------------------------------------
 Structure from the checkpoint file:  "JID_4997.chk"
 Charge = -1 Multiplicity = 2

                         Standard orientation:
 ---------------------------------------------------------------------
 Center     Atomic      Atomic             Coordinates (Angstroms)
 Number     Number       Type             X           Y           Z
 ---------------------------------------------------------------------
      1          6           0        1.310602    1.389873    1.469490
      2          6           0        1.111835    0.881966    0.028269
      3          6           0        2.420540    1.067192   -0.779324
      4          6           0        3.577353    0.182476   -0.302589
      5          6           0        3.174315   -1.295450   -0.316518
      6          6           0        1.881871   -1.530799    0.472619
      7          6           0        0.733550   -0.631769   -0.021777
      8          6           0       -0.572562   -0.980872    0.718657
      9          6           0       -1.817595   -0.667369   -0.076879
     10          8           0       -1.962435   -0.873476   -1.261493
     11          7           0       -2.851876   -0.115687    0.756732
     12          7           0       -3.920096    0.124202    0.155746
     13          7           0       -4.925372    0.375303   -0.301126
     14          6           0        0.020962    1.741004   -0.634126
     15          1           0        2.046657    0.806123    2.029302
     16          1           0        1.659527    2.428992    1.452256
     17          1           0        0.373094    1.374614    2.035522
     18          1           0        2.210370    0.836682   -1.833884
     19          1           0        2.712539    2.124999   -0.745178
     20          1           0        3.878844    0.472793    0.712472
     21          1           0        4.454316    0.342697   -0.941763
     22          1           0        3.981811   -1.920424    0.084174
     23          1           0        3.016218   -1.613715   -1.357091
     24          1           0        2.062341   -1.358349    1.542535
     25          1           0        1.576895   -2.581170    0.379435
     26          1           0        0.564106   -0.878217   -1.078897
     27          1           0       -0.601319   -2.067150    0.885268
     28          1           0       -0.634509   -0.514671    1.704314
     29          1           0        0.357176    2.781684   -0.714369
     30          1           0       -0.217424    1.381194   -1.640565
     31          1           0       -0.904965    1.747494   -0.047986
 ---------------------------------------------------------------------

 SCF Done:  E(UB3LYP) =  -630.977383662     A.U. after   33 cycles
 SCF Done:  E(UB3LYP) =  -630.977383662     a.u. after    1 cycles

 The electronic state is 2-A.
 Alpha  occ. eigenvalues --  -18.95692 -14.32731 -14.24212 -14.22363 -10.12532
 Alpha  occ. eigenvalues --  -10.07426 -10.06048 -10.05957 -10.05884 -10.05842
 Alpha  occ. eigenvalues --  -10.05553 -10.05429 -10.05195 -10.04357  -1.00477
 Alpha  occ. eigenvalues --   -0.90979  -0.83034  -0.74132  -0.67243  -0.66276
 Alpha  occ. eigenvalues --   -0.60905  -0.58054  -0.56807  -0.52197  -0.48495
 Alpha  occ. eigenvalues --   -0.47198  -0.41880  -0.38297  -0.38075  -0.36931
 Alpha  occ. eigenvalues --   -0.36198  -0.35154  -0.34305  -0.32824  -0.32260
 Alpha  occ. eigenvalues --   -0.31504  -0.30871  -0.29230  -0.28855  -0.27952
 Alpha  occ. eigenvalues --   -0.26725  -0.25778  -0.24998  -0.24443  -0.23387
 Alpha  occ. eigenvalues --   -0.23037  -0.22211  -0.20337  -0.20000  -0.18816
 Alpha  occ. eigenvalues --   -0.18528  -0.14327  -0.12657   0.04659
 Alpha virt. eigenvalues --    0.06380   0.07786   0.08195   0.09062   0.09790
 Alpha virt. eigenvalues --    0.10101   0.10561   0.11127   0.11471   0.12034
 Alpha virt. eigenvalues --    0.13262   0.13443   0.13821   0.14660   0.14987

  Beta  occ. eigenvalues --  -18.95411 -14.32337 -14.23780 -14.22538 -10.12176
  Beta  occ. eigenvalues --  -10.07428 -10.06031 -10.05945 -10.05861 -10.05833
  Beta  occ. eigenvalues --  -10.05538 -10.05420 -10.05228 -10.04345  -0.99820
  Beta  occ. eigenvalues --   -0.90437  -0.82786  -0.74105  -0.67206  -0.66169
  Beta  occ. eigenvalues --   -0.60660  -0.58009  -0.56651  -0.51925  -0.48412
  Beta  occ. eigenvalues --   -0.47119  -0.41845  -0.37824  -0.37003  -0.36523
  Beta  occ. eigenvalues --   -0.35958  -0.34817  -0.34136  -0.32640  -0.31590
  Beta  occ. eigenvalues --   -0.31166  -0.30831  -0.28965  -0.28472  -0.27846
  Beta  occ. eigenvalues --   -0.26541  -0.25726  -0.24873  -0.24129  -0.23237
  Beta  occ. eigenvalues --   -0.22792  -0.21811  -0.20294  -0.19923  -0.18762
  Beta  occ. eigenvalues --   -0.18381  -0.13324  -0.12484
  Beta virt. eigenvalues --    0.06836   0.08098   0.08408   0.09156   0.10111
  Beta virt. eigenvalues --    0.10383   0.10501   0.11015   0.11226   0.11671
  Beta virt. eigenvalues --    0.12081   0.13434   0.13491   0.13843   0.14619

 Mulliken charges and spin densities:
               1          2
     1  C   -0.215658  -0.524695
     2  C    0.368992   0.293490
     3  C   -0.612688   0.355241
     4  C    0.427322  -0.877721
     5  C   -0.217213  -0.308832
     6  C   -0.122263  -0.202472
     7  C    0.117944   0.179920
     8  C    0.196584  -0.550094
     9  C   -0.749369   0.311742
    10  O   -0.312069   0.104801
    11  N    0.501770  -0.050224
    12  N   -0.048355   0.089667
    13  N   -0.470550   0.248518
    14  C   -0.485169  -0.114302
    15  H    0.027589   0.106008
    16  H    0.053910   0.089611
    17  H    0.177506  -0.026572
    18  H    0.071074   0.072028
    19  H   -0.005083   0.145195
    20  H    0.085227   0.030393
    21  H   -0.408308   0.585983
    22  H   -0.393610   0.565196
    23  H    0.188717  -0.077015
    24  H    0.056836   0.089464
    25  H   -0.046205   0.189215
    26  H    0.231884   0.012692
    27  H    0.037317   0.155452
    28  H    0.206264   0.000828
    29  H    0.087557   0.047494
    30  H    0.170966  -0.011667
    31  H    0.079080   0.070655
 Sum of Mulliken charges =  -1.00000   1.00000

 Dipole moment (field-independent basis, Debye):
    X=              2.2513    Y=              1.4842    Z=              1.8153  Tot=              3.2506
 Quadrupole moment (field-independent basis, Debye-Ang):
   XX=           -169.8760   YY=           -108.6776   ZZ=           -105.4369
   XY=              2.8652   XZ=             -5.4980   YZ=             -0.2825

 Summary of Natural Population Analysis:

                                       Natural Population
                Natural  -----------------------------------------------
    Atom  No    Charge         Core      Valence    Rydberg      Total
 -----------------------------------------------------------------------
      C    1   -0.29025      0.99962     2.28458    0.00604     3.29025
      C    2   -0.03822      0.99956     2.02817    0.01048     3.03822
      C    3   -0.18678      0.99959     2.17632    0.01087     3.18678
      C    4   -0.19061      0.99963     2.18214    0.00884     3.19061
      C    5   -0.18801      0.99963     2.17996    0.00842     3.18801
      C    6   -0.18686      0.99961     2.17762    0.00963     3.18686
      C    7   -0.10599      0.99955     2.09430    0.01213     3.10599
      C    8   -0.23513      0.99956     2.22577    0.00980     3.23513
      C    9    0.37940      0.99968     1.59613    0.02478     2.62060
      O   10   -0.29014      0.99987     3.28392    0.00635     4.29014
      N   11   -0.25897      0.99968     2.74663    0.01265     3.75897
      N   12    0.16650      0.99971     2.31700    0.01679     3.33350
      N   13    0.02238      0.99981     2.46532    0.01249     3.47762
      C   14   -0.28553      0.99963     2.27973    0.00617     3.28553
      H   15    0.09839      0.00000     0.40068    0.00093     0.40161
      H   16    0.09730      0.00000     0.40185    0.00086     0.40270
      H   17    0.10114      0.00000     0.39799    0.00087     0.39886
      H   18    0.09599      0.00000     0.40293    0.00108     0.40401
      H   19    0.09664      0.00000     0.40244    0.00092     0.40336
      H   20    0.09257      0.00000     0.40621    0.00122     0.40743
      H   21    0.09747      0.00000     0.40140    0.00113     0.40253
      H   22    0.09761      0.00000     0.40117    0.00122     0.40239
      H   23    0.09133      0.00000     0.40753    0.00113     0.40867
      H   24    0.09178      0.00000     0.40710    0.00112     0.40822
      H   25    0.09933      0.00000     0.39966    0.00101     0.40067
      H   26    0.10623      0.00000     0.39186    0.00191     0.39377
      H   27    0.11297      0.00000     0.38582    0.00121     0.38703
      H   28    0.10477      0.00000     0.39396    0.00127     0.39523
      H   29    0.09317      0.00000     0.40597    0.00085     0.40683
      H   30    0.10607      0.00000     0.39312    0.00081     0.39393
      H   31    0.10545      0.00000     0.39339    0.00117     0.39455
 =======================================================================
   * Total *    0.00000     13.99513    38.83069    0.17418    53.00000

 Normal termination of Gaussian 16 at Thu Dec 10 11:43:33 2020.
