 Gaussian 16, Revision A.03,

 -----------------------------------------------------------
 # opt freq B3LYP/6-31G(d) empiricaldispersion=gd3bj scf=xqc
 -----------------------------------------------------------

 -------------------------------
 CID_107585466_JID_9817_neutraal
 -------------------------------
 Symbolic Z-matrix:
 Charge =  0 Multiplicity = 1

 SCF Done:  E(RB3LYP) =  -820.165121889     A.U. after   15 cycles
 SCF Done:  E(RB3LYP) =  -820.171675412     A.U. after   13 cycles
 SCF Done:  E(RB3LYP) =  -820.173168931     A.U. after   13 cycles
 SCF Done:  E(RB3LYP) =  -820.174726389     A.U. after   12 cycles
 SCF Done:  E(RB3LYP) =  -820.175561029     A.U. after   13 cycles
 SCF Done:  E(RB3LYP) =  -820.175818942     A.U. after   13 cycles
 SCF Done:  E(RB3LYP) =  -820.176100452     A.U. after   12 cycles
 SCF Done:  E(RB3LYP) =  -820.176185737     A.U. after   11 cycles
 SCF Done:  E(RB3LYP) =  -820.176239536     A.U. after   12 cycles
 SCF Done:  E(RB3LYP) =  -820.176248926     A.U. after   10 cycles
 SCF Done:  E(RB3LYP) =  -820.176384950     A.U. after    9 cycles
 SCF Done:  E(RB3LYP) =  -820.176387473     A.U. after    9 cycles
 SCF Done:  E(RB3LYP) =  -820.176388159     A.U. after    9 cycles
 SCF Done:  E(RB3LYP) =  -820.176388502     A.U. after    8 cycles
 SCF Done:  E(RB3LYP) =  -820.176388606     A.U. after    7 cycles
 Optimization completed.
    -- Stationary point found.
 Normal termination of Gaussian 16 at Sun Dec 13 12:44:58 2020.

 --------------------------------------------------------------------
 #N Geom=AllCheck Guess=TCheck SCRF=Check GenChk RB3LYP/6-31G(d) Freq
 --------------------------------------------------------------------

 Structure from the checkpoint file:  "JID_9817.chk"
 -------------------------------
 CID_107585466_JID_9817_neutraal
 -------------------------------
 Charge =  0 Multiplicity = 1

 SCF Done:  E(RB3LYP) =  -820.176388606     A.U. after    1 cycles

  Exact polarizability: 258.741 -20.269 214.306  26.732  11.946 111.322
 Approx polarizability: 357.969 -51.550 381.493  50.234  23.287 193.274

                      1                      2                      3
                      A                      A                      A
 Frequencies --     20.4668                24.1379                35.5121
 Red. masses --      4.4709                 3.5604                 4.3956
 Frc consts  --      0.0011                 0.0012                 0.0033
 IR Inten    --      0.8663                 0.3117                 1.3552

                      4                      5                      6
                      A                      A                      A
 Frequencies --     53.2914                65.7524                86.7105
 Red. masses --      1.1189                 5.6368                 5.1795
 Frc consts  --      0.0019                 0.0144                 0.0229
 IR Inten    --      0.1580                 0.6466                 4.3535

                      7                      8                      9
                      A                      A                      A
 Frequencies --    105.2541               146.8750               166.6621
 Red. masses --      6.1056                 3.6776                 4.1851
 Frc consts  --      0.0399                 0.0467                 0.0685
 IR Inten    --      0.6948                 6.4512                 0.5128

                     10                     11                     12
                      A                      A                      A
 Frequencies --    206.0168               222.4114               265.1027
 Red. masses --      3.1437                 3.4048                 3.7904
 Frc consts  --      0.0786                 0.0992                 0.1569
 IR Inten    --      2.3720                 5.2263                 2.4052

                     13                     14                     15
                      A                      A                      A
 Frequencies --    277.6444               317.5172               334.9318
 Red. masses --      4.3933                 3.5999                 1.1033
 Frc consts  --      0.1995                 0.2138                 0.0729
 IR Inten    --      5.5650                 7.4954                15.2209

                     16                     17                     18
                      A                      A                      A
 Frequencies --    361.8547               392.1391               413.9805
 Red. masses --      3.3703                 3.5643                 3.6370
 Frc consts  --      0.2600                 0.3229                 0.3672
 IR Inten    --     11.3431                 6.2191                 1.4641

                     19                     20                     21
                      A                      A                      A
 Frequencies --    418.3233               445.1299               461.9300
 Red. masses --      3.3581                 5.4594                 4.0032
 Frc consts  --      0.3462                 0.6373                 0.5033
 IR Inten    --      0.8252                 2.1326                 2.3444

                     22                     23                     24
                      A                      A                      A
 Frequencies --    502.2697               524.2030               540.6313
 Red. masses --      1.8562                 1.8315                 2.4185
 Frc consts  --      0.2759                 0.2965                 0.4165
 IR Inten    --     87.3152               164.0853               131.1093

                     25                     26                     27
                      A                      A                      A
 Frequencies --    544.6324               556.4875               571.7399
 Red. masses --      4.9349                 3.9597                 1.7334
 Frc consts  --      0.8625                 0.7225                 0.3338
 IR Inten    --     14.6174                99.5633               209.0340

                     28                     29                     30
                      A                      A                      A
 Frequencies --    590.1807               659.9232               677.4477
 Red. masses --      3.5738                 6.7594                 7.2696
 Frc consts  --      0.7334                 1.7344                 1.9657
 IR Inten    --     33.5802                 1.0818                 5.8107

                     31                     32                     33
                      A                      A                      A
 Frequencies --    702.8882               727.8458               744.6490
 Red. masses --      3.6649                 2.6698                 5.0989
 Frc consts  --      1.0668                 0.8333                 1.6658
 IR Inten    --     26.3518                21.3467                 8.4603

                     34                     35                     36
                      A                      A                      A
 Frequencies --    792.7228               820.5584               823.9708
 Red. masses --      4.6270                 1.2960                 3.6491
 Frc consts  --      1.7131                 0.5142                 1.4597
 IR Inten    --     14.0424                 2.5972                13.9274

                     37                     38                     39
                      A                      A                      A
 Frequencies --    835.0458               873.4992               878.1805
 Red. masses --      1.9247                 2.5929                 3.3459
 Frc consts  --      0.7907                 1.1656                 1.5203
 IR Inten    --     62.2727                21.3431                 6.1691

                     40                     41                     42
                      A                      A                      A
 Frequencies --    887.6734               917.8900               930.0031
 Red. masses --      1.7559                 2.9899                 1.3923
 Frc consts  --      0.8152                 1.4842                 0.7095
 IR Inten    --      3.5762                 9.7912                 2.7957

                     43                     44                     45
                      A                      A                      A
 Frequencies --    944.2427               950.4607               950.9295
 Red. masses --      1.3255                 1.2997                 1.4824
 Frc consts  --      0.6963                 0.6918                 0.7898
 IR Inten    --      0.7247                 1.9265                 2.7643

                     46                     47                     48
                      A                      A                      A
 Frequencies --   1001.8474              1022.2208              1031.9263
 Red. masses --      2.0082                 1.1602                 2.6582
 Frc consts  --      1.1876                 0.7143                 1.6678
 IR Inten    --      3.1841                48.4919                 0.1744

                     49                     50                     51
                      A                      A                      A
 Frequencies --   1042.1849              1054.2443              1077.4857
 Red. masses --      3.0039                 2.4779                 1.5193
 Frc consts  --      1.9223                 1.6226                 1.0392
 IR Inten    --      5.6113                 5.8999                 5.2238

                     52                     53                     54
                      A                      A                      A
 Frequencies --   1094.2530              1167.6547              1194.5856
 Red. masses --      1.4747                 1.2175                 1.9438
 Frc consts  --      1.0404                 0.9780                 1.6343
 IR Inten    --      2.6139                 9.1926                 9.1389

                     55                     56                     57
                      A                      A                      A
 Frequencies --   1216.5828              1222.9114              1255.0519
 Red. masses --      1.1668                 1.6826                 1.7123
 Frc consts  --      1.0175                 1.4826                 1.5891
 IR Inten    --    103.0544                18.2328                39.4913

                     58                     59                     60
                      A                      A                      A
 Frequencies --   1296.5685              1309.5552              1322.0871
 Red. masses --      5.0287                 2.0497                 3.0800
 Frc consts  --      4.9808                 2.0711                 3.1719
 IR Inten    --     33.0427                39.6892                68.5600

                     61                     62                     63
                      A                      A                      A
 Frequencies --   1337.8939              1341.5545              1357.9907
 Red. masses --      2.7813                 1.8321                 3.1373
 Frc consts  --      2.9332                 1.9428                 3.4087
 IR Inten    --    348.0583                10.4429               284.0910

                     64                     65                     66
                      A                      A                      A
 Frequencies --   1370.5410              1379.7981              1391.0229
 Red. masses --      1.4237                 1.3887                 2.8833
 Frc consts  --      1.5756                 1.5577                 3.2871
 IR Inten    --     18.5091                24.1924                51.7654

                     67                     68                     69
                      A                      A                      A
 Frequencies --   1437.7897              1444.6419              1486.2244
 Red. masses --      1.7880                 1.2607                 2.7118
 Frc consts  --      2.1778                 1.5501                 3.5292
 IR Inten    --      8.7506                 1.4896                79.1454

                     70                     71                     72
                      A                      A                      A
 Frequencies --   1493.3392              1514.9115              1515.9736
 Red. masses --      3.0696                 1.2928                 1.2613
 Frc consts  --      4.0332                 1.7480                 1.7079
 IR Inten    --     23.6198                 2.2130                19.8894

                     73                     74                     75
                      A                      A                      A
 Frequencies --   1534.2157              1571.7656              1624.7026
 Red. masses --      1.5247                 2.6348                 5.7445
 Frc consts  --      2.1145                 3.8350                 8.9340
 IR Inten    --     51.6449                77.9542                19.2706

                     76                     77                     78
                      A                      A                      A
 Frequencies --   1627.4893              1654.2500              1670.5930
 Red. masses --      5.0342                 5.7672                 3.7003
 Frc consts  --      7.8564                 9.2987                 6.0845
 IR Inten    --      1.6077                55.1653               241.3950

                     79                     80                     81
                      A                      A                      A
 Frequencies --   1690.7652              1700.7019              1762.6461
 Red. masses --      1.7687                 2.5867                 7.6124
 Frc consts  --      2.9789                 4.4080                13.9348
 IR Inten    --    204.9362                63.2127               488.8013

                     82                     83                     84
                      A                      A                      A
 Frequencies --   3047.3646              3101.0996              3129.7923
 Red. masses --      1.0374                 1.1009                 1.1011
 Frc consts  --      5.6759                 6.2378                 6.3551
 IR Inten    --     30.5191                16.9719                13.0938

                     85                     86                     87
                      A                      A                      A
 Frequencies --   3166.3311              3176.0907              3179.6964
 Red. masses --      1.0900                 1.0871                 1.0884
 Frc consts  --      6.4385                 6.4609                 6.4835
 IR Inten    --     33.2105                10.4360                10.1214

                     88                     89                     90
                      A                      A                      A
 Frequencies --   3179.8856              3180.4949              3194.0910
 Red. masses --      1.0909                 1.0889                 1.0943
 Frc consts  --      6.4994                 6.4897                 6.5778
 IR Inten    --     14.2438                20.4724                19.2036

                     91                     92                     93
                      A                      A                      A
 Frequencies --   3201.8874              3203.8555              3212.3666
 Red. masses --      1.0912                 1.0909                 1.0896
 Frc consts  --      6.5914                 6.5973                 6.6246
 IR Inten    --     15.3936                 1.1058                16.8702

                     94                     95                     96
                      A                      A                      A
 Frequencies --   3563.2347              3576.1652              3664.6058
 Red. masses --      1.0474                 1.0751                 1.0993
 Frc consts  --      7.8356                 8.1010                 8.6980
 IR Inten    --     39.1766                35.3797                12.4094

 - Thermochemistry -
 -------------------
 Temperature   298.150 Kelvin.  Pressure   1.00000 Atm.
 Atom     1 has atomic number  6 and mass  12.00000

 Molecular mass:   253.12151 amu.
 Principal axes and moments of inertia in atomic units:
                           1         2         3
     Eigenvalues --  3296.656089151.77346**********
           X            0.99987   0.01257   0.01002
           Y           -0.01276   0.99973   0.01945
           Z           -0.00977  -0.01957   0.99976
 This molecule is an asymmetric top.
 Rotational symmetry number  1.
 Warning -- assumption of classical behavior for rotation
           may cause significant error
 Rotational temperatures (Kelvin)      0.02627     0.00946     0.00755
 Rotational constants (GHZ):           0.54745     0.19720     0.15729
 Zero-point vibrational energy     722333.0 (Joules/Mol)
                                  172.64174 (Kcal/Mol)
 Warning -- explicit consideration of  28 degrees of freedom as
           vibrations may cause significant error
 Vibrational temperatures:     29.45    34.73    51.09    76.67    94.60
          (Kelvin)            124.76   151.44   211.32   239.79   296.41
                              320.00   381.42   399.47   456.84   481.89
                              520.63   564.20   595.63   601.87   640.44
                              664.61   722.65   754.21   777.85   783.60
                              800.66   822.61   849.14   949.48   974.70
                             1011.30  1047.21  1071.38  1140.55  1180.60
                             1185.51  1201.44  1256.77  1263.51  1277.16
                             1320.64  1338.07  1358.55  1367.50  1368.18
                             1441.43  1470.75  1484.71  1499.47  1516.82
                             1550.26  1574.39  1679.99  1718.74  1750.39
                             1759.50  1805.74  1865.47  1884.16  1902.19
                             1924.93  1930.20  1953.85  1971.90  1985.22
                             2001.37  2068.66  2078.52  2138.35  2148.58
                             2179.62  2181.15  2207.39  2261.42  2337.58
                             2341.59  2380.10  2403.61  2432.63  2446.93
                             2536.05  4384.48  4461.79  4503.07  4555.64
                             4569.69  4574.87  4575.15  4576.02  4595.58
                             4606.80  4609.63  4621.88  5126.70  5145.30
                             5272.55

 Zero-point correction=                           0.275122 (Hartree/Particle)
 Thermal correction to Energy=                    0.292579
 Thermal correction to Enthalpy=                  0.293524
 Thermal correction to Gibbs Free Energy=         0.227088
 Sum of electronic and zero-point Energies=           -819.901266
 Sum of electronic and thermal Energies=              -819.883809
 Sum of electronic and thermal Enthalpies=            -819.882865
 Sum of electronic and thermal Free Energies=         -819.949300

                     E (Thermal)             CV                S
                      KCal/Mol        Cal/Mol-Kelvin    Cal/Mol-Kelvin
 Total                  183.596             66.320            139.824
 Electronic               0.000              0.000              0.000
 Translational            0.889              2.981             42.486
 Rotational               0.889              2.981             34.203
 Vibrational            181.819             60.359             63.135
 Vibration     1          0.593              1.986              6.588
 Vibration     2          0.593              1.985              6.261
 Vibration     3          0.594              1.982              5.495
 Vibration     4          0.596              1.976              4.691
 Vibration     5          0.597              1.971              4.277
 Vibration     6          0.601              1.958              3.733
 Vibration     7          0.605              1.945              3.355
 Vibration     8          0.617              1.906              2.712
 Vibration     9          0.624              1.883              2.473
 Vibration    10          0.640              1.831              2.079
 Vibration    11          0.648              1.807              1.939
 Vibration    12          0.671              1.737              1.628
 Vibration    13          0.679              1.715              1.548
 Vibration    14          0.704              1.640              1.323
 Vibration    15          0.716              1.606              1.236
 Vibration    16          0.736              1.551              1.114
 Vibration    17          0.760              1.487              0.992
 Vibration    18          0.778              1.440              0.913
 Vibration    19          0.781              1.430              0.898
 Vibration    20          0.805              1.372              0.811
 Vibration    21          0.820              1.334              0.761
 Vibration    22          0.858              1.245              0.652
 Vibration    23          0.879              1.196              0.600
 Vibration    24          0.896              1.160              0.564
 Vibration    25          0.900              1.151              0.555
 Vibration    26          0.912              1.126              0.531
 Vibration    27          0.928              1.092              0.501
 Vibration    28          0.948              1.053              0.467

                           ! Non-Optimized Parameters !
 Normal termination of Gaussian 16 at Sun Dec 13 13:00:49 2020.

 ----------------------------------------------------------------------
 # B3LYP/6-311++G(d,p) empiricaldispersion=gd3bj scf=xqc pop=npa geom=c
 heck
 ----------------------------------------------------------------------

 ---------------------------------------
 CID_107585466_JID_9817_Energie_neutraal
 ---------------------------------------
 Structure from the checkpoint file:  "JID_9817.chk"
 Charge =  0 Multiplicity = 1

 SCF Done:  E(RB3LYP) =  -820.404145978     A.U. after   16 cycles
 Normal termination of Gaussian 16 at Sun Dec 13 13:08:11 2020.

 ----------------------------------------------------------------------
 # B3LYP/6-311++G(d,p) empiricaldispersion=gd3bj scf=xqc pop=npa geom=c
 heck
 ----------------------------------------------------------------------

 -------------------------------------
 CID_107585466_JID_9817_Energie_kation
 -------------------------------------
 Structure from the checkpoint file:  "JID_9817.chk"
 Charge =  1 Multiplicity = 2

 SCF Done:  E(UB3LYP) =  -820.134371411     A.U. after   24 cycles
 Normal termination of Gaussian 16 at Sun Dec 13 13:24:17 2020.
 Gaussian 16:  ES64L-G16RevA.03 25-Dec-2016

 ----------------------------------------------------------------------
 # B3LYP/6-311++G(d,p) empiricaldispersion=gd3bj scf=xqc pop=npa geom=c
 heck
 ----------------------------------------------------------------------

 ------------------------------------
 CID_107585466_JID_9817_Energie_anion
 ------------------------------------
 Structure from the checkpoint file:  "JID_9817.chk"
 Charge = -1 Multiplicity = 2

                         Standard orientation:
 ---------------------------------------------------------------------
 Center     Atomic      Atomic             Coordinates (Angstroms)
 Number     Number       Type             X           Y           Z
 ---------------------------------------------------------------------
      1          6           0       -4.396427   -2.638332   -0.958980
      2          6           0       -3.541646   -1.669270   -0.183595
      3          6           0       -3.278827   -0.382535   -0.661728
      4          6           0       -2.491402    0.492090    0.088772
      5          6           0       -1.997188    0.034977    1.322467
      6          7           0       -2.217079   -1.195150    1.781677
      7          6           0       -2.969379   -2.020077    1.042556
      8          7           0       -2.256526    1.799812   -0.384319
      9          6           0       -1.169222    2.648774   -0.177960
     10          8           0       -1.330771    3.860815   -0.274492
     11          6           0        0.168498    2.073427    0.066865
     12          6           0        0.593970    0.876891   -0.385286
     13          6           0        1.929172    0.309812   -0.265791
     14          6           0        3.013133    0.986014    0.327511
     15          6           0        4.260831    0.396346    0.432623
     16          6           0        4.484692   -0.907002   -0.054175
     17          6           0        3.412038   -1.590842   -0.651225
     18          6           0        2.166956   -0.988215   -0.752419
     19          7           0        5.749868   -1.476266    0.005333
     20          1           0       -4.027852   -2.766008   -1.983528
     21          1           0       -4.410054   -3.622401   -0.480871
     22          1           0       -5.433048   -2.286618   -1.029018
     23          1           0       -3.675921   -0.057558   -1.621035
     24          1           0       -1.395820    0.692477    1.943522
     25          1           0       -3.134478   -3.015178    1.453177
     26          1           0       -3.065662    2.313836   -0.714354
     27          1           0        0.844388    2.773429    0.548208
     28          1           0       -0.120367    0.240544   -0.902794
     29          1           0        2.875942    1.991664    0.712511
     30          1           0        5.082263    0.942279    0.890248
     31          1           0        3.564655   -2.595910   -1.036552
     32          1           0        1.348209   -1.536376   -1.212001
     33          1           0        5.781623   -2.486195   -0.044081
     34          1           0        6.367262   -1.105606    0.715858
 ---------------------------------------------------------------------

 SCF Done:  E(UB3LYP) =  -820.418897537     A.U. after   33 cycles
 SCF Done:  E(UB3LYP) =  -820.418897537     a.u. after    1 cycles

 The electronic state is 2-A.
 Alpha  occ. eigenvalues --  -18.93314 -14.21368 -14.21183 -14.20064 -10.11509
 Alpha  occ. eigenvalues --  -10.10763 -10.08998 -10.08964 -10.08915 -10.08843
 Alpha  occ. eigenvalues --  -10.08367 -10.07654 -10.04848 -10.04711 -10.04438
 Alpha  occ. eigenvalues --  -10.03989 -10.03800 -10.01851 -10.01045  -0.89123
 Alpha  occ. eigenvalues --   -0.83746  -0.81323  -0.79625  -0.72025  -0.71187
 Alpha  occ. eigenvalues --   -0.65591  -0.64692  -0.62439  -0.60524  -0.59184
 Alpha  occ. eigenvalues --   -0.52737  -0.52062  -0.50282  -0.49359  -0.45634
 Alpha  occ. eigenvalues --   -0.43153  -0.41641  -0.40548  -0.40314  -0.39525
 Alpha  occ. eigenvalues --   -0.38269  -0.35004  -0.34201  -0.33320  -0.32158
 Alpha  occ. eigenvalues --   -0.31460  -0.31064  -0.30250  -0.29653  -0.29385
 Alpha  occ. eigenvalues --   -0.28989  -0.27578  -0.27269  -0.27081  -0.26004
 Alpha  occ. eigenvalues --   -0.24554  -0.22703  -0.21326  -0.21211  -0.19100
 Alpha  occ. eigenvalues --   -0.16689  -0.15160  -0.14333  -0.13551  -0.11639
 Alpha  occ. eigenvalues --   -0.11160  -0.07596   0.03651
 Alpha virt. eigenvalues --    0.06333   0.06380   0.06884   0.08635   0.08674
 Alpha virt. eigenvalues --    0.08914   0.09489   0.09810   0.10621   0.10681
 Alpha virt. eigenvalues --    0.11546   0.11858   0.12181   0.13140   0.13320

  Beta  occ. eigenvalues --  -18.92972 -14.21309 -14.21222 -14.20061 -10.11326
  Beta  occ. eigenvalues --  -10.10678 -10.08963 -10.08933 -10.08913 -10.08850
  Beta  occ. eigenvalues --  -10.08092 -10.07618 -10.04940 -10.04781 -10.04322
  Beta  occ. eigenvalues --  -10.03836 -10.03774 -10.01507 -10.00926  -0.88617
  Beta  occ. eigenvalues --   -0.83663  -0.81113  -0.79464  -0.71809  -0.71145
  Beta  occ. eigenvalues --   -0.65415  -0.64244  -0.62287  -0.60471  -0.58826
  Beta  occ. eigenvalues --   -0.52590  -0.51777  -0.49891  -0.49176  -0.45399
  Beta  occ. eigenvalues --   -0.42923  -0.41561  -0.40413  -0.40213  -0.39445
  Beta  occ. eigenvalues --   -0.38193  -0.34824  -0.34173  -0.33112  -0.32123
  Beta  occ. eigenvalues --   -0.31316  -0.31003  -0.30173  -0.29621  -0.29192
  Beta  occ. eigenvalues --   -0.28745  -0.27259  -0.26987  -0.26445  -0.25303
  Beta  occ. eigenvalues --   -0.24297  -0.22491  -0.21046  -0.20488  -0.18520
  Beta  occ. eigenvalues --   -0.16435  -0.15103  -0.13131  -0.13014  -0.11289
  Beta  occ. eigenvalues --   -0.10642  -0.06510
  Beta virt. eigenvalues --    0.06280   0.06373   0.07029   0.08431   0.08605
  Beta virt. eigenvalues --    0.08812   0.09445   0.09511   0.09994   0.10625
  Beta virt. eigenvalues --    0.11008   0.11534   0.11867   0.12137   0.13122

 Mulliken charges and spin densities:
               1          2
     1  C   -0.585869  -0.019314
     2  C    0.291572  -0.006578
     3  C    0.172320   0.182708
     4  C    0.339603  -0.049385
     5  C   -0.696262  -0.061394
     6  N    0.034943  -0.001159
     7  C   -0.703149   0.051780
     8  N   -0.236609  -0.027281
     9  C   -0.275030   0.103663
    10  O   -0.397032   0.118009
    11  C   -0.158650   0.119250
    12  C    0.116121   0.203997
    13  C    0.973833  -0.047265
    14  C   -0.408293   0.171748
    15  C   -0.375537  -0.083681
    16  C   -0.343410   0.169721
    17  C   -0.370506  -0.043473
    18  C   -0.318761   0.101607
    19  N   -0.341164   0.017506
    20  H    0.149449  -0.002963
    21  H    0.125707   0.005136
    22  H    0.141559   0.004524
    23  H    0.152015   0.029552
    24  H    0.206685   0.012398
    25  H    0.132807  -0.002397
    26  H    0.260894   0.028691
    27  H    0.183207  -0.006552
    28  H    0.156471  -0.023106
    29  H    0.064812  -0.010736
    30  H    0.123124   0.002259
    31  H    0.109187   0.006813
    32  H    0.095694  -0.003708
    33  H    0.185919   0.033994
    34  H    0.194352   0.025634
 Sum of Mulliken charges =  -1.00000   1.00000

 Dipole moment (field-independent basis, Debye):
    X=             -1.3930    Y=             -6.6982    Z=             -0.7733  Tot=              6.8850
 Quadrupole moment (field-independent basis, Debye-Ang):
   XX=           -141.2223   YY=           -151.3963   ZZ=           -126.6884
   XY=              6.3519   XZ=             14.1426   YZ=              7.5923

 Summary of Natural Population Analysis:

                                       Natural Population
                Natural  -----------------------------------------------
    Atom  No    Charge         Core      Valence    Rydberg      Total
 -----------------------------------------------------------------------
      C    1   -0.29106      0.99964     2.28673    0.00469     3.29106
      C    2   -0.03956      0.99952     2.03284    0.00721     3.03956
      C    3   -0.09719      0.99948     2.08911    0.00860     3.09719
      C    4    0.08120      0.99947     1.90714    0.01218     2.91880
      C    5    0.02237      0.99954     1.96485    0.01324     2.97763
      N    6   -0.22709      0.99971     2.71536    0.01202     3.72709
      C    7    0.01818      0.99954     1.96825    0.01404     2.98182
      N    8   -0.33167      0.99965     2.82055    0.01147     3.83167
      C    9    0.34977      0.99965     1.62893    0.02165     2.65023
      O   10   -0.29593      0.99988     3.28970    0.00635     4.29593
      C   11   -0.13551      0.99950     2.12752    0.00849     3.13551
      C   12   -0.00952      0.99952     2.00187    0.00812     3.00952
      C   13   -0.06128      0.99951     2.05289    0.00889     3.06128
      C   14   -0.03643      0.99954     2.02892    0.00798     3.03643
      C   15   -0.15155      0.99954     2.14359    0.00841     3.15155
      C   16    0.12449      0.99951     1.86655    0.00945     2.87551
      C   17   -0.15355      0.99954     2.14537    0.00865     3.15355
      C   18   -0.05271      0.99954     2.04499    0.00817     3.05271
      N   19   -0.39428      0.99972     2.88505    0.00951     3.89428
      H   20    0.10111      0.00000     0.39791    0.00099     0.39889
      H   21    0.09964      0.00000     0.39939    0.00097     0.40036
      H   22    0.09980      0.00000     0.39916    0.00104     0.40020
      H   23    0.09688      0.00000     0.40149    0.00163     0.40312
      H   24    0.10121      0.00000     0.39746    0.00133     0.39879
      H   25    0.08244      0.00000     0.41636    0.00120     0.41756
      H   26    0.19206      0.00000     0.30567    0.00228     0.30794
      H   27    0.09477      0.00000     0.40379    0.00144     0.40523
      H   28    0.08653      0.00000     0.41185    0.00162     0.41347
      H   29    0.09447      0.00000     0.40409    0.00145     0.40553
      H   30    0.09007      0.00000     0.40848    0.00144     0.40993
      H   31    0.09047      0.00000     0.40799    0.00154     0.40953
      H   32    0.09263      0.00000     0.40591    0.00145     0.40737
      H   33    0.17974      0.00000     0.31853    0.00172     0.32026
      H   34    0.17951      0.00000     0.31874    0.00175     0.32049
 =======================================================================
   * Total *   -0.00000     18.99200    47.79702    0.21098    67.00000

 Normal termination of Gaussian 16 at Sun Dec 13 13:46:23 2020.
