 Gaussian 16, Revision A.03,

 -----------------------------------------------------------
 # opt freq B3LYP/6-31G(d) empiricaldispersion=gd3bj scf=xqc
 -----------------------------------------------------------

 ------------------------------
 CID_5353125_JID_10747_neutraal
 ------------------------------
 Symbolic Z-matrix:
 Charge =  0 Multiplicity = 1

 SCF Done:  E(RB3LYP) =  -938.662559505     A.U. after   16 cycles
 SCF Done:  E(RB3LYP) =  -938.665911851     A.U. after   14 cycles
 SCF Done:  E(RB3LYP) =  -938.666012659     A.U. after   14 cycles
 SCF Done:  E(RB3LYP) =  -938.666263398     A.U. after   16 cycles
 SCF Done:  E(RB3LYP) =  -938.666672980     A.U. after   13 cycles
 SCF Done:  E(RB3LYP) =  -938.666647832     A.U. after   12 cycles
 SCF Done:  E(RB3LYP) =  -938.665411746     A.U. after   14 cycles
 SCF Done:  E(RB3LYP) =  -938.666723440     A.U. after   12 cycles
 SCF Done:  E(RB3LYP) =  -938.666729449     A.U. after   11 cycles
 SCF Done:  E(RB3LYP) =  -938.666731409     A.U. after    9 cycles
 SCF Done:  E(RB3LYP) =  -938.666731613     A.U. after    8 cycles
 SCF Done:  E(RB3LYP) =  -938.666731663     A.U. after    8 cycles
 Optimization completed.
    -- Stationary point found.
 Normal termination of Gaussian 16 at Sat Dec 12 16:27:16 2020.

 --------------------------------------------------------------------
 #N Geom=AllCheck Guess=TCheck SCRF=Check GenChk RB3LYP/6-31G(d) Freq
 --------------------------------------------------------------------

 Structure from the checkpoint file:  "JID_10747.chk"
 ------------------------------
 CID_5353125_JID_10747_neutraal
 ------------------------------
 Charge =  0 Multiplicity = 1

 SCF Done:  E(RB3LYP) =  -938.666731663     A.U. after    1 cycles

  Exact polarizability: 257.875  -8.529 143.790   8.285  22.932 148.174
 Approx polarizability: 319.287 -15.570 231.809  18.158  68.804 261.695

                      1                      2                      3
                      A                      A                      A
 Frequencies --     10.2798                24.2826                26.9440
 Red. masses --      4.4630                 4.2695                 5.2275
 Frc consts  --      0.0003                 0.0015                 0.0022
 IR Inten    --      0.0703                 0.0058                 0.0816

                      4                      5                      6
                      A                      A                      A
 Frequencies --     45.6347                58.3602                65.1944
 Red. masses --      3.3753                 6.8770                 5.5894
 Frc consts  --      0.0041                 0.0138                 0.0140
 IR Inten    --      0.1567                 0.0438                 0.1568

                      7                      8                      9
                      A                      A                      A
 Frequencies --     77.3719                92.5663               107.0188
 Red. masses --      2.6949                 6.5542                 5.5231
 Frc consts  --      0.0095                 0.0331                 0.0373
 IR Inten    --      0.0454                 3.3380                 3.3349

                     10                     11                     12
                      A                      A                      A
 Frequencies --    122.5601               154.3216               197.4818
 Red. masses --      3.1935                 2.8259                 1.9183
 Frc consts  --      0.0283                 0.0397                 0.0441
 IR Inten    --      0.2571                 0.0919                 3.7978

                     13                     14                     15
                      A                      A                      A
 Frequencies --    216.8699               231.3885               245.4683
 Red. masses --      2.2761                 4.4923                 1.3310
 Frc consts  --      0.0631                 0.1417                 0.0473
 IR Inten    --      1.6929                 4.6287                 0.1171

                     16                     17                     18
                      A                      A                      A
 Frequencies --    252.0096               271.4480               286.8039
 Red. masses --      4.2065                 2.5372                 1.6525
 Frc consts  --      0.1574                 0.1101                 0.0801
 IR Inten    --      0.4582                 0.0406                 0.3209

                     19                     20                     21
                      A                      A                      A
 Frequencies --    309.8180               340.3622               368.3345
 Red. masses --      7.9848                 3.3863                 2.4622
 Frc consts  --      0.4516                 0.2311                 0.1968
 IR Inten    --      4.9012                 1.9662                 3.8759

                     22                     23                     24
                      A                      A                      A
 Frequencies --    418.2753               421.0986               455.8597
 Red. masses --      3.3201                 3.0534                 3.1540
 Frc consts  --      0.3422                 0.3190                 0.3862
 IR Inten    --      0.2495                 0.0045                 2.2691

                     25                     26                     27
                      A                      A                      A
 Frequencies --    470.0782               480.4765               508.4655
 Red. masses --      3.0990                 3.1667                 4.8576
 Frc consts  --      0.4035                 0.4307                 0.7399
 IR Inten    --      0.2994                 4.5751                12.3943

                     28                     29                     30
                      A                      A                      A
 Frequencies --    521.3242               545.6373               583.6349
 Red. masses --      3.7959                 6.2006                 3.6869
 Frc consts  --      0.6078                 1.0877                 0.7399
 IR Inten    --      6.2702                 3.8016                 1.5704

                     31                     32                     33
                      A                      A                      A
 Frequencies --    644.5169               679.2924               727.7257
 Red. masses --      7.1192                 5.3695                 3.5202
 Frc consts  --      1.7424                 1.4598                 1.0984
 IR Inten    --      0.4083                 1.7213                62.2958

                     34                     35                     36
                      A                      A                      A
 Frequencies --    733.3684               746.4788               787.7959
 Red. masses --      5.2456                 1.2712                 6.6187
 Frc consts  --      1.6622                 0.4174                 2.4202
 IR Inten    --      6.8952                10.8726                 1.6710

                     37                     38                     39
                      A                      A                      A
 Frequencies --    811.1980               837.7073               847.1668
 Red. masses --      2.4875                 4.9686                 2.7862
 Frc consts  --      0.9644                 2.0543                 1.1782
 IR Inten    --      9.2546                60.3343                19.4078

                     40                     41                     42
                      A                      A                      A
 Frequencies --    856.7733               862.4318               868.2067
 Red. masses --      1.9960                 1.2509                 1.8863
 Frc consts  --      0.8632                 0.5482                 0.8377
 IR Inten    --      3.6207                 0.1380                 7.5018

                     43                     44                     45
                      A                      A                      A
 Frequencies --    885.3369               897.0583               930.8921
 Red. masses --      4.2817                 1.7988                 2.0320
 Frc consts  --      1.9773                 0.8528                 1.0375
 IR Inten    --     20.2016                19.5598                21.9659

                     46                     47                     48
                      A                      A                      A
 Frequencies --    966.9597               972.8048               992.8844
 Red. masses --      1.9421                 1.5174                 1.3330
 Frc consts  --      1.0699                 0.8461                 0.7743
 IR Inten    --      1.4938                 3.5434                 0.2195

                     49                     50                     51
                      A                      A                      A
 Frequencies --   1006.1731              1024.8922              1037.9276
 Red. masses --      1.3106                 1.1252                 2.8692
 Frc consts  --      0.7818                 0.6964                 1.8212
 IR Inten    --      0.0700                31.8417                23.4181

                     52                     53                     54
                      A                      A                      A
 Frequencies --   1042.3997              1069.7957              1086.5765
 Red. masses --      1.5919                 2.2860                 2.0762
 Frc consts  --      1.0192                 1.5415                 1.4442
 IR Inten    --      3.2130                54.1239                18.9092

                     55                     56                     57
                      A                      A                      A
 Frequencies --   1115.9054              1130.9531              1134.0368
 Red. masses --      1.8136                 1.4702                 3.1649
 Frc consts  --      1.3306                 1.1079                 2.3981
 IR Inten    --      2.2228                76.8611                30.2546

                     58                     59                     60
                      A                      A                      A
 Frequencies --   1136.7339              1144.0473              1166.8250
 Red. masses --      1.8274                 2.8928                 2.2610
 Frc consts  --      1.3912                 2.2308                 1.8137
 IR Inten    --      0.8671               153.3646                68.0032

                     61                     62                     63
                      A                      A                      A
 Frequencies --   1187.9372              1204.8947              1236.3039
 Red. masses --      2.0067                 1.2492                 1.4195
 Frc consts  --      1.6684                 1.0685                 1.2783
 IR Inten    --     50.5661                16.6293                 1.2684

                     64                     65                     66
                      A                      A                      A
 Frequencies --   1273.7457              1304.4802              1314.3761
 Red. masses --      1.3456                 2.6116                 1.4834
 Frc consts  --      1.2862                 2.6184                 1.5099
 IR Inten    --      0.0293               479.8806               182.6993

                     67                     68                     69
                      A                      A                      A
 Frequencies --   1327.7016              1336.1634              1344.1766
 Red. masses --      1.2900                 1.1629                 1.2770
 Frc consts  --      1.3398                 1.2232                 1.3595
 IR Inten    --      1.8051                 4.5815                12.9979

                     70                     71                     72
                      A                      A                      A
 Frequencies --   1368.8762              1383.0690              1395.1004
 Red. masses --      1.4097                 8.1412                 1.4990
 Frc consts  --      1.5564                 9.1754                 1.7190
 IR Inten    --      0.4883                23.8416                74.1382

                     73                     74                     75
                      A                      A                      A
 Frequencies --   1397.1485              1401.8941              1407.4968
 Red. masses --      1.4069                 5.4078                 1.5089
 Frc consts  --      1.6180                 6.2619                 1.7612
 IR Inten    --     97.2724               190.1882                 3.2595

                     76                     77                     78
                      A                      A                      A
 Frequencies --   1427.2815              1430.7622              1444.3911
 Red. masses --      1.3809                 1.2757                 1.2600
 Frc consts  --      1.6574                 1.5387                 1.5487
 IR Inten    --      3.0159                17.1883                 7.9742

                     79                     80                     81
                      A                      A                      A
 Frequencies --   1452.9164              1509.7526              1515.4947
 Red. masses --      3.4420                 1.0805                 1.0483
 Frc consts  --      4.2809                 1.4511                 1.4185
 IR Inten    --     18.1155                 3.0956                10.5774

                     82                     83                     84
                      A                      A                      A
 Frequencies --   1520.2388              1524.2083              1534.3642
 Red. masses --      1.0980                 1.0570                 1.0578
 Frc consts  --      1.4951                 1.4468                 1.4673
 IR Inten    --      7.2549                 1.3628                 7.7556

                     85                     86                     87
                      A                      A                      A
 Frequencies --   1536.1128              1537.1329              1541.0407
 Red. masses --      1.2798                 1.7096                 1.0689
 Frc consts  --      1.7792                 2.3799                 1.4955
 IR Inten    --      3.9212                 1.8987                 2.5535

                     88                     89                     90
                      A                      A                      A
 Frequencies --   1621.7973              1660.8363              1673.4319
 Red. masses --     10.5952                 5.9024                 9.7468
 Frc consts  --     16.4193                 9.5925                16.0816
 IR Inten    --    109.7616                 1.7754               100.1202

                     91                     92                     93
                      A                      A                      A
 Frequencies --   1750.2153              1791.8609              3031.9441
 Red. masses --      6.0464                11.9130                 1.0619
 Frc consts  --     10.9126                22.5362                 5.7513
 IR Inten    --     15.6523               172.2747                26.5694

                     94                     95                     96
                      A                      A                      A
 Frequencies --   3035.4532              3040.2394              3046.0423
 Red. masses --      1.0624                 1.0617                 1.0394
 Frc consts  --      5.7672                 5.7818                 5.6818
 IR Inten    --     25.0752                 9.1032                28.0943

                     97                     98                     99
                      A                      A                      A
 Frequencies --   3065.9700              3067.2407              3075.6321
 Red. masses --      1.0377                 1.0982                 1.0998
 Frc consts  --      5.7471                 6.0876                 6.1295
 IR Inten    --     15.3822                27.7664                41.4371

                    100                    101                    102
                      A                      A                      A
 Frequencies --   3086.0805              3097.9211              3109.8584
 Red. masses --      1.1017                 1.0865                 1.1021
 Frc consts  --      6.1822                 6.1436                 6.2798
 IR Inten    --     46.1875                13.1058                59.3309

                    103                    104                    105
                      A                      A                      A
 Frequencies --   3115.6024              3131.3065              3138.8125
 Red. masses --      1.1017                 1.1027                 1.0888
 Frc consts  --      6.3009                 6.3703                 6.3202
 IR Inten    --     49.5805                28.2588                25.5811

                    106                    107                    108
                      A                      A                      A
 Frequencies --   3170.1805              3201.1619              3235.3364
 Red. masses --      1.1007                 1.0892                 1.0900
 Frc consts  --      6.5178                 6.5763                 6.7223
 IR Inten    --      8.8391                 4.3588                 0.8465

                    109                    110                    111
                      A                      A                      A
 Frequencies --   3242.8825              3257.4107              3258.3474
 Red. masses --      1.0893                 1.0930                 1.0942
 Frc consts  --      6.7490                 6.8334                 6.8444
 IR Inten    --      0.8701                 0.5978                 0.8294

 - Thermochemistry -
 -------------------
 Temperature   298.150 Kelvin.  Pressure   1.00000 Atm.
 Atom     1 has atomic number  6 and mass  12.00000

 Molecular mass:   277.13141 amu.
 Principal axes and moments of inertia in atomic units:
                           1         2         3
     Eigenvalues --  2230.76425********************
           X            0.99994   0.01126  -0.00050
           Y           -0.01127   0.99980  -0.01663
           Z            0.00031   0.01663   0.99986
 This molecule is an asymmetric top.
 Rotational symmetry number  1.
 Warning -- assumption of classical behavior for rotation
           may cause significant error
 Rotational temperatures (Kelvin)      0.03883     0.00478     0.00460
 Rotational constants (GHZ):           0.80902     0.09960     0.09580
 Zero-point vibrational energy     848253.2 (Joules/Mol)
                                  202.73738 (Kcal/Mol)
 Warning -- explicit consideration of  30 degrees of freedom as
           vibrations may cause significant error
 Vibrational temperatures:     14.79    34.94    38.77    65.66    83.97
          (Kelvin)             93.80   111.32   133.18   153.98   176.34
                              222.03   284.13   312.03   332.92   353.17
                              362.59   390.55   412.65   445.76   489.71
                              529.95   601.80   605.87   655.88   676.34
                              691.30   731.57   750.07   785.05   839.72
                              927.32   977.35  1047.03  1055.15  1074.02
                             1133.46  1167.13  1205.27  1218.88  1232.71
                             1240.85  1249.16  1273.80  1290.67  1339.35
                             1391.24  1399.65  1428.54  1447.66  1474.59
                             1493.35  1499.78  1539.20  1563.34  1605.54
                             1627.19  1631.63  1635.51  1646.03  1678.80
                             1709.18  1733.57  1778.77  1832.64  1876.86
                             1891.09  1910.27  1922.44  1933.97  1969.51
                             1989.93  2007.24  2010.19  2017.01  2025.07
                             2053.54  2058.55  2078.16  2090.42  2172.20
                             2180.46  2187.28  2193.00  2207.61  2210.12
                             2211.59  2217.21  2333.40  2389.57  2407.70
                             2518.17  2578.09  4362.29  4367.34  4374.23
                             4382.58  4411.25  4413.08  4425.15  4440.18
                             4457.22  4474.39  4482.66  4505.25  4516.05
                             4561.18  4605.76  4654.93  4665.78  4686.69
                             4688.04

 Zero-point correction=                           0.323083 (Hartree/Particle)
 Thermal correction to Energy=                    0.343231
 Thermal correction to Enthalpy=                  0.344175
 Thermal correction to Gibbs Free Energy=         0.270195
 Sum of electronic and zero-point Energies=           -938.343649
 Sum of electronic and thermal Energies=              -938.323501
 Sum of electronic and thermal Enthalpies=            -938.322557
 Sum of electronic and thermal Free Energies=         -938.396536

                     E (Thermal)             CV                S
                      KCal/Mol        Cal/Mol-Kelvin    Cal/Mol-Kelvin
 Total                  215.380             73.788            155.702
 Electronic               0.000              0.000              0.000
 Translational            0.889              2.981             42.756
 Rotational               0.889              2.981             34.986
 Vibrational            213.603             67.826             77.960
 Vibration     1          0.593              1.987              7.956
 Vibration     2          0.593              1.985              6.249
 Vibration     3          0.593              1.984              6.043
 Vibration     4          0.595              1.979              4.998
 Vibration     5          0.596              1.974              4.512
 Vibration     6          0.597              1.971              4.293
 Vibration     7          0.599              1.964              3.956
 Vibration     8          0.602              1.954              3.605
 Vibration     9          0.606              1.944              3.322
 Vibration    10          0.610              1.930              3.060
 Vibration    11          0.620              1.898              2.618
 Vibration    12          0.637              1.843              2.156
 Vibration    13          0.646              1.815              1.985
 Vibration    14          0.653              1.793              1.868
 Vibration    15          0.660              1.770              1.763
 Vibration    16          0.664              1.759              1.716
 Vibration    17          0.675              1.726              1.587
 Vibration    18          0.684              1.698              1.493
 Vibration    19          0.699              1.655              1.363
 Vibration    20          0.720              1.595              1.210
 Vibration    21          0.741              1.537              1.087
 Vibration    22          0.781              1.431              0.898
 Vibration    23          0.784              1.424              0.888
 Vibration    24          0.814              1.348              0.778
 Vibration    25          0.827              1.316              0.737
 Vibration    26          0.837              1.293              0.709
 Vibration    27          0.864              1.231              0.637
 Vibration    28          0.876              1.203              0.607
 Vibration    29          0.901              1.149              0.553
 Vibration    30          0.941              1.067              0.479

                           ! Non-Optimized Parameters !
 Normal termination of Gaussian 16 at Sat Dec 12 16:41:27 2020.

 ----------------------------------------------------------------------
 # B3LYP/6-311++G(d,p) empiricaldispersion=gd3bj scf=xqc pop=npa geom=c
 heck
 ----------------------------------------------------------------------

 --------------------------------------
 CID_5353125_JID_10747_Energie_neutraal
 --------------------------------------
 Structure from the checkpoint file:  "JID_10747.chk"
 Charge =  0 Multiplicity = 1

 SCF Done:  E(RB3LYP) =  -938.930878727     A.U. after   15 cycles
 Normal termination of Gaussian 16 at Sat Dec 12 16:47:31 2020.

 ----------------------------------------------------------------------
 # B3LYP/6-311++G(d,p) empiricaldispersion=gd3bj scf=xqc pop=npa geom=c
 heck
 ----------------------------------------------------------------------

 ------------------------------------
 CID_5353125_JID_10747_Energie_kation
 ------------------------------------
 Structure from the checkpoint file:  "JID_10747.chk"
 Charge =  1 Multiplicity = 2

 SCF Done:  E(UB3LYP) =  -938.596476560     A.U. after   33 cycles
 SCF Done:  E(UB3LYP) =  -938.596477067     a.u. after    3 cycles
 Normal termination of Gaussian 16 at Sat Dec 12 17:40:37 2020.
 Gaussian 16:  ES64L-G16RevA.03 25-Dec-2016

 ----------------------------------------------------------------------
 # B3LYP/6-311++G(d,p) empiricaldispersion=gd3bj scf=xqc pop=npa geom=c
 heck
 ----------------------------------------------------------------------

 -----------------------------------
 CID_5353125_JID_10747_Energie_anion
 -----------------------------------
 Structure from the checkpoint file:  "JID_10747.chk"
 Charge = -1 Multiplicity = 2

                         Standard orientation:
 ---------------------------------------------------------------------
 Center     Atomic      Atomic             Coordinates (Angstroms)
 Number     Number       Type             X           Y           Z
 ---------------------------------------------------------------------
      1          6           0       -6.539074   -2.344191   -0.303262
      2          6           0       -6.522051   -0.814717   -0.223244
      3          6           0       -5.854737   -0.261485    1.044518
      4          6           0       -4.380787   -0.676246    1.244605
      5          6           0       -3.492899   -0.288866    0.097109
      6          6           0       -2.561814    0.666965    0.143251
      7          6           0       -1.742424    1.060098   -1.050470
      8          6           0       -1.807245    2.548094   -1.384303
      9          8           0       -0.340368    0.621697   -0.927884
     10          6           0        0.409584    1.080986    0.084552
     11          8           0        0.034829    1.858080    0.942454
     12          6           0        1.797170    0.520074    0.044549
     13          6           0        2.693063    0.932263    1.039185
     14          6           0        3.994841    0.446370    1.055390
     15          6           0        4.379670   -0.453979    0.064074
     16          6           0        3.508602   -0.880367   -0.935683
     17          6           0        2.208411   -0.386536   -0.941244
     18          7           0        5.757399   -0.974284    0.073374
     19          8           0        6.508091   -0.583434    0.965925
     20          8           0        6.073181   -1.767848   -0.812050
     21          1           0       -5.527513   -2.760746   -0.370594
     22          1           0       -7.094070   -2.687300   -1.183216
     23          1           0       -7.016101   -2.779545    0.583526
     24          1           0       -6.021082   -0.406104   -1.110816
     25          1           0       -7.553127   -0.440404   -0.261169
     26          1           0       -5.906346    0.834659    1.025575
     27          1           0       -6.426567   -0.588855    1.923681
     28          1           0       -4.006034   -0.217038    2.166991
     29          1           0       -4.328508   -1.763668    1.391670
     30          1           0       -3.649491   -0.823590   -0.841390
     31          1           0       -2.376487    1.216669    1.062149
     32          1           0       -2.070278    0.477428   -1.915345
     33          1           0       -1.506518    3.155929   -0.529255
     34          1           0       -1.153879    2.776689   -2.232774
     35          1           0       -2.835099    2.807995   -1.657775
     36          1           0        2.348712    1.633743    1.790431
     37          1           0        4.708938    0.747058    1.811156
     38          1           0        3.856285   -1.581941   -1.682969
     39          1           0        1.507661   -0.699726   -1.705215
 ---------------------------------------------------------------------

 SCF Done:  E(UB3LYP) =  -938.984464214     A.U. after   21 cycles

 The electronic state is 2-A.
 Alpha  occ. eigenvalues --  -19.05186 -18.97890 -18.96380 -18.96376 -14.34578
 Alpha  occ. eigenvalues --  -10.16980 -10.15230 -10.11332 -10.11038 -10.10868
 Alpha  occ. eigenvalues --  -10.10668 -10.10099 -10.09225 -10.08210 -10.06821
 Alpha  occ. eigenvalues --  -10.04789 -10.04555 -10.04499 -10.04205 -10.04138
 Alpha  occ. eigenvalues --   -1.04369  -0.98821  -0.89818  -0.87264  -0.75559
 Alpha  occ. eigenvalues --   -0.73750  -0.72463  -0.68809  -0.65333  -0.64237
 Alpha  occ. eigenvalues --   -0.62172  -0.59378  -0.57415  -0.54216  -0.52202
 Alpha  occ. eigenvalues --   -0.48409  -0.48092  -0.46254  -0.43579  -0.42057
 Alpha  occ. eigenvalues --   -0.40796  -0.39931  -0.38570  -0.37851  -0.36742
 Alpha  occ. eigenvalues --   -0.36326  -0.36268  -0.35109  -0.34226  -0.33853
 Alpha  occ. eigenvalues --   -0.33281  -0.32153  -0.32072  -0.31536  -0.30915
 Alpha  occ. eigenvalues --   -0.30210  -0.29908  -0.29139  -0.28261  -0.27856
 Alpha  occ. eigenvalues --   -0.27193  -0.26632  -0.26006  -0.24173  -0.23736
 Alpha  occ. eigenvalues --   -0.21867  -0.19882  -0.18427  -0.15587  -0.15270
 Alpha  occ. eigenvalues --   -0.13774  -0.13588  -0.13232  -0.11892   0.00945
 Alpha virt. eigenvalues --    0.04065   0.05808   0.05904   0.06900   0.07074
 Alpha virt. eigenvalues --    0.08269   0.08644   0.09421   0.09465   0.09661
 Alpha virt. eigenvalues --    0.09902   0.10742   0.10969   0.11361   0.11563

  Beta  occ. eigenvalues --  -19.05137 -18.97713 -18.95976 -18.95973 -14.34147
  Beta  occ. eigenvalues --  -10.16876 -10.15233 -10.11332 -10.11038 -10.10868
  Beta  occ. eigenvalues --  -10.10669 -10.10095 -10.09223 -10.08206 -10.06645
  Beta  occ. eigenvalues --  -10.04782 -10.04512 -10.04313 -10.04128 -10.04060
  Beta  occ. eigenvalues --   -1.03563  -0.98655  -0.89549  -0.86509  -0.75552
  Beta  occ. eigenvalues --   -0.73465  -0.72414  -0.68769  -0.64856  -0.64131
  Beta  occ. eigenvalues --   -0.61916  -0.59360  -0.57051  -0.53785  -0.52081
  Beta  occ. eigenvalues --   -0.48394  -0.48011  -0.45921  -0.43337  -0.41986
  Beta  occ. eigenvalues --   -0.40787  -0.39757  -0.38434  -0.37620  -0.36501
  Beta  occ. eigenvalues --   -0.36169  -0.34896  -0.33919  -0.33903  -0.33722
  Beta  occ. eigenvalues --   -0.33219  -0.32107  -0.31854  -0.31354  -0.30697
  Beta  occ. eigenvalues --   -0.30165  -0.29838  -0.28907  -0.28175  -0.27849
  Beta  occ. eigenvalues --   -0.27092  -0.26600  -0.25900  -0.24043  -0.22966
  Beta  occ. eigenvalues --   -0.21784  -0.19286  -0.18379  -0.15389  -0.13351
  Beta  occ. eigenvalues --   -0.13048  -0.12099  -0.11893  -0.11491
  Beta virt. eigenvalues --    0.04062   0.05789   0.05895   0.06673   0.06919
  Beta virt. eigenvalues --    0.07211   0.08316   0.08642   0.09418   0.09456
  Beta virt. eigenvalues --    0.09883   0.10717   0.10954   0.11483   0.11621

 Mulliken charges and spin densities:
               1          2
     1  C   -0.606746   0.000101
     2  C   -0.195464  -0.001086
     3  C   -0.296450  -0.000136
     4  C   -0.272307  -0.001388
     5  C    0.041391   0.004096
     6  C    0.010747  -0.003444
     7  C   -0.352879   0.005778
     8  C   -0.395418  -0.007080
     9  O    0.165275   0.011753
    10  C   -0.221770   0.052541
    11  O   -0.274860   0.063536
    12  C    0.647092   0.123722
    13  C   -0.422203   0.037220
    14  C   -0.564613   0.104965
    15  C   -0.107760   0.034974
    16  C   -0.488746   0.095135
    17  C   -0.071138   0.031363
    18  N   -0.270009   0.147099
    19  O   -0.153798   0.151865
    20  O   -0.156547   0.151902
    21  H    0.157569  -0.000242
    22  H    0.129735   0.000097
    23  H    0.134083   0.000019
    24  H    0.133816  -0.000023
    25  H    0.142922   0.000050
    26  H    0.130408   0.000008
    27  H    0.136549   0.000425
    28  H    0.166489   0.000173
    29  H    0.149324   0.000831
    30  H    0.144115   0.000304
    31  H    0.204677   0.001119
    32  H    0.168226   0.000930
    33  H    0.190053   0.002978
    34  H    0.131922   0.001557
    35  H    0.143423   0.000454
    36  H    0.169947  -0.000738
    37  H    0.212474  -0.005127
    38  H    0.205943  -0.005327
    39  H    0.134532  -0.000404
 Sum of Mulliken charges =  -1.00000   1.00000

 Dipole moment (field-independent basis, Debye):
    X=            -20.9320    Y=              1.4623    Z=             -1.5583  Tot=             21.0408
 Quadrupole moment (field-independent basis, Debye-Ang):
   XX=           -255.9282   YY=           -136.5877   ZZ=           -128.0322
   XY=             23.1735   XZ=             -1.3949   YZ=             -3.9228

 Summary of Natural Population Analysis:

                                       Natural Population
                Natural  -----------------------------------------------
    Atom  No    Charge         Core      Valence    Rydberg      Total
 -----------------------------------------------------------------------
      C    1   -0.28923      0.99967     2.28491    0.00464     3.28923
      C    2   -0.19298      0.99965     2.18682    0.00651     3.19298
      C    3   -0.18325      0.99963     2.17683    0.00679     3.18325
      C    4   -0.20651      0.99962     2.19904    0.00785     3.20651
      C    5   -0.08690      0.99952     2.07832    0.00906     3.08690
      C    6   -0.09823      0.99948     2.08865    0.01010     3.09823
      C    7    0.05178      0.99953     1.93611    0.01259     2.94822
      C    8   -0.29669      0.99964     2.29279    0.00426     3.29669
      O    9   -0.28099      0.99986     3.27299    0.00814     4.28099
      C   10    0.41430      0.99964     1.56158    0.02447     2.58570
      O   11   -0.31070      0.99987     3.30547    0.00536     4.31070
      C   12   -0.03911      0.99945     2.03014    0.00951     3.03911
      C   13   -0.08451      0.99955     2.07642    0.00855     3.08451
      C   14   -0.08907      0.99953     2.07969    0.00985     3.08907
      C   15    0.07774      0.99939     1.91152    0.01134     2.92226
      C   16   -0.08985      0.99953     2.08040    0.00992     3.08985
      C   17   -0.08927      0.99955     2.08163    0.00809     3.08927
      N   18    0.28378      0.99973     2.18890    0.02760     3.21622
      O   19   -0.19278      0.99990     3.18490    0.00798     4.19278
      O   20   -0.19390      0.99990     3.18603    0.00798     4.19390
      H   21    0.09793      0.00000     0.40121    0.00086     0.40207
      H   22    0.09776      0.00000     0.40144    0.00081     0.40224
      H   23    0.09459      0.00000     0.40446    0.00095     0.40541
      H   24    0.09572      0.00000     0.40313    0.00115     0.40428
      H   25    0.09343      0.00000     0.40536    0.00121     0.40657
      H   26    0.09737      0.00000     0.40156    0.00107     0.40263
      H   27    0.09215      0.00000     0.40678    0.00108     0.40785
      H   28    0.10210      0.00000     0.39651    0.00139     0.39790
      H   29    0.09853      0.00000     0.40035    0.00112     0.40147
      H   30    0.08778      0.00000     0.41100    0.00121     0.41222
      H   31    0.10637      0.00000     0.39211    0.00152     0.39363
      H   32    0.08845      0.00000     0.41008    0.00146     0.41155
      H   33    0.11339      0.00000     0.38552    0.00109     0.38661
      H   34    0.10264      0.00000     0.39651    0.00086     0.39736
      H   35    0.09614      0.00000     0.40301    0.00084     0.40386
      H   36    0.10552      0.00000     0.39343    0.00105     0.39448
      H   37    0.11250      0.00000     0.38626    0.00124     0.38750
      H   38    0.11223      0.00000     0.38650    0.00126     0.38777
      H   39    0.10179      0.00000     0.39731    0.00090     0.39821
 =======================================================================
   * Total *   -0.00000     19.99264    53.78569    0.22167    74.00000

 Normal termination of Gaussian 16 at Sat Dec 12 17:52:03 2020.
