 Gaussian 16, Revision A.03,

 -----------------------------------------------------------
 # opt freq B3LYP/6-31G(d) empiricaldispersion=gd3bj scf=xqc
 -----------------------------------------------------------

 -------------------------------
 CID_101397536_JID_2807_neutraal
 -------------------------------
 Symbolic Z-matrix:
 Charge =  0 Multiplicity = 1

 SCF Done:  E(RB3LYP) =  -493.961474320     A.U. after   20 cycles
 SCF Done:  E(RB3LYP) =  -493.969259674     A.U. after   18 cycles
 SCF Done:  E(RB3LYP) =  -493.970109509     A.U. after   19 cycles
 SCF Done:  E(RB3LYP) =  -493.970181772     A.U. after   18 cycles
 SCF Done:  E(RB3LYP) =  -493.970224609     A.U. after   14 cycles
 SCF Done:  E(RB3LYP) =  -493.970236859     A.U. after   14 cycles
 SCF Done:  E(RB3LYP) =  -493.970247171     A.U. after   14 cycles
 SCF Done:  E(RB3LYP) =  -493.970253890     A.U. after   19 cycles
 SCF Done:  E(RB3LYP) =  -493.970258873     A.U. after   17 cycles
 SCF Done:  E(RB3LYP) =  -493.970260718     A.U. after   13 cycles
 SCF Done:  E(RB3LYP) =  -493.974041009     A.U. after   24 cycles
 SCF Done:  E(RB3LYP) =  -493.974302950     A.U. after   21 cycles
 SCF Done:  E(RB3LYP) =  -493.974344815     A.U. after   13 cycles
 SCF Done:  E(RB3LYP) =  -493.974352477     A.U. after   16 cycles
 SCF Done:  E(RB3LYP) =  -493.974353917     A.U. after   10 cycles
 SCF Done:  E(RB3LYP) =  -493.974354033     A.U. after    9 cycles
 Optimization completed.
    -- Stationary point found.

 1\1\GINC-NODE213\FOpt\RB3LYP\6-31G(d)\C10H6N2\VSC10255\09-Dec-2020\0\\
 # opt freq B3LYP/6-31G(d) empiricaldispersion=gd3bj scf=xqc\\CID_10139
 7536_JID_2807_neutraal\\0,1\C,-1.1378673667,-0.2902993175,-0.801609789
 9\C,-0.4943038087,0.9529232383,-0.8960834293\C,0.5599595052,1.20389833
 71,-0.0083115176\N,0.9402251954,0.3250991265,0.9130370011\C,0.30826502
 01,-0.8645357254,1.0405800489\C,-0.7185360543,-1.1611093499,0.17424675
 8\C,1.3112181606,2.5088731908,-0.0581656318\C,1.8777441005,3.051079546
 4,1.10272125\C,2.5762587461,4.2614904891,0.9774817338\C,2.6272210566,4

 Normal termination of Gaussian 16 at Wed Dec  9 18:09:41 2020.

 --------------------------------------------------------------------
 #N Geom=AllCheck Guess=TCheck SCRF=Check GenChk RB3LYP/6-31G(d) Freq
 --------------------------------------------------------------------

 Structure from the checkpoint file:  "JID_2807.chk"
 -------------------------------
 CID_101397536_JID_2807_neutraal
 -------------------------------
 Charge =  0 Multiplicity = 1

 SCF Done:  E(RB3LYP) =  -493.974354033     A.U. after    4 cycles

  Exact polarizability: 370.244  -0.714 114.879   0.002  -0.000  44.569
 Approx polarizability:9432.482-283.291 238.801   0.076  -0.000  72.696

                      1                      2                      3
                      A                      A                      A
 Frequencies --     43.2819                97.3066               135.4643
 Red. masses --      4.3746                 7.1599                 5.4885
 Frc consts  --      0.0048                 0.0399                 0.0593
 IR Inten    --      2.8192                 0.0027                 0.4400

                      4                      5                      6
                      A                      A                      A
 Frequencies --    259.2685               317.3358               379.6547
 Red. masses --      6.0385                 7.4290                 3.2695
 Frc consts  --      0.2392                 0.4408                 0.2777
 IR Inten    --      0.4037                 0.3484                 3.6921

                      7                      8                      9
                      A                      A                      A
 Frequencies --    396.7145               407.0364               426.4399
 Red. masses --      3.6278                 5.5932                 3.8396
 Frc consts  --      0.3364                 0.5460                 0.4114
 IR Inten    --      0.1809                 0.0406                 4.7132

                     10                     11                     12
                      A                      A                      A
 Frequencies --    478.3502               573.5937               574.3339
 Red. masses --      3.5659                 7.9417                 8.2933
 Frc consts  --      0.4807                 1.5395                 1.6118
 IR Inten    --     11.8623                 2.4282               364.1515

                     13                     14                     15
                      A                      A                      A
 Frequencies --    618.6746               714.3304               740.4475
 Red. masses --      8.8014                 7.0408                 2.4986
 Frc consts  --      1.9848                 2.1167                 0.8071
 IR Inten    --    871.6518                13.8439                 0.7333

                     16                     17                     18
                      A                      A                      A
 Frequencies --    763.7520               814.3150               829.2450
 Red. masses --      6.3357                 1.3663                 1.8832
 Frc consts  --      2.1775                 0.5338                 0.7630
 IR Inten    --      0.0017                44.8471                 2.9953

                     19                     20                     21
                      A                      A                      A
 Frequencies --    893.1738               907.7203               912.5093
 Red. masses --      8.6597                 1.3297                 1.3445
 Frc consts  --      4.0703                 0.6455                 0.6596
 IR Inten    --    851.8760                 2.8154                 4.3551

                     22                     23                     24
                      A                      A                      A
 Frequencies --    965.3585               968.8182               985.5289
 Red. masses --      1.3512                 1.3759                 7.6177
 Frc consts  --      0.7419                 0.7609                 4.3593
 IR Inten    --      0.0539                 1.2754                 1.5011

                     25                     26                     27
                      A                      A                      A
 Frequencies --   1062.4876              1071.1701              1072.0779
 Red. masses --      7.4142                 1.9949                 2.4383
 Frc consts  --      4.9313                 1.3486                 1.6512
 IR Inten    --      7.6493               120.6021                 0.7624

                     28                     29                     30
                      A                      A                      A
 Frequencies --   1135.7886              1136.5236              1229.9217
 Red. masses --      1.5005                 1.4360                 3.5441
 Frc consts  --      1.1405                 1.0928                 3.1587
 IR Inten    --      0.1166                 1.7121                 0.0087

                     31                     32                     33
                      A                      A                      A
 Frequencies --   1267.0112              1290.8285              1307.3100
 Red. masses --      2.4391                 3.4642                 2.4374
 Frc consts  --      2.3070                 3.4008                 2.4543
 IR Inten    --      7.3132                 0.0976                51.9651

                     34                     35                     36
                      A                      A                      A
 Frequencies --   1330.0042              1369.7478              1408.9362
 Red. masses --      1.3636                 2.2723                 5.0274
 Frc consts  --      1.4211                 2.5119                 5.8800
 IR Inten    --      0.0649                15.1211                 0.6909

                     37                     38                     39
                      A                      A                      A
 Frequencies --   1455.7613              1467.0574              1513.2183
 Red. masses --      1.9885                 2.3380                 4.9104
 Frc consts  --      2.4829                 2.9647                 6.6248
 IR Inten    --     66.9323                 0.4067                 0.0440

                     40                     41                     42
                      A                      A                      A
 Frequencies --   1543.5320              1609.5668              1616.2445
 Red. masses --      4.8407                 9.5838                 8.5755
 Frc consts  --      6.7950                14.6287                13.1984
 IR Inten    --    187.8341               163.1624                 2.1837

                     43                     44                     45
                      A                      A                      A
 Frequencies --   3164.6753              3165.0306              3208.0165
 Red. masses --      1.0868                 1.0868                 1.0891
 Frc consts  --      6.4129                 6.4146                 6.6040
 IR Inten    --     47.1104                 0.2726               147.8409

                     46                     47                     48
                      A                      A                      A
 Frequencies --   3209.9517              3233.7741              3234.2181
 Red. masses --      1.0908                 1.0925                 1.0929
 Frc consts  --      6.6223                 6.7313                 6.7356
 IR Inten    --      1.4605                12.7166                 0.6814

 - Thermochemistry -
 -------------------
 Temperature   298.150 Kelvin.  Pressure   1.00000 Atm.
 Atom     1 has atomic number  6 and mass  12.00000

 Molecular mass:   154.05310 amu.
 Principal axes and moments of inertia in atomic units:
                           1         2         3
     Eigenvalues --   615.092372968.118603506.54194
           X            0.99998   0.00621   0.00000
           Y           -0.00621   0.99998  -0.00000
           Z           -0.00000   0.00000   1.00000
 This molecule is an asymmetric top.
 Rotational symmetry number  1.
 Warning -- assumption of classical behavior for rotation
           may cause significant error
 Rotational temperatures (Kelvin)      0.14081     0.02918     0.02470
 Rotational constants (GHZ):           2.93410     0.60804     0.51468
 Zero-point vibrational energy     342763.1 (Joules/Mol)
                                   81.92234 (Kcal/Mol)
 Warning -- explicit consideration of  13 degrees of freedom as
           vibrations may cause significant error
 Vibrational temperatures:     62.27   140.00   194.90   373.03   456.58
          (Kelvin)            546.24   570.78   585.63   613.55   688.24
                              825.27   826.34   890.13  1027.76  1065.34
                             1098.87  1171.62  1193.10  1285.08  1306.01
                             1312.90  1388.94  1393.91  1417.96  1528.68
                             1541.17  1542.48  1634.15  1635.20  1769.58
                             1822.95  1857.21  1880.93  1913.58  1970.76
                             2027.14  2094.52  2110.77  2177.18  2220.80
                             2315.81  2325.42  4553.26  4553.77  4615.62
                             4618.40  4652.68  4653.32

 Zero-point correction=                           0.130552 (Hartree/Particle)
 Thermal correction to Energy=                    0.139435
 Thermal correction to Enthalpy=                  0.140379
 Thermal correction to Gibbs Free Energy=         0.095657
 Sum of electronic and zero-point Energies=           -493.843802
 Sum of electronic and thermal Energies=              -493.834919
 Sum of electronic and thermal Enthalpies=            -493.833975
 Sum of electronic and thermal Free Energies=         -493.878697

                     E (Thermal)             CV                S
                      KCal/Mol        Cal/Mol-Kelvin    Cal/Mol-Kelvin
 Total                   87.497             34.562             94.125
 Electronic               0.000              0.000              0.000
 Translational            0.889              2.981             41.006
 Rotational               0.889              2.981             30.238
 Vibrational             85.719             28.600             22.880
 Vibration     1          0.595              1.980              5.103
 Vibration     2          0.603              1.951              3.508
 Vibration     3          0.613              1.918              2.867
 Vibration     4          0.668              1.747              1.667
 Vibration     5          0.704              1.640              1.324
 Vibration     6          0.750              1.514              1.041
 Vibration     7          0.763              1.477              0.975
 Vibration     8          0.772              1.455              0.937
 Vibration     9          0.788              1.413              0.870
 Vibration    10          0.835              1.298              0.715
 Vibration    11          0.930              1.088              0.497
 Vibration    12          0.931              1.087              0.496
 Vibration    13          0.979              0.992              0.419

 Optimization completed.
    -- Stationary point found.

 1\1\GINC-NODE213\Freq\RB3LYP\6-31G(d)\C10H6N2\VSC10255\09-Dec-2020\0\\
 #N Geom=AllCheck Guess=TCheck SCRF=Check GenChk RB3LYP/6-31G(d) Freq\\
 CID_101397536_JID_2807_neutraal\\0,1\C,-1.1378673667,-0.2902993175,-0.
 8016097899\C,-0.4943038087,0.9529232383,-0.8960834293\C,0.5599595052,1
 .2038983371,-0.0083115176\N,0.9402251954,0.3250991265,0.9130370011\C,0
 .3082650201,-0.8645357254,1.0405800489\C,-0.7185360543,-1.1611093499,0
 .174246758\C,1.3112181606,2.5088731908,-0.0581656318\C,1.8777441005,3.
 0510795464,1.10272125\C,2.5762587461,4.2614904891,0.9774817338\C,2.627

 Normal termination of Gaussian 16 at Wed Dec  9 18:14:03 2020.

 ----------------------------------------------------------------------
 # B3LYP/6-311++G(d,p) empiricaldispersion=gd3bj scf=xqc pop=npa geom=c
 heck
 ----------------------------------------------------------------------

 ---------------------------------------
 CID_101397536_JID_2807_Energie_neutraal
 ---------------------------------------
 Structure from the checkpoint file:  "JID_2807.chk"
 Charge =  0 Multiplicity = 1

 SCF Done:  E(RB3LYP) =  -494.098857834     A.U. after   23 cycles
 Normal termination of Gaussian 16 at Wed Dec  9 18:19:30 2020.

 ----------------------------------------------------------------------
 # B3LYP/6-311++G(d,p) empiricaldispersion=gd3bj scf=xqc pop=npa geom=c
 heck
 ----------------------------------------------------------------------

 -------------------------------------
 CID_101397536_JID_2807_Energie_kation
 -------------------------------------
 Structure from the checkpoint file:  "JID_2807.chk"
 Charge =  1 Multiplicity = 2

 SCF Done:  E(UB3LYP) =  -493.849710963     A.U. after   28 cycles
 Normal termination of Gaussian 16 at Wed Dec  9 18:24:31 2020.
 Gaussian 16:  ES64L-G16RevA.03 25-Dec-2016

 ------------------------------------
 CID_101397536_JID_2807_Energie_anion
 ------------------------------------
 Structure from the checkpoint file:  "JID_2807.chk"
 Charge = -1 Multiplicity = 2

                         Standard orientation:
 ---------------------------------------------------------------------
 Center     Atomic      Atomic             Coordinates (Angstroms)
 Number     Number       Type             X           Y           Z
 ---------------------------------------------------------------------
      1          6           0       -2.852018   -1.133848   -0.280149
      2          6           0       -1.450271   -1.184362   -0.315593
      3          6           0       -0.753222   -0.010724   -0.000485
      4          7           0       -1.371562    1.126307    0.300495
      5          6           0       -2.722549    1.201655    0.305830
      6          6           0       -3.446660    0.066357    0.023747
      7          6           0        0.753222    0.010755   -0.000461
      8          6           0        1.450293    1.184354   -0.315666
      9          6           0        2.852037    1.133849   -0.280098
     10          6           0        3.446658   -0.066366    0.023801
     11          6           0        2.722528   -1.201700    0.305680
     12          7           0        1.371543   -1.126285    0.300520
     13          1           0       -3.425256   -2.037831   -0.481024
     14          1           0       -0.917857   -2.096219   -0.559871
     15          1           0       -3.154199    2.170406    0.537423
     16          1           0        0.917896    2.096203   -0.560009
     17          1           0        3.425287    2.037830   -0.480946
     18          1           0        3.154163   -2.170360    0.537682
 ---------------------------------------------------------------------

 SCF Done:  E(UB3LYP) =  -494.222302903     A.U. after   26 cycles

 The electronic state is 2-A.
 Alpha  occ. eigenvalues --  -14.17639 -14.17638 -10.07758 -10.07732 -10.06804
 Alpha  occ. eigenvalues --  -10.06804 -10.05079 -10.05079 -10.04865 -10.04865
 Alpha  occ. eigenvalues --  -10.01891 -10.01891  -0.81972  -0.80089  -0.66526
 Alpha  occ. eigenvalues --   -0.65831  -0.64950  -0.59569  -0.50759  -0.49319
 Alpha  occ. eigenvalues --   -0.48202  -0.45465  -0.40124  -0.36238  -0.33436
 Alpha  occ. eigenvalues --   -0.32779  -0.31978  -0.31632  -0.28152  -0.27062
 Alpha  occ. eigenvalues --   -0.26770  -0.25218  -0.24990  -0.15550  -0.15438
 Alpha  occ. eigenvalues --   -0.14806  -0.14363  -0.13266  -0.10261  -0.06493
 Alpha  occ. eigenvalues --   -0.06474
 Alpha virt. eigenvalues --    0.09158   0.09273   0.09638   0.09780   0.10336
 Alpha virt. eigenvalues --    0.10522   0.11026   0.12694   0.13663   0.15323
 Alpha virt. eigenvalues --    0.15349   0.16149   0.16408   0.17508   0.17866

  Beta  occ. eigenvalues --  -14.17520 -14.17520 -10.07770 -10.07745 -10.06805
  Beta  occ. eigenvalues --  -10.06804 -10.05085 -10.05085 -10.04801 -10.04801
  Beta  occ. eigenvalues --  -10.01141 -10.01140  -0.81753  -0.79812  -0.66166
  Beta  occ. eigenvalues --   -0.65524  -0.64511  -0.59027  -0.50559  -0.48668
  Beta  occ. eigenvalues --   -0.47922  -0.44993  -0.39905  -0.35890  -0.33116
  Beta  occ. eigenvalues --   -0.32409  -0.31731  -0.31226  -0.28066  -0.26645
  Beta  occ. eigenvalues --   -0.26446  -0.25085  -0.24488  -0.15332  -0.15320
  Beta  occ. eigenvalues --   -0.14259  -0.13981  -0.12274  -0.09879  -0.00114
  Beta virt. eigenvalues --    0.01276   0.09197   0.09577   0.09617   0.09845
  Beta virt. eigenvalues --    0.10413   0.10638   0.11074   0.12861   0.13698
  Beta virt. eigenvalues --    0.15414   0.15687   0.16272   0.16777   0.17553

 Mulliken charges and spin densities:
               1          2
     1  C   -0.754651  -0.112043
     2  C    0.260293   0.035942
     3  C   -0.419761  -0.007579
     4  N    0.039979   0.048987
     5  C   -0.261039  -0.085427
     6  C    0.185534   0.611488
     7  C   -0.420206  -0.007618
     8  C    0.260614   0.035997
     9  C   -0.754634  -0.112095
    10  C    0.185586   0.611512
    11  C   -0.261068  -0.085444
    12  N    0.039956   0.048983
    13  H    0.126632   0.005193
    14  H    0.182462   0.006514
    15  H    0.140608  -0.003061
    16  H    0.182453   0.006512
    17  H    0.126630   0.005194
    18  H    0.140612  -0.003057
 Sum of Mulliken charges =  -1.00000   1.00000

 Dipole moment (field-independent basis, Debye):
    X=             -0.0000    Y=             -0.0000    Z=             -0.9856  Tot=              0.9856
 Quadrupole moment (field-independent basis, Debye-Ang):
   XX=           -132.6055   YY=            -74.1473   ZZ=            -76.9100
   XY=              3.6696   XZ=             -0.0002   YZ=             -0.0004

 Summary of Natural Population Analysis:

                                       Natural Population
                Natural  -----------------------------------------------
    Atom  No    Charge         Core      Valence    Rydberg      Total
 -----------------------------------------------------------------------
      C    1   -0.14665      0.99953     2.13438    0.01273     3.14665
      C    2   -0.09457      0.99952     2.08666    0.00839     3.09457
      C    3    0.07275      0.99950     1.91397    0.01379     2.92725
      N    4   -0.21474      0.99967     2.70304    0.01202     3.71474
      C    5   -0.03514      0.99955     2.01965    0.01594     3.03514
      C    6    0.12856      0.99919     1.84446    0.02778     2.87144
      C    7    0.07275      0.99950     1.91396    0.01379     2.92725
      C    8   -0.09457      0.99952     2.08666    0.00839     3.09457
      C    9   -0.14665      0.99953     2.13439    0.01273     3.14665
      C   10    0.12856      0.99919     1.84446    0.02778     2.87144
      C   11   -0.03514      0.99955     2.01965    0.01594     3.03514
      N   12   -0.21474      0.99967     2.70305    0.01202     3.71474
      H   13    0.09837      0.00000     0.39963    0.00200     0.40163
      H   14    0.10530      0.00000     0.39316    0.00155     0.39470
      H   15    0.08613      0.00000     0.41220    0.00167     0.41387
      H   16    0.10529      0.00000     0.39316    0.00155     0.39471
      H   17    0.09837      0.00000     0.39963    0.00200     0.40163
      H   18    0.08613      0.00000     0.41220    0.00167     0.41387
 =======================================================================
   * Total *   -0.00000     11.99395    27.81430    0.19175    40.00000

 Normal termination of Gaussian 16 at Wed Dec  9 18:28:53 2020.
