 Gaussian 16, Revision A.03,

 -----------------------------------------------------------
 # opt freq B3LYP/6-31G(d) empiricaldispersion=gd3bj scf=xqc
 -----------------------------------------------------------

 -------------------------------
 CID_140921267_JID_3800_neutraal
 -------------------------------
 Symbolic Z-matrix:
 Charge =  0 Multiplicity = 1

 SCF Done:  E(RB3LYP) =  -574.257137230     A.U. after   14 cycles
 SCF Done:  E(RB3LYP) =  -574.262607218     A.U. after   12 cycles
 SCF Done:  E(RB3LYP) =  -574.263598356     A.U. after   12 cycles
 SCF Done:  E(RB3LYP) =  -574.263825584     A.U. after   11 cycles
 SCF Done:  E(RB3LYP) =  -574.263863397     A.U. after   10 cycles
 SCF Done:  E(RB3LYP) =  -574.263871230     A.U. after    9 cycles
 SCF Done:  E(RB3LYP) =  -574.263872514     A.U. after    8 cycles
 SCF Done:  E(RB3LYP) =  -574.263873019     A.U. after    8 cycles
 SCF Done:  E(RB3LYP) =  -574.263873344     A.U. after    8 cycles
 SCF Done:  E(RB3LYP) =  -574.263873423     A.U. after    7 cycles
 Optimization completed.
    -- Stationary point found.
 Normal termination of Gaussian 16 at Sun Dec 13 15:58:05 2020.

 --------------------------------------------------------------------
 #N Geom=AllCheck Guess=TCheck SCRF=Check GenChk RB3LYP/6-31G(d) Freq
 --------------------------------------------------------------------

 Structure from the checkpoint file:  "JID_3800.chk"
 -------------------------------
 CID_140921267_JID_3800_neutraal
 -------------------------------
 Charge =  0 Multiplicity = 1

 SCF Done:  E(RB3LYP) =  -574.263873423     A.U. after    1 cycles

  Exact polarizability: 155.042   2.609 120.634  -4.845   1.566  73.723
 Approx polarizability: 228.751   5.979 198.739 -12.398   1.709 111.167

                      1                      2                      3
                      A                      A                      A
 Frequencies --     67.4974               128.8200               144.2645
 Red. masses --      3.7751                 3.4268                 3.2329
 Frc consts  --      0.0101                 0.0335                 0.0396
 IR Inten    --      0.6426                 1.0921                 2.5412

                      4                      5                      6
                      A                      A                      A
 Frequencies --    187.7835               204.3719               228.6287
 Red. masses --      1.1663                 2.7607                 1.3877
 Frc consts  --      0.0242                 0.0679                 0.0427
 IR Inten    --      2.0193                 6.3525                 4.9759

                      7                      8                      9
                      A                      A                      A
 Frequencies --    241.3616               277.2397               279.0808
 Red. masses --      1.9222                 1.2010                 2.1936
 Frc consts  --      0.0660                 0.0544                 0.1007
 IR Inten    --      0.2453                 0.7698                 9.1973

                     10                     11                     12
                      A                      A                      A
 Frequencies --    301.1475               321.7446               333.3053
 Red. masses --      2.5467                 2.1490                 2.4864
 Frc consts  --      0.1361                 0.1311                 0.1627
 IR Inten    --     13.7878                12.1982                25.0294

                     13                     14                     15
                      A                      A                      A
 Frequencies --    340.8413               441.5554               448.7854
 Red. masses --      1.5924                 3.7188                 4.2642
 Frc consts  --      0.1090                 0.4272                 0.5060
 IR Inten    --     33.0966                13.6673                 4.2035

                     16                     17                     18
                      A                      A                      A
 Frequencies --    504.8048               521.0158               557.0755
 Red. masses --      5.0391                 3.8176                 5.8487
 Frc consts  --      0.7566                 0.6106                 1.0694
 IR Inten    --      2.7807                 1.2240                 2.2982

                     19                     20                     21
                      A                      A                      A
 Frequencies --    582.2407               613.4311               668.6973
 Red. masses --      4.1184                 2.9972                 4.8019
 Frc consts  --      0.8226                 0.6645                 1.2651
 IR Inten    --      7.2999                 8.2689                 4.4075

                     22                     23                     24
                      A                      A                      A
 Frequencies --    722.0419               787.3510               807.0385
 Red. masses --      3.7298                 2.4837                 1.9234
 Frc consts  --      1.1457                 0.9072                 0.7381
 IR Inten    --      1.2547                17.3750                23.0557

                     25                     26                     27
                      A                      A                      A
 Frequencies --    829.7529               879.1468               900.7176
 Red. masses --      3.4603                 3.7714                 2.1832
 Frc consts  --      1.4037                 1.7174                 1.0436
 IR Inten    --      8.8309                 6.9592                11.3035

                     28                     29                     30
                      A                      A                      A
 Frequencies --    905.1355               954.9985               963.1951
 Red. masses --      1.8369                 1.4700                 1.2865
 Frc consts  --      0.8867                 0.7899                 0.7032
 IR Inten    --      8.3992                 1.5402                 0.2717

                     31                     32                     33
                      A                      A                      A
 Frequencies --    994.6411              1030.2445              1072.8870
 Red. masses --      1.8854                 1.3447                 2.5574
 Frc consts  --      1.0990                 0.8409                 1.7345
 IR Inten    --     23.4899                 3.6430                 4.3032

                     34                     35                     36
                      A                      A                      A
 Frequencies --   1092.1426              1136.1931              1157.7435
 Red. masses --      3.8566                 2.5436                 1.3448
 Frc consts  --      2.7103                 1.9347                 1.0620
 IR Inten    --     35.2159                78.0391                17.6895

                     37                     38                     39
                      A                      A                      A
 Frequencies --   1165.0252              1179.9545              1195.3991
 Red. masses --      1.6592                 2.2478                 1.9797
 Frc consts  --      1.3268                 1.8439                 1.6668
 IR Inten    --     35.4796                 9.1376                20.1952

                     40                     41                     42
                      A                      A                      A
 Frequencies --   1212.8833              1258.4126              1268.6506
 Red. masses --      1.8275                 2.2685                 2.9617
 Frc consts  --      1.5840                 2.1166                 2.8085
 IR Inten    --      4.6408                32.7058                22.2588

                     43                     44                     45
                      A                      A                      A
 Frequencies --   1282.1063              1308.8656              1353.4214
 Red. masses --      2.3301                 1.6646                 2.4161
 Frc consts  --      2.2567                 1.6802                 2.6075
 IR Inten    --      9.0638                29.2185                46.8683

                     46                     47                     48
                      A                      A                      A
 Frequencies --   1380.4920              1413.9787              1423.1157
 Red. masses --      1.4184                 1.6341                 2.3636
 Frc consts  --      1.5927                 1.9249                 2.8204
 IR Inten    --     25.3171                35.1254                55.4893

                     49                     50                     51
                      A                      A                      A
 Frequencies --   1429.5865              1445.8087              1474.0043
 Red. masses --      1.3613                 1.2666                 1.5492
 Frc consts  --      1.6392                 1.5599                 1.9831
 IR Inten    --     21.0266                12.3540                75.3811

                     52                     53                     54
                      A                      A                      A
 Frequencies --   1497.6264              1511.7507              1514.7579
 Red. masses --      2.0471                 1.0748                 1.1566
 Frc consts  --      2.7052                 1.4472                 1.5635
 IR Inten    --     92.7613                 1.9419                 6.1472

                     55                     56                     57
                      A                      A                      A
 Frequencies --   1519.6467              1520.6557              1534.4843
 Red. masses --      1.0906                 2.0045                 1.0606
 Frc consts  --      1.4839                 2.7310                 1.4714
 IR Inten    --      4.9207                 8.4146                 3.8568

                     58                     59                     60
                      A                      A                      A
 Frequencies --   1536.8354              1541.3276              1648.7006
 Red. masses --      1.0653                 1.0804                 6.1183
 Frc consts  --      1.4825                 1.5123                 9.7986
 IR Inten    --      7.0515                15.4200                33.7360

                     61                     62                     63
                      A                      A                      A
 Frequencies --   1655.2386              2964.4947              2996.8074
 Red. masses --      8.0271                 1.0817                 1.0549
 Frc consts  --     12.9577                 5.6010                 5.5817
 IR Inten    --     46.6718                51.7748                64.9877

                     64                     65                     66
                      A                      A                      A
 Frequencies --   3054.2104              3063.2359              3091.0476
 Red. masses --      1.0354                 1.0372                 1.0832
 Frc consts  --      5.6907                 5.7343                 6.0980
 IR Inten    --     19.4875                18.1843                32.9055

                     67                     68                     69
                      A                      A                      A
 Frequencies --   3119.9477              3126.8907              3134.2733
 Red. masses --      1.1016                 1.1026                 1.1034
 Frc consts  --      6.3179                 6.3516                 6.3863
 IR Inten    --     16.8052                29.9925                18.4301

                     70                     71                     72
                      A                      A                      A
 Frequencies --   3146.7023              3157.5138              3189.4987
 Red. masses --      1.0990                 1.1000                 1.0866
 Frc consts  --      6.4112                 6.4613                 6.5130
 IR Inten    --     21.5213                12.8003                 3.0418

                     73                     74                     75
                      A                      A                      A
 Frequencies --   3203.0088              3216.0058              3683.9389
 Red. masses --      1.0911                 1.0963                 1.0662
 Frc consts  --      6.5951                 6.6804                 8.5254
 IR Inten    --     31.3497                20.3257                39.9567

 - Thermochemistry -
 -------------------
 Temperature   298.150 Kelvin.  Pressure   1.00000 Atm.
 Atom     1 has atomic number  6 and mass  12.00000

 Molecular mass:   178.11061 amu.
 Principal axes and moments of inertia in atomic units:
                           1         2         3
     Eigenvalues --  1383.432052363.581203313.59165
           X            0.99995   0.01014  -0.00228
           Y           -0.01013   0.99993   0.00681
           Z            0.00235  -0.00678   0.99997
 This molecule is an asymmetric top.
 Rotational symmetry number  1.
 Warning -- assumption of classical behavior for rotation
           may cause significant error
 Rotational temperatures (Kelvin)      0.06261     0.03665     0.02614
 Rotational constants (GHZ):           1.30454     0.76356     0.54465
 Zero-point vibrational energy     604396.6 (Joules/Mol)
                                  144.45426 (Kcal/Mol)
 Warning -- explicit consideration of  20 degrees of freedom as
           vibrations may cause significant error
 Vibrational temperatures:     97.11   185.34   207.56   270.18   294.05
          (Kelvin)            328.95   347.27   398.89   401.53   433.28
                              462.92   479.55   490.39   635.30   645.70
                              726.30   749.63   801.51   837.71   882.59
                              962.11  1038.86  1132.82  1161.15  1193.83
                             1264.90  1295.93  1302.29  1374.03  1385.82
                             1431.07  1482.29  1543.65  1571.35  1634.73
                             1665.73  1676.21  1697.69  1719.91  1745.07
                             1810.58  1825.31  1844.66  1883.17  1947.27
                             1986.22  2034.40  2047.55  2056.86  2080.20
                             2120.76  2154.75  2175.07  2179.40  2186.43
                             2187.88  2207.78  2211.16  2217.63  2372.11
                             2381.52  4265.25  4311.74  4394.33  4407.31
                             4447.33  4488.91  4498.90  4509.52  4527.40
                             4542.96  4588.98  4608.42  4627.12  5300.37

 Zero-point correction=                           0.230203 (Hartree/Particle)
 Thermal correction to Energy=                    0.242337
 Thermal correction to Enthalpy=                  0.243281
 Thermal correction to Gibbs Free Energy=         0.193140
 Sum of electronic and zero-point Energies=           -574.033671
 Sum of electronic and thermal Energies=              -574.021537
 Sum of electronic and thermal Enthalpies=            -574.020592
 Sum of electronic and thermal Free Energies=         -574.070734

                     E (Thermal)             CV                S
                      KCal/Mol        Cal/Mol-Kelvin    Cal/Mol-Kelvin
 Total                  152.069             47.946            105.531
 Electronic               0.000              0.000              0.000
 Translational            0.889              2.981             41.439
 Rotational               0.889              2.981             30.761
 Vibrational            150.291             41.984             33.332
 Vibration     1          0.598              1.970              4.225
 Vibration     2          0.611              1.924              2.964
 Vibration     3          0.616              1.909              2.747
 Vibration     4          0.632              1.857              2.250
 Vibration     5          0.640              1.834              2.093
 Vibration     6          0.651              1.797              1.890
 Vibration     7          0.658              1.777              1.793
 Vibration     8          0.678              1.716              1.551
 Vibration     9          0.679              1.712              1.539
 Vibration    10          0.693              1.672              1.411
 Vibration    11          0.707              1.632              1.301
 Vibration    12          0.715              1.609              1.244
 Vibration    13          0.720              1.594              1.208
 Vibration    14          0.801              1.380              0.822
 Vibration    15          0.808              1.364              0.799
 Vibration    16          0.860              1.239              0.646
 Vibration    17          0.876              1.203              0.608
 Vibration    18          0.913              1.124              0.530
 Vibration    19          0.939              1.070              0.481
 Vibration    20          0.973              1.003              0.427

 Optimization completed.
    -- Stationary point found.
 Normal termination of Gaussian 16 at Sun Dec 13 16:05:35 2020.

 ----------------------------------------------------------------------
 # B3LYP/6-311++G(d,p) empiricaldispersion=gd3bj scf=xqc pop=npa geom=c
 heck
 ----------------------------------------------------------------------

 ---------------------------------------
 CID_140921267_JID_3800_Energie_neutraal
 ---------------------------------------
 Structure from the checkpoint file:  "JID_3800.chk"
 Charge =  0 Multiplicity = 1

 SCF Done:  E(RB3LYP) =  -574.426178008     A.U. after   15 cycles
 Normal termination of Gaussian 16 at Sun Dec 13 16:08:15 2020.

 ----------------------------------------------------------------------
 # B3LYP/6-311++G(d,p) empiricaldispersion=gd3bj scf=xqc pop=npa geom=c
 heck
 ----------------------------------------------------------------------

 -------------------------------------
 CID_140921267_JID_3800_Energie_kation
 -------------------------------------
 Structure from the checkpoint file:  "JID_3800.chk"
 Charge =  1 Multiplicity = 2

 SCF Done:  E(UB3LYP) =  -574.151838186     A.U. after   22 cycles
 Normal termination of Gaussian 16 at Sun Dec 13 16:13:30 2020.
 Gaussian 16:  ES64L-G16RevA.03 25-Dec-2016

 ----------------------------------------------------------------------
 # B3LYP/6-311++G(d,p) empiricaldispersion=gd3bj scf=xqc pop=npa geom=c
 heck
 ----------------------------------------------------------------------

 ------------------------------------
 CID_140921267_JID_3800_Energie_anion
 ------------------------------------
 Structure from the checkpoint file:  "JID_3800.chk"
 Charge = -1 Multiplicity = 2

                         Standard orientation:
 ---------------------------------------------------------------------
 Center     Atomic      Atomic             Coordinates (Angstroms)
 Number     Number       Type             X           Y           Z
 ---------------------------------------------------------------------
      1          6           0        2.833283   -0.024660   -0.835497
      2          6           0        1.538981   -0.070123   -0.028758
      3          6           0        0.615165   -1.246334   -0.483990
      4          6           0       -0.757189   -0.668268   -0.266448
      5          6           0       -0.654381    0.732185   -0.209537
      6          7           0        0.670202    1.118410   -0.338395
      7          6           0        1.070037    2.443776    0.086737
      8          6           0       -1.822030    1.466932   -0.015338
      9          6           0       -3.012685    0.732864    0.103711
     10          6           0       -2.997554   -0.659176    0.053858
     11          7           0       -1.863033   -1.372360   -0.131586
     12          8           0        0.848117   -2.450259    0.215584
     13          6           0        1.821620   -0.161151    1.476434
     14          1           0        3.380682   -0.963661   -0.702067
     15          1           0        3.488906    0.790588   -0.510014
     16          1           0        2.618173    0.107194   -1.900469
     17          1           0        0.772494   -1.408442   -1.564997
     18          1           0        0.517655    3.193400   -0.489611
     19          1           0        0.888142    2.629937    1.157642
     20          1           0        2.133389    2.588200   -0.116800
     21          1           0       -1.821390    2.549671    0.060091
     22          1           0       -3.954153    1.251935    0.256965
     23          1           0       -3.913778   -1.231391    0.170222
     24          1           0       -0.032375   -2.841161    0.357574
     25          1           0        2.367547   -1.079274    1.702894
     26          1           0        2.420388    0.693409    1.808925
     27          1           0        0.887720   -0.176951    2.047799
 ---------------------------------------------------------------------

 SCF Done:  E(UB3LYP) =  -574.414481777     A.U. after   33 cycles
 SCF Done:  E(UB3LYP) =  -574.414481777     a.u. after    1 cycles

 The electronic state is 2-A.
 Alpha  occ. eigenvalues --  -19.01932 -14.21858 -14.19433 -10.11713 -10.11255
 Alpha  occ. eigenvalues --  -10.09729 -10.08393 -10.08388 -10.08319 -10.06568
 Alpha  occ. eigenvalues --  -10.06232 -10.05703 -10.05052  -0.92701  -0.85652
 Alpha  occ. eigenvalues --   -0.81983  -0.69717  -0.67468  -0.66208  -0.58771
 Alpha  occ. eigenvalues --   -0.58348  -0.56913  -0.50037  -0.49728  -0.45515
 Alpha  occ. eigenvalues --   -0.41989  -0.39638  -0.38186  -0.37494  -0.34939
 Alpha  occ. eigenvalues --   -0.34442  -0.33573  -0.32111  -0.30408  -0.29290
 Alpha  occ. eigenvalues --   -0.29093  -0.28343  -0.28184  -0.27449  -0.26178
 Alpha  occ. eigenvalues --   -0.25034  -0.24537  -0.21891  -0.19742  -0.17965
 Alpha  occ. eigenvalues --   -0.16315  -0.15214  -0.09194   0.04760
 Alpha virt. eigenvalues --    0.07280   0.07481   0.08232   0.08912   0.09635
 Alpha virt. eigenvalues --    0.09806   0.10444   0.10934   0.11634   0.11696
 Alpha virt. eigenvalues --    0.12105   0.12604   0.13987   0.14612   0.15439

  Beta  occ. eigenvalues --  -19.01917 -14.21862 -14.19257 -10.11713 -10.11254
  Beta  occ. eigenvalues --  -10.09747 -10.08398 -10.08329 -10.08258 -10.06532
  Beta  occ. eigenvalues --  -10.06090 -10.05674 -10.05024  -0.92663  -0.85590
  Beta  occ. eigenvalues --   -0.81783  -0.69620  -0.67312  -0.66099  -0.58717
  Beta  occ. eigenvalues --   -0.58240  -0.56834  -0.49994  -0.49515  -0.45460
  Beta  occ. eigenvalues --   -0.41899  -0.39577  -0.38102  -0.37413  -0.34872
  Beta  occ. eigenvalues --   -0.34398  -0.33523  -0.32068  -0.30300  -0.29210
  Beta  occ. eigenvalues --   -0.29033  -0.28155  -0.28062  -0.27272  -0.26135
  Beta  occ. eigenvalues --   -0.24996  -0.24497  -0.21831  -0.19437  -0.17858
  Beta  occ. eigenvalues --   -0.15808  -0.15037  -0.08954
  Beta virt. eigenvalues --    0.07279   0.07859   0.08526   0.08879   0.09329
  Beta virt. eigenvalues --    0.10035   0.10192   0.10644   0.11205   0.11975
  Beta virt. eigenvalues --    0.12106   0.12322   0.13134   0.14192   0.15005

 Mulliken charges and spin densities:
               1          2
     1  C    0.511715  -0.821442
     2  C   -1.352500   1.390736
     3  C    0.460223  -0.650499
     4  C   -0.572231  -0.170263
     5  C    0.718846  -0.417948
     6  N    0.134938   0.108580
     7  C    1.353993  -1.703780
     8  C   -1.316880   1.222608
     9  C    0.945991  -1.137244
    10  C   -0.411786   0.228870
    11  N   -0.071965   0.119857
    12  O   -0.236589   0.002166
    13  C    0.676775  -1.343146
    14  H    0.034716   0.117867
    15  H   -0.070459   0.217727
    16  H   -0.091912   0.245719
    17  H   -0.012116   0.220389
    18  H   -0.494443   0.650657
    19  H   -0.279972   0.436048
    20  H   -0.577158   0.709065
    21  H   -0.482091   0.645517
    22  H   -0.127195   0.278946
    23  H    0.069561   0.084866
    24  H    0.241168   0.024560
    25  H    0.119395   0.045467
    26  H   -0.211466   0.368649
    27  H    0.041443   0.126028
 Sum of Mulliken charges =  -1.00000   1.00000

 Dipole moment (field-independent basis, Debye):
    X=             -1.5211    Y=             -4.8793    Z=             -0.0111  Tot=              5.1109
 Quadrupole moment (field-independent basis, Debye-Ang):
   XX=           -123.6826   YY=           -132.1597   ZZ=           -105.5835
   XY=             -4.0966   XZ=             -1.6521   YZ=             -0.7213

 Summary of Natural Population Analysis:

                                       Natural Population
                Natural  -----------------------------------------------
    Atom  No    Charge         Core      Valence    Rydberg      Total
 -----------------------------------------------------------------------
      C    1   -0.29038      0.99960     2.28341    0.00736     3.29038
      C    2    0.07314      0.99956     1.91188    0.01541     2.92686
      C    3    0.05797      0.99943     1.92788    0.01472     2.94203
      C    4    0.09494      0.99946     1.89109    0.01451     2.90506
      C    5    0.08025      0.99942     1.90842    0.01191     2.91975
      N    6   -0.25794      0.99964     2.74410    0.01421     3.75794
      C    7   -0.17997      0.99964     2.17048    0.00985     3.17997
      C    8   -0.09437      0.99952     2.08512    0.00973     3.09437
      C    9   -0.11164      0.99958     2.10210    0.00997     3.11164
      C   10   -0.00496      0.99959     1.99112    0.01425     3.00496
      N   11   -0.22435      0.99966     2.71316    0.01153     3.72435
      O   12   -0.37226      0.99989     3.36646    0.00591     4.37226
      C   13   -0.29943      0.99960     2.29240    0.00743     3.29943
      H   14    0.10323      0.00000     0.39592    0.00085     0.39677
      H   15    0.10194      0.00000     0.39693    0.00113     0.39806
      H   16    0.10378      0.00000     0.39476    0.00146     0.39622
      H   17    0.08384      0.00000     0.41414    0.00201     0.41616
      H   18    0.10238      0.00000     0.39551    0.00212     0.39762
      H   19    0.08912      0.00000     0.40855    0.00233     0.41088
      H   20    0.10123      0.00000     0.39693    0.00184     0.39877
      H   21    0.10511      0.00000     0.39348    0.00141     0.39489
      H   22    0.09944      0.00000     0.39969    0.00088     0.40056
      H   23    0.08567      0.00000     0.41331    0.00102     0.41433
      H   24    0.23743      0.00000     0.25926    0.00331     0.26257
      H   25    0.10877      0.00000     0.39026    0.00097     0.39123
      H   26    0.10195      0.00000     0.39706    0.00099     0.39805
      H   27    0.10513      0.00000     0.39383    0.00104     0.39487
 =======================================================================
   * Total *   -0.00000     12.99459    34.83725    0.16816    48.00000

 Normal termination of Gaussian 16 at Sun Dec 13 16:21:39 2020.
