 Gaussian 16, Revision A.03,

 -----------------------------------------------------------
 # opt freq B3LYP/6-31G(d) empiricaldispersion=gd3bj scf=xqc
 -----------------------------------------------------------

 -------------------------------
 CID_116397850_JID_8973_neutraal
 -------------------------------
 Symbolic Z-matrix:
 Charge =  0 Multiplicity = 1

 SCF Done:  E(RB3LYP) =  -1141.91333303     A.U. after   14 cycles
 SCF Done:  E(RB3LYP) =  -1141.91899794     A.U. after   13 cycles
 SCF Done:  E(RB3LYP) =  -1141.91729366     A.U. after   13 cycles
 SCF Done:  E(RB3LYP) =  -1141.92173038     A.U. after   12 cycles
 SCF Done:  E(RB3LYP) =  -1141.92349716     A.U. after   12 cycles
 SCF Done:  E(RB3LYP) =  -1141.92517641     A.U. after   12 cycles
 SCF Done:  E(RB3LYP) =  -1141.92567901     A.U. after   12 cycles
 SCF Done:  E(RB3LYP) =  -1141.92591929     A.U. after   11 cycles
 SCF Done:  E(RB3LYP) =  -1141.92593719     A.U. after   11 cycles
 SCF Done:  E(RB3LYP) =  -1141.92596358     A.U. after   10 cycles
 SCF Done:  E(RB3LYP) =  -1141.92684385     A.U. after   10 cycles
 SCF Done:  E(RB3LYP) =  -1141.92684449     A.U. after    9 cycles
 SCF Done:  E(RB3LYP) =  -1141.92684467     A.U. after    9 cycles
 SCF Done:  E(RB3LYP) =  -1141.92684474     A.U. after    7 cycles
 SCF Done:  E(RB3LYP) =  -1141.92684474     A.U. after    7 cycles
 Optimization completed.
    -- Stationary point found.
 Normal termination of Gaussian 16 at Fri Dec 11 23:32:18 2020.

 --------------------------------------------------------------------
 #N Geom=AllCheck Guess=TCheck SCRF=Check GenChk RB3LYP/6-31G(d) Freq
 --------------------------------------------------------------------

 Structure from the checkpoint file:  "JID_8973.chk"
 -------------------------------
 CID_116397850_JID_8973_neutraal
 -------------------------------
 Charge =  0 Multiplicity = 1

 SCF Done:  E(RB3LYP) =  -1141.92684474     A.U. after    1 cycles

  Exact polarizability: 183.168  -4.069 188.690 -13.979   1.928 139.423
 Approx polarizability: 249.134  -1.205 307.583 -25.335  -0.850 219.061

                      1                      2                      3
                      A                      A                      A
 Frequencies --     30.6859                39.3479                52.9285
 Red. masses --      4.6417                 3.5683                 6.1358
 Frc consts  --      0.0026                 0.0033                 0.0101
 IR Inten    --      0.0260                 0.0340                 0.2971

                      4                      5                      6
                      A                      A                      A
 Frequencies --     88.1404                92.6635               113.7306
 Red. masses --      1.2410                 4.3952                 2.4817
 Frc consts  --      0.0057                 0.0222                 0.0189
 IR Inten    --      0.3051                 0.4604                 0.5457

                      7                      8                      9
                      A                      A                      A
 Frequencies --    130.1421               158.6442               171.9104
 Red. masses --      3.0385                 2.0854                 3.3898
 Frc consts  --      0.0303                 0.0309                 0.0590
 IR Inten    --      0.1708                 2.1033                 8.0444

                     10                     11                     12
                      A                      A                      A
 Frequencies --    191.8873               219.4116               220.4236
 Red. masses --      1.7176                 1.7636                 3.3047
 Frc consts  --      0.0373                 0.0500                 0.0946
 IR Inten    --     11.0273                 0.3470                 4.0092

                     13                     14                     15
                      A                      A                      A
 Frequencies --    225.7908               232.0655               241.5139
 Red. masses --      1.8096                 2.9892                 4.1761
 Frc consts  --      0.0544                 0.0948                 0.1435
 IR Inten    --      1.4712                 2.1585                 7.6271

                     16                     17                     18
                      A                      A                      A
 Frequencies --    267.7625               275.9387               282.5394
 Red. masses --      2.6299                 1.1561                 2.2357
 Frc consts  --      0.1111                 0.0519                 0.1052
 IR Inten    --      3.9565                 0.5273                 0.3336

                     19                     20                     21
                      A                      A                      A
 Frequencies --    325.6101               361.9012               374.9463
 Red. masses --      3.5532                 3.5611                 3.1910
 Frc consts  --      0.2220                 0.2748                 0.2643
 IR Inten    --      1.1887                 2.9203                17.3308

                     22                     23                     24
                      A                      A                      A
 Frequencies --    391.5554               453.9727               462.9863
 Red. masses --      2.5508                 2.4618                 2.9016
 Frc consts  --      0.2304                 0.2989                 0.3665
 IR Inten    --      4.4130                19.6116                 0.7570

                     25                     26                     27
                      A                      A                      A
 Frequencies --    485.1904               492.8603               530.0532
 Red. masses --      1.4224                 2.4953                 3.2159
 Frc consts  --      0.1973                 0.3571                 0.5323
 IR Inten    --    165.9794                 8.4251                10.6505

                     28                     29                     30
                      A                      A                      A
 Frequencies --    547.3181               566.2472               605.0073
 Red. masses --      5.4700                 3.8915                 3.4563
 Frc consts  --      0.9654                 0.7352                 0.7454
 IR Inten    --      8.9902                 1.6792                 3.3337

                     31                     32                     33
                      A                      A                      A
 Frequencies --    626.3876               640.9229               685.5876
 Red. masses --      4.4041                 3.2236                 4.6451
 Frc consts  --      1.0181                 0.7802                 1.2864
 IR Inten    --      6.7986                 4.6277                 7.4737

                     34                     35                     36
                      A                      A                      A
 Frequencies --    705.4631               733.9888               760.8449
 Red. masses --      3.6462                 3.0770                 2.6251
 Frc consts  --      1.0692                 0.9767                 0.8953
 IR Inten    --     14.8028                 3.9577                 0.8377

                     37                     38                     39
                      A                      A                      A
 Frequencies --    823.9119               842.5123               850.0438
 Red. masses --      3.7184                 1.6202                 2.2121
 Frc consts  --      1.4872                 0.6776                 0.9418
 IR Inten    --     10.2183                22.5861                 3.2394

                     40                     41                     42
                      A                      A                      A
 Frequencies --    911.4789               932.6669               960.7022
 Red. masses --      1.8443                 2.6880                 2.4817
 Frc consts  --      0.9028                 1.3776                 1.3495
 IR Inten    --      9.3399                35.3489                18.7965

                     43                     44                     45
                      A                      A                      A
 Frequencies --    989.0243               992.4391               996.7210
 Red. masses --      2.0924                 2.8291                 1.7323
 Frc consts  --      1.2059                 1.6417                 1.0139
 IR Inten    --     36.3535                 2.1322                47.4856

                     46                     47                     48
                      A                      A                      A
 Frequencies --   1009.1248              1017.3376              1028.9032
 Red. masses --      4.2248                 2.2587                 1.8499
 Frc consts  --      2.5348                 1.3774                 1.1538
 IR Inten    --     23.0625                 5.5134                 5.5711

                     49                     50                     51
                      A                      A                      A
 Frequencies --   1048.5030              1052.6873              1074.5347
 Red. masses --      1.9666                 1.5153                 1.6112
 Frc consts  --      1.2738                 0.9894                 1.0960
 IR Inten    --      0.5603                12.2639                 5.9677

                     52                     53                     54
                      A                      A                      A
 Frequencies --   1092.6904              1102.4741              1126.5545
 Red. masses --      2.6085                 1.8679                 2.0193
 Frc consts  --      1.8350                 1.3377                 1.5099
 IR Inten    --      6.1068                14.9744                14.0261

                     55                     56                     57
                      A                      A                      A
 Frequencies --   1150.7219              1177.9667              1191.0960
 Red. masses --      2.0834                 1.5953                 1.7054
 Frc consts  --      1.6254                 1.3043                 1.4255
 IR Inten    --     18.4830                12.7840                27.9581

                     58                     59                     60
                      A                      A                      A
 Frequencies --   1199.3649              1230.8473              1248.5881
 Red. masses --      1.7214                 1.4810                 2.9300
 Frc consts  --      1.4590                 1.3220                 2.6913
 IR Inten    --     12.4056                14.6134                55.3379

                     61                     62                     63
                      A                      A                      A
 Frequencies --   1261.3904              1297.4861              1312.9413
 Red. masses --      1.3943                 3.9860                 1.5208
 Frc consts  --      1.3071                 3.9537                 1.5446
 IR Inten    --     15.8443                24.6179                 2.6182

                     64                     65                     66
                      A                      A                      A
 Frequencies --   1329.2149              1336.7639              1369.9035
 Red. masses --      1.2752                 1.3112                 1.3958
 Frc consts  --      1.3275                 1.3804                 1.5434
 IR Inten    --      4.4598                 2.1042                 9.8430

                     67                     68                     69
                      A                      A                      A
 Frequencies --   1375.5592              1384.0473              1387.8280
 Red. masses --      1.1809                 1.5807                 1.7877
 Frc consts  --      1.3165                 1.7840                 2.0287
 IR Inten    --      0.0868                31.5628                20.7880

                     70                     71                     72
                      A                      A                      A
 Frequencies --   1409.5074              1416.1278              1427.7612
 Red. masses --      1.8205                 1.2508                 1.4142
 Frc consts  --      2.1310                 1.4779                 1.6986
 IR Inten    --     29.6431                 2.5288                10.5680

                     73                     74                     75
                      A                      A                      A
 Frequencies --   1430.1805              1439.1317              1450.2077
 Red. masses --      1.2411                 1.2560                 1.8187
 Frc consts  --      1.4957                 1.5327                 2.2536
 IR Inten    --      4.6835                 5.6144                12.6571

                     76                     77                     78
                      A                      A                      A
 Frequencies --   1453.6122              1487.4934              1490.6167
 Red. masses --      1.6412                 2.4315                 1.1133
 Frc consts  --      2.0432                 3.1698                 1.4574
 IR Inten    --     21.2309                14.7415                 4.9123

                     79                     80                     81
                      A                      A                      A
 Frequencies --   1496.5555              1502.8470              1503.3442
 Red. masses --      1.1233                 1.0514                 1.1111
 Frc consts  --      1.4822                 1.3992                 1.4795
 IR Inten    --     21.7704                 9.1142                 8.2830

                     82                     83                     84
                      A                      A                      A
 Frequencies --   1509.1539              1517.9624              1520.6613
 Red. masses --      1.2724                 1.0520                 1.0635
 Frc consts  --      1.7074                 1.4282                 1.4489
 IR Inten    --     11.6394                 2.1446                10.5013

                     85                     86                     87
                      A                      A                      A
 Frequencies --   1529.7822              1535.6471              1536.9042
 Red. masses --      2.1768                 1.0829                 1.0950
 Frc consts  --      3.0015                 1.5046                 1.5239
 IR Inten    --    203.6019                 8.9058                 7.4445

                     88                     89                     90
                      A                      A                      A
 Frequencies --   1612.3295              1649.7983              1747.4809
 Red. masses --      4.7095                 6.1702                 1.0632
 Frc consts  --      7.2132                 9.8949                 1.9128
 IR Inten    --    116.3481               410.7803                29.6373

                     91                     92                     93
                      A                      A                      A
 Frequencies --   3009.0236              3045.1493              3051.2481
 Red. masses --      1.0683                 1.0634                 1.0701
 Frc consts  --      5.6990                 5.8101                 5.8700
 IR Inten    --     61.8293                31.7893                 9.4750

                     94                     95                     96
                      A                      A                      A
 Frequencies --   3054.9248              3058.0971              3058.2988
 Red. masses --      1.0479                 1.0448                 1.0405
 Frc consts  --      5.7620                 5.7569                 5.7340
 IR Inten    --     20.8861                40.0101                 3.2105

                     97                     98                     99
                      A                      A                      A
 Frequencies --   3069.4927              3073.6968              3091.2675
 Red. masses --      1.0783                 1.0612                 1.0921
 Frc consts  --      5.9857                 5.9069                 6.1487
 IR Inten    --     25.4455                16.8547                30.8400

                    100                    101                    102
                      A                      A                      A
 Frequencies --   3104.6255              3118.9981              3122.4810
 Red. masses --      1.1030                 1.1003                 1.1000
 Frc consts  --      6.2641                 6.3064                 6.3189
 IR Inten    --     18.4538                10.2393                28.9133

                    103                    104                    105
                      A                      A                      A
 Frequencies --   3125.1377              3134.0290              3141.2975
 Red. masses --      1.0992                 1.1052                 1.1025
 Frc consts  --      6.3254                 6.3957                 6.4100
 IR Inten    --     16.9650                18.6926                22.9372

                    106                    107                    108
                      A                      A                      A
 Frequencies --   3142.6643              3165.0736              3201.7973
 Red. masses --      1.1036                 1.0973                 1.0917
 Frc consts  --      6.4219                 6.4764                 6.5941
 IR Inten    --     17.9142                17.4317                11.4423

                    109                    110                    111
                      A                      A                      A
 Frequencies --   3434.7111              3508.2501              3618.5159
 Red. masses --      1.0479                 1.0937                 1.0778
 Frc consts  --      7.2839                 7.9312                 8.3148
 IR Inten    --      3.3164                 0.5004                46.4958

 - Thermochemistry -
 -------------------
 Temperature   298.150 Kelvin.  Pressure   1.00000 Atm.
 Atom     1 has atomic number  6 and mass  12.00000

 Molecular mass:   267.15177 amu.
 Principal axes and moments of inertia in atomic units:
                           1         2         3
     Eigenvalues --  3325.098746100.674737323.76649
           X            0.99978   0.00263  -0.02082
           Y           -0.00192   0.99942   0.03407
           Z            0.02090  -0.03402   0.99920
 This molecule is an asymmetric top.
 Rotational symmetry number  1.
 Warning -- assumption of classical behavior for rotation
           may cause significant error
 Rotational temperatures (Kelvin)      0.02605     0.01420     0.01183
 Rotational constants (GHZ):           0.54276     0.29583     0.24642
 Zero-point vibrational energy     884568.4 (Joules/Mol)
                                  211.41692 (Kcal/Mol)
 Warning -- explicit consideration of  30 degrees of freedom as
           vibrations may cause significant error
 Vibrational temperatures:     44.15    56.61    76.15   126.81   133.32
          (Kelvin)            163.63   187.25   228.25   247.34   276.08
                              315.68   317.14   324.86   333.89   347.48
                              385.25   397.01   406.51   468.48   520.70
                              539.46   563.36   653.17   666.13   698.08
                              709.12   762.63   787.47   814.70   870.47
                              901.23   922.15   986.41  1015.00  1056.05
                             1094.69  1185.43  1212.19  1223.02  1311.41
                             1341.90  1382.24  1422.99  1427.90  1434.06
                             1451.91  1463.72  1480.36  1508.56  1514.58
                             1546.02  1572.14  1586.21  1620.86  1655.63
                             1694.83  1713.72  1725.62  1770.91  1796.44
                             1814.86  1866.79  1889.03  1912.44  1923.31
                             1970.99  1979.12  1991.34  1996.77  2027.97
                             2037.49  2054.23  2057.71  2070.59  2086.53
                             2091.42  2140.17  2144.66  2153.21  2162.26
                             2162.98  2171.34  2184.01  2187.89  2201.02
                             2209.45  2211.26  2319.78  2373.69  2514.24
                             4329.31  4381.29  4390.07  4395.36  4399.92
                             4400.21  4416.32  4422.36  4447.64  4466.86
                             4487.54  4492.55  4496.38  4509.17  4519.63
                             4521.59  4553.83  4606.67  4941.78  5047.59
                             5206.24

 Zero-point correction=                           0.336914 (Hartree/Particle)
 Thermal correction to Energy=                    0.355778
 Thermal correction to Enthalpy=                  0.356722
 Thermal correction to Gibbs Free Energy=         0.289943
 Sum of electronic and zero-point Energies=          -1141.589930
 Sum of electronic and thermal Energies=             -1141.571067
 Sum of electronic and thermal Enthalpies=           -1141.570122
 Sum of electronic and thermal Free Energies=        -1141.636902

                     E (Thermal)             CV                S
                      KCal/Mol        Cal/Mol-Kelvin    Cal/Mol-Kelvin
 Total                  223.254             71.533            140.549
 Electronic               0.000              0.000              0.000
 Translational            0.889              2.981             42.647
 Rotational               0.889              2.981             33.363
 Vibrational            221.477             65.571             64.540
 Vibration     1          0.594              1.984              5.785
 Vibration     2          0.594              1.981              5.292
 Vibration     3          0.596              1.976              4.705
 Vibration     4          0.601              1.958              3.701
 Vibration     5          0.602              1.954              3.603
 Vibration     6          0.607              1.938              3.204
 Vibration     7          0.612              1.923              2.944
 Vibration     8          0.621              1.893              2.566
 Vibration     9          0.626              1.877              2.414
 Vibration    10          0.634              1.851              2.210
 Vibration    11          0.647              1.812              1.964
 Vibration    12          0.647              1.810              1.956
 Vibration    13          0.650              1.802              1.912
 Vibration    14          0.653              1.792              1.863
 Vibration    15          0.658              1.777              1.792
 Vibration    16          0.673              1.732              1.611
 Vibration    17          0.678              1.718              1.559
 Vibration    18          0.682              1.706              1.518
 Vibration    19          0.710              1.624              1.282
 Vibration    20          0.736              1.551              1.114
 Vibration    21          0.746              1.523              1.059
 Vibration    22          0.759              1.488              0.994
 Vibration    23          0.812              1.352              0.784
 Vibration    24          0.821              1.332              0.757
 Vibration    25          0.841              1.283              0.696
 Vibration    26          0.849              1.266              0.676
 Vibration    27          0.885              1.184              0.587
 Vibration    28          0.903              1.146              0.550
 Vibration    29          0.922              1.104              0.512
 Vibration    30          0.964              1.021              0.441

 Optimization completed.
    -- Stationary point found.
 Normal termination of Gaussian 16 at Fri Dec 11 23:52:15 2020.

 ----------------------------------------------------------------------
 # B3LYP/6-311++G(d,p) empiricaldispersion=gd3bj scf=xqc pop=npa geom=c
 heck
 ----------------------------------------------------------------------

 ---------------------------------------
 CID_116397850_JID_8973_Energie_neutraal
 ---------------------------------------
 Structure from the checkpoint file:  "JID_8973.chk"
 Charge =  0 Multiplicity = 1

 SCF Done:  E(RB3LYP) =  -1142.16059766     A.U. after   16 cycles
 Normal termination of Gaussian 16 at Sat Dec 12 00:00:29 2020.

 ----------------------------------------------------------------------
 # B3LYP/6-311++G(d,p) empiricaldispersion=gd3bj scf=xqc pop=npa geom=c
 heck
 ----------------------------------------------------------------------

 -------------------------------------
 CID_116397850_JID_8973_Energie_kation
 -------------------------------------
 Structure from the checkpoint file:  "JID_8973.chk"
 Charge =  1 Multiplicity = 2

 SCF Done:  E(UB3LYP) =  -1141.90184511     A.U. after   22 cycles
 Normal termination of Gaussian 16 at Sat Dec 12 00:16:14 2020.
 Gaussian 16:  ES64L-G16RevA.03 25-Dec-2016

 ----------------------------------------------------------------------
 # B3LYP/6-311++G(d,p) empiricaldispersion=gd3bj scf=xqc pop=npa geom=c
 heck
 ----------------------------------------------------------------------

 ------------------------------------
 CID_116397850_JID_8973_Energie_anion
 ------------------------------------
 Structure from the checkpoint file:  "JID_8973.chk"
 Charge = -1 Multiplicity = 2

                         Standard orientation:
 ---------------------------------------------------------------------
 Center     Atomic      Atomic             Coordinates (Angstroms)
 Number     Number       Type             X           Y           Z
 ---------------------------------------------------------------------
      1          6           0       -3.585351   -1.497623    0.725336
      2          6           0       -2.134792   -1.201041    0.314127
      3          6           0       -2.051651   -0.750301   -1.170199
      4         16           0       -2.715247    0.961459   -1.398978
      5          6           0       -1.718460    1.797922   -0.105720
      6          6           0       -1.887990    1.105428    1.249690
      7          7           0       -1.502710   -0.292557    1.267980
      8          6           0       -0.261690   -0.686281    1.901405
      9          6           0        0.988760   -0.541088    1.050515
     10          7           0        1.572615   -1.660835    0.628794
     11          6           0        2.650485   -1.514505   -0.180746
     12          6           0        3.118204   -0.267533   -0.552195
     13          6           0        2.426404    0.854335   -0.045181
     14          7           0        1.369540    0.716989    0.765500
     15          7           0        2.800734    2.128935   -0.380552
     16          7           0        2.259576    3.259597    0.266533
     17          6           0        3.293756   -2.785209   -0.660332
     18          6           0       -0.663914   -0.893064   -1.796869
     19          1           0       -3.612399   -1.845296    1.762407
     20          1           0       -4.021622   -2.272629    0.084407
     21          1           0       -4.211311   -0.604668    0.640317
     22          1           0       -1.570278   -2.139626    0.373694
     23          1           0       -2.755500   -1.370320   -1.736924
     24          1           0       -2.093681    2.825900   -0.061618
     25          1           0       -0.664070    1.819430   -0.392029
     26          1           0       -2.940550    1.207521    1.553803
     27          1           0       -1.278561    1.627886    1.994670
     28          1           0       -0.134374   -0.081535    2.807772
     29          1           0       -0.330883   -1.736027    2.204420
     30          1           0        3.974022   -0.153029   -1.210072
     31          1           0        3.741878    2.271678   -0.718610
     32          1           0        1.352574    3.445265   -0.162738
     33          1           0        2.047504    2.988000    1.228765
     34          1           0        4.172087   -2.590217   -1.281930
     35          1           0        3.590300   -3.401648    0.195079
     36          1           0        2.572472   -3.371393   -1.240900
     37          1           0       -0.269108   -1.902851   -1.633159
     38          1           0       -0.713736   -0.704456   -2.873152
     39          1           0        0.048345   -0.186468   -1.367325
 ---------------------------------------------------------------------

 SCF Done:  E(UB3LYP) =  -1142.14924533     A.U. after   33 cycles
 SCF Done:  E(UB3LYP) =  -1142.15000024     a.u. after    8 cycles

 The electronic state is 2-A.
 Alpha  occ. eigenvalues --  -88.74013 -14.25617 -14.23726 -14.20761 -14.19738
 Alpha  occ. eigenvalues --  -14.19449 -10.15166 -10.12742 -10.11830 -10.11201
 Alpha  occ. eigenvalues --  -10.11180 -10.10661 -10.10167 -10.09701 -10.07278
 Alpha  occ. eigenvalues --  -10.06694 -10.06561 -10.06555  -7.82657  -5.79030
 Alpha  occ. eigenvalues --   -5.78701  -5.78030  -0.91027  -0.86749  -0.83547
 Alpha  occ. eigenvalues --   -0.77878  -0.72806  -0.71662  -0.69240  -0.67328
 Alpha  occ. eigenvalues --   -0.64445  -0.61395  -0.60537  -0.57861  -0.54024
 Alpha  occ. eigenvalues --   -0.53511  -0.52082  -0.49925  -0.44187  -0.43576
 Alpha  occ. eigenvalues --   -0.42954  -0.40783  -0.39698  -0.38480  -0.37497
 Alpha  occ. eigenvalues --   -0.36746  -0.35966  -0.35689  -0.34273  -0.34090
 Alpha  occ. eigenvalues --   -0.33079  -0.32225  -0.31195  -0.30701  -0.30110
 Alpha  occ. eigenvalues --   -0.28827  -0.28789  -0.28652  -0.27866  -0.26518
 Alpha  occ. eigenvalues --   -0.25927  -0.25468  -0.23499  -0.23030  -0.20962
 Alpha  occ. eigenvalues --   -0.20087  -0.18604  -0.17773  -0.15085  -0.13640
 Alpha  occ. eigenvalues --   -0.13012  -0.10609   0.04409
 Alpha virt. eigenvalues --    0.06033   0.06558   0.06867   0.07780   0.07895
 Alpha virt. eigenvalues --    0.08340   0.08644   0.09046   0.09637   0.10264
 Alpha virt. eigenvalues --    0.10382   0.10599   0.11225   0.11881   0.12186

  Beta  occ. eigenvalues --  -88.74011 -14.25585 -14.23704 -14.20749 -14.19666
  Beta  occ. eigenvalues --  -14.19480 -10.15178 -10.12646 -10.11828 -10.11199
  Beta  occ. eigenvalues --  -10.11080 -10.10654 -10.10171 -10.09676 -10.07275
  Beta  occ. eigenvalues --  -10.06629 -10.06554 -10.06535  -7.82655  -5.79026
  Beta  occ. eigenvalues --   -5.78698  -5.78029  -0.90966  -0.86662  -0.83524
  Beta  occ. eigenvalues --   -0.77788  -0.72743  -0.71599  -0.69221  -0.67225
  Beta  occ. eigenvalues --   -0.64421  -0.61343  -0.60458  -0.57825  -0.53959
  Beta  occ. eigenvalues --   -0.53475  -0.52039  -0.49814  -0.44140  -0.43514
  Beta  occ. eigenvalues --   -0.42892  -0.40740  -0.39666  -0.38452  -0.37415
  Beta  occ. eigenvalues --   -0.36688  -0.35873  -0.35624  -0.34195  -0.34043
  Beta  occ. eigenvalues --   -0.32972  -0.32181  -0.31170  -0.30629  -0.30055
  Beta  occ. eigenvalues --   -0.28761  -0.28755  -0.28624  -0.27798  -0.26497
  Beta  occ. eigenvalues --   -0.25912  -0.25457  -0.23473  -0.22924  -0.20929
  Beta  occ. eigenvalues --   -0.20033  -0.18554  -0.17381  -0.15058  -0.13601
  Beta  occ. eigenvalues --   -0.12878  -0.10582
  Beta virt. eigenvalues --    0.06046   0.06896   0.07277   0.07481   0.07901
  Beta virt. eigenvalues --    0.08475   0.08650   0.08959   0.09037   0.09677
  Beta virt. eigenvalues --    0.10325   0.10593   0.11021   0.11337   0.11862

 Mulliken charges and spin densities:
               1          2
     1  C   -0.505937  -0.131450
     2  C   -0.673701   0.070563
     3  C    0.730871  -0.065723
     4  S   -0.040306  -0.070113
     5  C   -0.434706  -0.218437
     6  C    0.100014  -0.080995
     7  N    0.198330   0.013774
     8  C   -0.423594  -0.348271
     9  C   -0.579745   0.397120
    10  N    0.041650   0.098811
    11  C   -1.233147   1.424599
    12  C    0.735251  -0.902366
    13  C    0.235349  -0.376911
    14  N   -0.045024  -0.006972
    15  N   -0.116433  -0.052231
    16  N   -0.350270   0.109468
    17  C    2.509285  -2.905451
    18  C   -0.781848  -0.074610
    19  H    0.136412   0.016941
    20  H    0.075547   0.032052
    21  H    0.117307   0.038539
    22  H    0.155770   0.032802
    23  H    0.252225   0.013382
    24  H   -0.240196   0.464674
    25  H    0.253845  -0.096623
    26  H    0.074731   0.068122
    27  H    0.122568   0.022248
    28  H    0.090438   0.062083
    29  H    0.131467   0.036068
    30  H   -1.239954   1.438116
    31  H   -0.248885   0.566196
    32  H    0.082393   0.158942
    33  H    0.069491   0.173973
    34  H   -0.376660   0.534118
    35  H   -0.122844   0.281331
    36  H    0.049845   0.096621
    37  H    0.110881   0.018494
    38  H    0.041732   0.103309
    39  H    0.097846   0.057808
 Sum of Mulliken charges =  -1.00000   1.00000

 Dipole moment (field-independent basis, Debye):
    X=             -9.6515    Y=             -2.2588    Z=              2.3645  Tot=             10.1904
 Quadrupole moment (field-independent basis, Debye-Ang):
   XX=           -211.9350   YY=           -167.0331   ZZ=           -145.9319
   XY=              3.9221   XZ=              9.0926   YZ=              4.3481

 Summary of Natural Population Analysis:

                                       Natural Population
                Natural  -----------------------------------------------
    Atom  No    Charge         Core      Valence    Rydberg      Total
 -----------------------------------------------------------------------
      C    1   -0.29107      0.99964     2.28585    0.00557     3.29107
      C    2   -0.00406      0.99956     1.99276    0.01174     3.00406
      C    3   -0.16601      0.99955     2.15472    0.01174     3.16601
      S    4    0.07740      4.99962     2.90607    0.01691     7.92260
      C    5   -0.26189      0.99959     2.25048    0.01182     3.26189
      C    6   -0.08394      0.99960     2.07211    0.01223     3.08394
      N    7   -0.28838      0.99969     2.77428    0.01441     3.78838
      C    8   -0.09076      0.99956     2.07985    0.01134     3.09076
      C    9    0.23583      0.99960     1.74644    0.01814     2.76417
      N   10   -0.28690      0.99965     2.77673    0.01052     3.78690
      C   11    0.14076      0.99954     1.84604    0.01366     2.85924
      C   12   -0.15321      0.99945     2.14345    0.01032     3.15321
      C   13    0.21009      0.99952     1.77424    0.01615     2.78991
      N   14   -0.29521      0.99964     2.78390    0.01168     3.79521
      N   15   -0.21882      0.99965     2.70568    0.01348     3.71882
      N   16   -0.31358      0.99978     2.80338    0.01042     3.81358
      C   17   -0.29886      0.99963     2.29276    0.00646     3.29886
      C   18   -0.29136      0.99962     2.28501    0.00673     3.29136
      H   19    0.09966      0.00000     0.39920    0.00113     0.40034
      H   20    0.09407      0.00000     0.40496    0.00097     0.40593
      H   21    0.10368      0.00000     0.39513    0.00119     0.39632
      H   22    0.10222      0.00000     0.39619    0.00159     0.39778
      H   23    0.10066      0.00000     0.39837    0.00097     0.39934
      H   24    0.10416      0.00000     0.39441    0.00143     0.39584
      H   25    0.10846      0.00000     0.38953    0.00201     0.39154
      H   26    0.08780      0.00000     0.41096    0.00124     0.41220
      H   27    0.10186      0.00000     0.39687    0.00127     0.39814
      H   28    0.09802      0.00000     0.40089    0.00109     0.40198
      H   29    0.09978      0.00000     0.39911    0.00111     0.40022
      H   30    0.11123      0.00000     0.38533    0.00343     0.38877
      H   31    0.19285      0.00000     0.29985    0.00730     0.30715
      H   32    0.17246      0.00000     0.32492    0.00262     0.32754
      H   33    0.17561      0.00000     0.32185    0.00254     0.32439
      H   34    0.10384      0.00000     0.39484    0.00132     0.39616
      H   35    0.10903      0.00000     0.38961    0.00136     0.39097
      H   36    0.10531      0.00000     0.39366    0.00103     0.39469
      H   37    0.10278      0.00000     0.39613    0.00109     0.39722
      H   38    0.10090      0.00000     0.39811    0.00099     0.39910
      H   39    0.10558      0.00000     0.39285    0.00157     0.39442
 =======================================================================
   * Total *   -0.00000     21.99288    49.75654    0.25058    72.00000

 Normal termination of Gaussian 16 at Sat Dec 12 02:45:20 2020.
