 Gaussian 16, Revision A.03,

 -----------------------------------------------------------
 # opt freq B3LYP/6-31G(d) empiricaldispersion=gd3bj scf=xqc
 -----------------------------------------------------------

 -------------------------------
 CID_152031058_JID_1847_neutraal
 -------------------------------
 Symbolic Z-matrix:
 Charge =  0 Multiplicity = 1

 SCF Done:  E(RB3LYP) =  -528.810378417     A.U. after   16 cycles
 SCF Done:  E(RB3LYP) =  -528.818329148     A.U. after   14 cycles
 SCF Done:  E(RB3LYP) =  -528.819478757     A.U. after   15 cycles
 SCF Done:  E(RB3LYP) =  -528.820328177     A.U. after   13 cycles
 SCF Done:  E(RB3LYP) =  -528.820705470     A.U. after   13 cycles
 SCF Done:  E(RB3LYP) =  -528.820885577     A.U. after   14 cycles
 SCF Done:  E(RB3LYP) =  -528.821105972     A.U. after   13 cycles
 SCF Done:  E(RB3LYP) =  -528.821269202     A.U. after   14 cycles
 SCF Done:  E(RB3LYP) =  -528.821352329     A.U. after   13 cycles
 SCF Done:  E(RB3LYP) =  -528.821384468     A.U. after   12 cycles
 SCF Done:  E(RB3LYP) =  -528.821390723     A.U. after   11 cycles
 SCF Done:  E(RB3LYP) =  -528.821398662     A.U. after   11 cycles
 SCF Done:  E(RB3LYP) =  -528.821399491     A.U. after    9 cycles
 Optimization completed.
    -- Stationary point found.
 Normal termination of Gaussian 16 at Tue Dec  8 21:22:38 2020.

 --------------------------------------------------------------------
 #N Geom=AllCheck Guess=TCheck SCRF=Check GenChk RB3LYP/6-31G(d) Freq
 --------------------------------------------------------------------

 Structure from the checkpoint file:  "JID_1847.chk"
 -------------------------------
 CID_152031058_JID_1847_neutraal
 -------------------------------
 Charge =  0 Multiplicity = 1

 SCF Done:  E(RB3LYP) =  -528.821399491     A.U. after    1 cycles

  Exact polarizability:  99.736   6.040  86.606   3.561   4.041  75.528
 Approx polarizability: 147.719  26.834 134.446  14.131  19.791 136.545

                      1                      2                      3
                      A                      A                      A
 Frequencies --     35.7839                40.0911                85.7746
 Red. masses --      7.1256                 2.8183                 4.1342
 Frc consts  --      0.0054                 0.0027                 0.0179
 IR Inten    --      0.1528                 0.2280                 1.7246

                      4                      5                      6
                      A                      A                      A
 Frequencies --    124.4415               173.0306               208.0896
 Red. masses --      3.4890                 4.4885                 1.9856
 Frc consts  --      0.0318                 0.0792                 0.0507
 IR Inten    --      1.1842                 1.0053                 0.0578

                      7                      8                      9
                      A                      A                      A
 Frequencies --    272.4617               276.6473               346.7580
 Red. masses --      3.0697                 1.5720                 2.6955
 Frc consts  --      0.1343                 0.0709                 0.1910
 IR Inten    --      1.6194                 1.2105                 2.7641

                     10                     11                     12
                      A                      A                      A
 Frequencies --    412.5105               465.8300               472.8615
 Red. masses --      3.0132                 6.2442                 2.8091
 Frc consts  --      0.3021                 0.7983                 0.3701
 IR Inten    --      1.4682                 2.7994                33.9810

                     13                     14                     15
                      A                      A                      A
 Frequencies --    485.0557               582.9661               609.7908
 Red. masses --      3.0611                 9.1597                 3.5062
 Frc consts  --      0.4243                 1.8341                 0.7682
 IR Inten    --      8.1693                 3.3148                33.8222

                     16                     17                     18
                      A                      A                      A
 Frequencies --    670.7866               712.8760               723.5333
 Red. masses --      2.0437                 6.0521                 1.3822
 Frc consts  --      0.5418                 1.8121                 0.4263
 IR Inten    --     47.4751                15.8130                88.7537

                     19                     20                     21
                      A                      A                      A
 Frequencies --    787.7353               812.5164               845.7717
 Red. masses --      1.4856                 1.3545                 4.0498
 Frc consts  --      0.5431                 0.5269                 1.7068
 IR Inten    --     26.8203                 3.0481                38.2141

                     22                     23                     24
                      A                      A                      A
 Frequencies --    870.2058               884.5113               894.4882
 Red. masses --      1.8606                 6.0542                 2.1633
 Frc consts  --      0.8301                 2.7907                 1.0198
 IR Inten    --     35.9889                 6.8168                22.2939

                     25                     26                     27
                      A                      A                      A
 Frequencies --    959.7859              1017.3822              1065.7244
 Red. masses --      2.5583                 2.1856                 2.0532
 Frc consts  --      1.3885                 1.3329                 1.3739
 IR Inten    --    137.5394                18.0771                13.7715

                     28                     29                     30
                      A                      A                      A
 Frequencies --   1068.7042              1122.9012              1129.9316
 Red. masses --      2.3029                 2.5530                 2.1496
 Frc consts  --      1.5497                 1.8966                 1.6170
 IR Inten    --     17.4253                10.3583                35.2724

                     31                     32                     33
                      A                      A                      A
 Frequencies --   1165.9914              1184.5704              1223.4996
 Red. masses --      2.0370                 1.5978                 2.4625
 Frc consts  --      1.6316                 1.3209                 2.1719
 IR Inten    --     38.2717                65.5994                14.5984

                     34                     35                     36
                      A                      A                      A
 Frequencies --   1294.5940              1317.0469              1318.5608
 Red. masses --      1.3264                 5.9987                 1.3532
 Frc consts  --      1.3097                 6.1307                 1.3862
 IR Inten    --     29.3421               155.3385                18.2947

                     37                     38                     39
                      A                      A                      A
 Frequencies --   1362.1854              1399.4768              1404.4401
 Red. masses --      1.6276                 1.4020                 1.4313
 Frc consts  --      1.7794                 1.6178                 1.6634
 IR Inten    --      3.1854                34.7854                 3.6675

                     40                     41                     42
                      A                      A                      A
 Frequencies --   1440.9334              1450.6480              1507.7524
 Red. masses --      1.5970                 1.2972                 1.0864
 Frc consts  --      1.9536                 1.6084                 1.4551
 IR Inten    --    107.5692                 4.5345                 3.3842

                     43                     44                     45
                      A                      A                      A
 Frequencies --   1522.0794              1529.4538              1538.4075
 Red. masses --      1.0445                 1.0435                 1.0840
 Frc consts  --      1.4257                 1.4382                 1.5116
 IR Inten    --      5.1865                 5.0515                10.2234

                     46                     47                     48
                      A                      A                      A
 Frequencies --   1700.9542              2267.7339              3018.3400
 Red. masses --      5.5846                13.9606                 1.0700
 Frc consts  --      9.5198                42.2999                 5.7435
 IR Inten    --     24.5015               478.3952                36.1542

                     49                     50                     51
                      A                      A                      A
 Frequencies --   3058.3402              3062.7477              3075.3793
 Red. masses --      1.0412                 1.0787                 1.0702
 Frc consts  --      5.7382                 5.9616                 5.9639
 IR Inten    --     22.4666                19.8683                27.4708

                     52                     53                     54
                      A                      A                      A
 Frequencies --   3116.6766              3121.9960              3144.5642
 Red. masses --      1.1042                 1.1024                 1.1008
 Frc consts  --      6.3195                 6.3305                 6.4132
 IR Inten    --     14.2421                41.4220                32.7392

                     55                     56                     57
                      A                      A                      A
 Frequencies --   3279.3319              3304.8016              3523.1719
 Red. masses --      1.0887                 1.1098                 1.0757
 Frc consts  --      6.8983                 7.1416                 7.8670
 IR Inten    --      0.4924                 4.2284                 3.4676

 - Thermochemistry -
 -------------------
 Temperature   298.150 Kelvin.  Pressure   1.00000 Atm.
 Atom     1 has atomic number  6 and mass  12.00000

 Molecular mass:   154.08546 amu.
 Principal axes and moments of inertia in atomic units:
                           1         2         3
     Eigenvalues --  1169.727071770.568572360.58587
           X            0.99923  -0.03931  -0.00054
           Y            0.03931   0.99922  -0.00225
           Z            0.00063   0.00222   1.00000
 This molecule is an asymmetric top.
 Rotational symmetry number  1.
 Warning -- assumption of classical behavior for rotation
           may cause significant error
 Rotational temperatures (Kelvin)      0.07405     0.04892     0.03669
 Rotational constants (GHZ):           1.54287     1.01930     0.76453
 Zero-point vibrational energy     445564.8 (Joules/Mol)
                                  106.49255 (Kcal/Mol)
 Warning -- explicit consideration of  15 degrees of freedom as
           vibrations may cause significant error
 Vibrational temperatures:     51.49    57.68   123.41   179.04   248.95
          (Kelvin)            299.39   392.01   398.03   498.91   593.51
                              670.23   680.34   697.89   838.76   877.35
                              965.11  1025.67  1041.00  1133.38  1169.03
                             1216.88  1252.03  1272.61  1286.97  1380.92
                             1463.79  1533.34  1537.63  1615.60  1625.72
                             1677.60  1704.33  1760.34  1862.63  1894.94
                             1897.11  1959.88  2013.53  2020.68  2073.18
                             2087.16  2169.32  2189.93  2200.54  2213.43
                             2447.29  3262.76  4342.72  4400.27  4406.61
                             4424.78  4484.20  4491.86  4524.33  4718.23
                             4754.87  5069.06

 Zero-point correction=                           0.169707 (Hartree/Particle)
 Thermal correction to Energy=                    0.180538
 Thermal correction to Enthalpy=                  0.181483
 Thermal correction to Gibbs Free Energy=         0.132057
 Sum of electronic and zero-point Energies=           -528.651693
 Sum of electronic and thermal Energies=              -528.640861
 Sum of electronic and thermal Enthalpies=            -528.639917
 Sum of electronic and thermal Free Energies=         -528.689342

                     E (Thermal)             CV                S
                      KCal/Mol        Cal/Mol-Kelvin    Cal/Mol-Kelvin
 Total                  113.290             39.716            104.024
 Electronic               0.000              0.000              0.000
 Translational            0.889              2.981             41.007
 Rotational               0.889              2.981             29.970
 Vibrational            111.512             33.754             33.047
 Vibration     1          0.594              1.982              5.480
 Vibration     2          0.594              1.981              5.255
 Vibration     3          0.601              1.959              3.754
 Vibration     4          0.610              1.929              3.030
 Vibration     5          0.627              1.876              2.402
 Vibration     6          0.641              1.828              2.060
 Vibration     7          0.675              1.724              1.581
 Vibration     8          0.678              1.717              1.554
 Vibration     9          0.725              1.582              1.181
 Vibration    10          0.776              1.443              0.918
 Vibration    11          0.823              1.326              0.749
 Vibration    12          0.830              1.310              0.730
 Vibration    13          0.841              1.283              0.697
 Vibration    14          0.940              1.068              0.480
 Vibration    15          0.969              1.011              0.433

                           ! Non-Optimized Parameters !
 Normal termination of Gaussian 16 at Tue Dec  8 21:27:14 2020.

 ----------------------------------------------------------------------
 # B3LYP/6-311++G(d,p) empiricaldispersion=gd3bj scf=xqc pop=npa geom=c
 heck
 ----------------------------------------------------------------------

 ---------------------------------------
 CID_152031058_JID_1847_Energie_neutraal
 ---------------------------------------
 Structure from the checkpoint file:  "JID_1847.chk"
 Charge =  0 Multiplicity = 1

 SCF Done:  E(RB3LYP) =  -528.974199475     A.U. after   16 cycles
 Normal termination of Gaussian 16 at Tue Dec  8 21:30:27 2020.

 ----------------------------------------------------------------------
 # B3LYP/6-311++G(d,p) empiricaldispersion=gd3bj scf=xqc pop=npa geom=c
 heck
 ----------------------------------------------------------------------

 -------------------------------------
 CID_152031058_JID_1847_Energie_kation
 -------------------------------------
 Structure from the checkpoint file:  "JID_1847.chk"
 Charge =  1 Multiplicity = 2

 SCF Done:  E(UB3LYP) =  -528.677332181     A.U. after   22 cycles
 Normal termination of Gaussian 16 at Tue Dec  8 21:36:32 2020.
 Gaussian 16:  ES64L-G16RevA.03 25-Dec-2016

 ----------------------------------------------------------------------
 # B3LYP/6-311++G(d,p) empiricaldispersion=gd3bj scf=xqc pop=npa geom=c
 heck
 ----------------------------------------------------------------------

 ------------------------------------
 CID_152031058_JID_1847_Energie_anion
 ------------------------------------
 Structure from the checkpoint file:  "JID_1847.chk"
 Charge = -1 Multiplicity = 2

                         Standard orientation:
 ---------------------------------------------------------------------
 Center     Atomic      Atomic             Coordinates (Angstroms)
 Number     Number       Type             X           Y           Z
 ---------------------------------------------------------------------
      1          6           0       -2.880109    0.779229    0.368843
      2          6           0       -2.491948   -0.693567    0.212741
      3          6           0       -1.293005   -0.978958   -0.705719
      4          6           0        0.038261   -0.350713   -0.303337
      5          7           0        0.411426   -0.513904    1.097091
      6          6           0        1.732452   -1.051027    1.087844
      7          6           0        2.108660   -1.262163   -0.173421
      8          8           0        1.099947   -0.964974   -1.069199
      9          7           0       -0.017532    1.088162   -0.700436
     10          7           0        0.860946    1.799299   -0.199808
     11          7           0        1.612318    2.551830    0.210426
     12          1           0       -2.100293    1.348552    0.880951
     13          1           0       -3.806248    0.868714    0.947446
     14          1           0       -3.039497    1.250401   -0.606880
     15          1           0       -2.313601   -1.131278    1.206268
     16          1           0       -3.342708   -1.253138   -0.195664
     17          1           0       -1.121048   -2.059781   -0.753404
     18          1           0       -1.509656   -0.640001   -1.724043
     19          1           0       -0.264180   -1.055563    1.628834
     20          1           0        2.297499   -1.157396    2.001794
     21          1           0        3.044186   -1.585235   -0.604324
 ---------------------------------------------------------------------

 SCF Done:  E(UB3LYP) =  -528.961276226     A.U. after   33 cycles
 SCF Done:  E(UB3LYP) =  -528.961276227     a.u. after    1 cycles

 The electronic state is 2-A.
 Alpha  occ. eigenvalues --  -19.04844 -14.35811 -14.26011 -14.23568 -14.22077
 Alpha  occ. eigenvalues --  -10.19784 -10.11472 -10.09253 -10.06784 -10.06299
 Alpha  occ. eigenvalues --  -10.04584  -1.02428  -0.98150  -0.86141  -0.81168
 Alpha  occ. eigenvalues --   -0.70561  -0.65216  -0.59173  -0.55378  -0.50555
 Alpha  occ. eigenvalues --   -0.48380  -0.46360  -0.41752  -0.39555  -0.39119
 Alpha  occ. eigenvalues --   -0.35627  -0.35207  -0.34281  -0.33092  -0.32076
 Alpha  occ. eigenvalues --   -0.31550  -0.29113  -0.27667  -0.26767  -0.23832
 Alpha  occ. eigenvalues --   -0.23385  -0.22546  -0.20621  -0.19923  -0.14760
 Alpha  occ. eigenvalues --   -0.10044   0.04825
 Alpha virt. eigenvalues --    0.06815   0.07234   0.08454   0.09098   0.09728
 Alpha virt. eigenvalues --    0.10449   0.11026   0.11733   0.12372   0.13096
 Alpha virt. eigenvalues --    0.13242   0.14367   0.15136   0.16531   0.16867

  Beta  occ. eigenvalues --  -19.04847 -14.35680 -14.25821 -14.23594 -14.22044
  Beta  occ. eigenvalues --  -10.19757 -10.11463 -10.09238 -10.06764 -10.06256
  Beta  occ. eigenvalues --  -10.04556  -1.02184  -0.98115  -0.86013  -0.81107
  Beta  occ. eigenvalues --   -0.70500  -0.65156  -0.59115  -0.55269  -0.50510
  Beta  occ. eigenvalues --   -0.48261  -0.46284  -0.41649  -0.39236  -0.38871
  Beta  occ. eigenvalues --   -0.35531  -0.35047  -0.33947  -0.32992  -0.32028
  Beta  occ. eigenvalues --   -0.31402  -0.29069  -0.27651  -0.26736  -0.23780
  Beta  occ. eigenvalues --   -0.23304  -0.22494  -0.20576  -0.19628  -0.14710
  Beta  occ. eigenvalues --   -0.09998
  Beta virt. eigenvalues --    0.07489   0.07995   0.08405   0.09343   0.09748
  Beta virt. eigenvalues --    0.10451   0.11117   0.11207   0.12078   0.12663
  Beta virt. eigenvalues --    0.13175   0.13394   0.14902   0.15158   0.16626

 Mulliken charges and spin densities:
               1          2
     1  C    0.752688  -1.349246
     2  C   -0.032108  -0.124890
     3  C   -0.959693   0.969433
     4  C    1.601431  -2.687514
     5  N   -0.280122   0.292219
     6  C    0.287716  -0.486576
     7  C    0.229392  -0.175045
     8  O   -0.073653   0.050396
     9  N   -0.715964   1.281946
    10  N    0.578622  -0.449539
    11  N    0.257097  -0.694155
    12  H   -0.018082   0.180248
    13  H   -0.359881   0.492833
    14  H    0.021322   0.118905
    15  H   -0.433827   0.563323
    16  H   -0.694784   0.860463
    17  H   -0.133007   0.323808
    18  H    0.045559   0.147041
    19  H   -0.007876   0.290980
    20  H   -0.784769   0.948047
    21  H   -0.280063   0.447323
 Sum of Mulliken charges =  -1.00000   1.00000

 Dipole moment (field-independent basis, Debye):
    X=              2.5562    Y=              1.6708    Z=             -3.1797  Tot=              4.4086
 Quadrupole moment (field-independent basis, Debye-Ang):
   XX=           -120.1951   YY=           -103.5409   ZZ=            -97.1619
   XY=             -4.7437   XZ=              0.5470   YZ=              4.4004

 Summary of Natural Population Analysis:

                                       Natural Population
                Natural  -----------------------------------------------
    Atom  No    Charge         Core      Valence    Rydberg      Total
 -----------------------------------------------------------------------
      C    1   -0.28673      0.99966     2.28042    0.00665     3.28673
      C    2   -0.18992      0.99964     2.18135    0.00893     3.18992
      C    3   -0.20021      0.99954     2.18942    0.01124     3.20021
      C    4    0.30521      0.99957     1.67173    0.02349     2.69479
      N    5   -0.34491      0.99968     2.83181    0.01341     3.84491
      C    6   -0.04516      0.99952     2.03275    0.01289     3.04516
      C    7    0.04197      0.99945     1.94469    0.01389     2.95803
      O    8   -0.28653      0.99987     3.27794    0.00872     4.28653
      N    9   -0.20709      0.99965     2.69296    0.01448     3.70709
      N   10    0.13590      0.99970     2.34816    0.01624     3.36410
      N   11   -0.02708      0.99981     2.51408    0.01318     3.52708
      H   12    0.10123      0.00000     0.39733    0.00144     0.39877
      H   13    0.09761      0.00000     0.40115    0.00124     0.40239
      H   14    0.09676      0.00000     0.40214    0.00110     0.40324
      H   15    0.09399      0.00000     0.40292    0.00310     0.40601
      H   16    0.10047      0.00000     0.39736    0.00217     0.39953
      H   17    0.10751      0.00000     0.39100    0.00149     0.39249
      H   18    0.10740      0.00000     0.39110    0.00149     0.39260
      H   19    0.19606      0.00000     0.29912    0.00482     0.30394
      H   20    0.10654      0.00000     0.39183    0.00163     0.39346
      H   21    0.09697      0.00000     0.40198    0.00105     0.40303
 =======================================================================
   * Total *    0.00000     10.99610    29.84123    0.16267    41.00000

 Normal termination of Gaussian 16 at Tue Dec  8 21:44:06 2020.
