 Gaussian 16, Revision A.03,

 -----------------------------------------------------------
 # opt freq B3LYP/6-31G(d) empiricaldispersion=gd3bj scf=xqc
 -----------------------------------------------------------

 ------------------------------
 CID_84024580_JID_4465_neutraal
 ------------------------------
 Symbolic Z-matrix:
 Charge =  0 Multiplicity = 1

 SCF Done:  E(RB3LYP) =  -582.482398706     A.U. after   13 cycles
 SCF Done:  E(RB3LYP) =  -582.486325008     A.U. after   11 cycles
 SCF Done:  E(RB3LYP) =  -582.484785151     A.U. after   11 cycles
 SCF Done:  E(RB3LYP) =  -582.487390105     A.U. after   10 cycles
 SCF Done:  E(RB3LYP) =  -582.488011783     A.U. after   10 cycles
 SCF Done:  E(RB3LYP) =  -582.488116893     A.U. after    9 cycles
 SCF Done:  E(RB3LYP) =  -582.488150521     A.U. after    9 cycles
 SCF Done:  E(RB3LYP) =  -582.488132266     A.U. after    9 cycles
 SCF Done:  E(RB3LYP) =  -582.488122805     A.U. after    9 cycles
 SCF Done:  E(RB3LYP) =  -582.488166966     A.U. after    9 cycles
 SCF Done:  E(RB3LYP) =  -582.488182263     A.U. after    9 cycles
 SCF Done:  E(RB3LYP) =  -582.488184089     A.U. after    7 cycles
 SCF Done:  E(RB3LYP) =  -582.488184100     A.U. after    6 cycles
 Optimization completed.
    -- Stationary point found.
 Normal termination of Gaussian 16 at Thu Dec 10 09:55:08 2020.

 --------------------------------------------------------------------
 #N Geom=AllCheck Guess=TCheck SCRF=Check GenChk RB3LYP/6-31G(d) Freq
 --------------------------------------------------------------------

 Structure from the checkpoint file:  "JID_4465.chk"
 ------------------------------
 CID_84024580_JID_4465_neutraal
 ------------------------------
 Charge =  0 Multiplicity = 1

 SCF Done:  E(RB3LYP) =  -582.488184100     A.U. after    1 cycles

  Exact polarizability: 151.860  -1.039 137.488   0.090   1.376 122.704
 Approx polarizability: 192.640  -1.984 189.044   2.278   3.037 184.781

                      1                      2                      3
                      A                      A                      A
 Frequencies --     36.5188                66.5616                87.5920
 Red. masses --      3.1865                 3.2411                 3.2202
 Frc consts  --      0.0025                 0.0085                 0.0146
 IR Inten    --      0.0530                 0.4587                 0.8664

                      4                      5                      6
                      A                      A                      A
 Frequencies --    101.5693               114.6160               131.6271
 Red. masses --      2.3097                 2.1647                 2.4084
 Frc consts  --      0.0140                 0.0168                 0.0246
 IR Inten    --      0.3631                 0.9960                 2.1617

                      7                      8                      9
                      A                      A                      A
 Frequencies --    181.3839               203.2980               217.5466
 Red. masses --      2.8903                 1.7484                 1.8922
 Frc consts  --      0.0560                 0.0426                 0.0528
 IR Inten    --      0.6946                 9.2624                 0.4963

                     10                     11                     12
                      A                      A                      A
 Frequencies --    229.5432               234.6393               266.3240
 Red. masses --      1.3445                 1.2298                 1.5584
 Frc consts  --      0.0417                 0.0399                 0.0651
 IR Inten    --     11.7251                12.1260                 0.0516

                     13                     14                     15
                      A                      A                      A
 Frequencies --    274.4071               282.6992               305.2823
 Red. masses --      1.1992                 1.1924                 1.3946
 Frc consts  --      0.0532                 0.0561                 0.0766
 IR Inten    --      0.3167                15.1641                 0.0920

                     16                     17                     18
                      A                      A                      A
 Frequencies --    319.5001               329.7936               356.0029
 Red. masses --      2.5154                 2.5837                 2.2630
 Frc consts  --      0.1513                 0.1656                 0.1690
 IR Inten    --      5.5168                 0.1200                 4.1846

                     19                     20                     21
                      A                      A                      A
 Frequencies --    367.4511               409.1591               417.9823
 Red. masses --      2.2077                 2.5127                 2.2043
 Frc consts  --      0.1756                 0.2478                 0.2269
 IR Inten    --      2.3508                 0.0234                 0.8052

                     22                     23                     24
                      A                      A                      A
 Frequencies --    446.3051               499.7642               560.0063
 Red. masses --      2.5806                 2.0771                 2.5646
 Frc consts  --      0.3028                 0.3057                 0.4739
 IR Inten    --      1.5186                 0.0600                 0.2598

                     25                     26                     27
                      A                      A                      A
 Frequencies --    593.3295               622.7581               663.8190
 Red. masses --      2.7052                 2.2772                 2.2507
 Frc consts  --      0.5611                 0.5203                 0.5844
 IR Inten    --     14.6861                 2.4727                 2.0307

                     28                     29                     30
                      A                      A                      A
 Frequencies --    788.3113               809.2148               836.6416
 Red. masses --      3.4930                 1.9905                 2.4338
 Frc consts  --      1.2789                 0.7679                 1.0037
 IR Inten    --      1.7042                 1.3636                 1.5777

                     31                     32                     33
                      A                      A                      A
 Frequencies --    844.7124               865.2245               895.1057
 Red. masses --      2.2502                 1.2756                 2.0370
 Frc consts  --      0.9460                 0.5626                 0.9616
 IR Inten    --      1.7238                86.4171                 1.2613

                     34                     35                     36
                      A                      A                      A
 Frequencies --    904.9818               915.6352               940.9121
 Red. masses --      2.6675                 1.7026                 1.9072
 Frc consts  --      1.2871                 0.8410                 0.9948
 IR Inten    --      4.4456                14.0270                 3.3844

                     37                     38                     39
                      A                      A                      A
 Frequencies --    946.4530               950.4636               952.6836
 Red. masses --      1.8322                 1.8466                 1.8841
 Frc consts  --      0.9670                 0.9829                 1.0075
 IR Inten    --      0.1015                 1.0812                 2.7499

                     40                     41                     42
                      A                      A                      A
 Frequencies --    975.6395               976.6582               999.8242
 Red. masses --      1.2089                 1.8495                 2.7620
 Frc consts  --      0.6780                 1.0394                 1.6267
 IR Inten    --      0.4066                29.4793                 0.9038

                     43                     44                     45
                      A                      A                      A
 Frequencies --   1022.1021              1031.4480              1053.1436
 Red. masses --      1.6571                 1.5041                 1.6292
 Frc consts  --      1.0200                 0.9428                 1.0646
 IR Inten    --      1.2554                18.6130                 9.0624

                     46                     47                     48
                      A                      A                      A
 Frequencies --   1066.4308              1074.6948              1099.8978
 Red. masses --      1.7034                 1.9363                 2.0214
 Frc consts  --      1.1414                 1.3176                 1.4408
 IR Inten    --     10.9351                20.8371                35.0844

                     49                     50                     51
                      A                      A                      A
 Frequencies --   1103.0201              1127.1164              1137.4955
 Red. masses --      1.5820                 1.9582                 2.4328
 Frc consts  --      1.1341                 1.4657                 1.8546
 IR Inten    --      0.8115                23.8273                18.7387

                     52                     53                     54
                      A                      A                      A
 Frequencies --   1196.4518              1218.6297              1237.1091
 Red. masses --      1.9991                 1.6448                 1.6482
 Frc consts  --      1.6861                 1.4392                 1.4862
 IR Inten    --      5.8387                 7.8819                 1.9702

                     55                     56                     57
                      A                      A                      A
 Frequencies --   1244.3619              1254.3603              1269.5463
 Red. masses --      1.4813                 2.4342                 1.2083
 Frc consts  --      1.3514                 2.2566                 1.1474
 IR Inten    --      0.6367                 1.3125                 3.5934

                     58                     59                     60
                      A                      A                      A
 Frequencies --   1277.5089              1297.0270              1308.5465
 Red. masses --      1.8024                 1.5050                 1.7854
 Frc consts  --      1.7331                 1.4918                 1.8012
 IR Inten    --      7.4496                 0.6405                 5.1509

                     61                     62                     63
                      A                      A                      A
 Frequencies --   1314.5096              1334.8603              1341.1496
 Red. masses --      1.5831                 1.3749                 1.3509
 Frc consts  --      1.6117                 1.4435                 1.4316
 IR Inten    --      2.7961                 0.5059                20.9015

                     64                     65                     66
                      A                      A                      A
 Frequencies --   1365.9360              1371.7290              1390.8308
 Red. masses --      1.2549                 1.2725                 1.2508
 Frc consts  --      1.3795                 1.4108                 1.4256
 IR Inten    --      9.1318                 2.1720                 4.1803

                     67                     68                     69
                      A                      A                      A
 Frequencies --   1398.0435              1419.7715              1426.3775
 Red. masses --      1.3088                 1.3341                 1.2687
 Frc consts  --      1.5072                 1.5845                 1.5208
 IR Inten    --      2.0091                 8.4851                 1.8214

                     70                     71                     72
                      A                      A                      A
 Frequencies --   1429.5798              1431.6820              1444.3874
 Red. masses --      1.2520                 1.3150                 1.2666
 Frc consts  --      1.5075                 1.5881                 1.5569
 IR Inten    --      4.4999                 7.1597                 8.3454

                     73                     74                     75
                      A                      A                      A
 Frequencies --   1451.6504              1466.9662              1510.9882
 Red. masses --      1.3299                 1.2405                 1.0619
 Frc consts  --      1.6511                 1.5728                 1.4284
 IR Inten    --      8.6504                10.6252                 0.8890

                     76                     77                     78
                      A                      A                      A
 Frequencies --   1513.2659              1517.1718              1519.4730
 Red. masses --      1.0549                 1.0691                 1.0471
 Frc consts  --      1.4233                 1.4499                 1.4244
 IR Inten    --      0.5891                 0.3613                 0.8824

                     79                     80                     81
                      A                      A                      A
 Frequencies --   1520.5484              1528.0150              1532.8617
 Red. masses --      1.0517                 1.0682                 1.0805
 Frc consts  --      1.4327                 1.4695                 1.4958
 IR Inten    --      2.9403                 7.2836                 2.8874

                     82                     83                     84
                      A                      A                      A
 Frequencies --   1533.8241              1539.7576              1544.8024
 Red. masses --      1.0630                 1.0802                 1.0612
 Frc consts  --      1.4735                 1.5089                 1.4921
 IR Inten    --      2.0906                 1.7556                 3.9857

                     85                     86                     87
                      A                      A                      A
 Frequencies --   1548.6503              1549.1908              1556.4119
 Red. masses --      1.0786                 1.0677                 1.0652
 Frc consts  --      1.5241                 1.5098                 1.5204
 IR Inten    --      7.9896                10.2285                 0.8573

                     88                     89                     90
                      A                      A                      A
 Frequencies --   1697.3710              2952.0476              2995.5242
 Red. masses --      1.0875                 1.0733                 1.0834
 Frc consts  --      1.8461                 5.5109                 5.7276
 IR Inten    --     31.6921                93.3121                26.3389

                     91                     92                     93
                      A                      A                      A
 Frequencies --   3040.0010              3041.8910              3044.4667
 Red. masses --      1.0391                 1.0364                 1.0683
 Frc consts  --      5.6579                 5.6504                 5.8342
 IR Inten    --     33.0947                22.6379                44.5859

                     94                     95                     96
                      A                      A                      A
 Frequencies --   3046.7005              3048.6790              3053.3772
 Red. masses --      1.0468                 1.0738                 1.0713
 Frc consts  --      5.7251                 5.8801                 5.8849
 IR Inten    --     21.9578                33.4101                28.8539

                     97                     98                     99
                      A                      A                      A
 Frequencies --   3055.6400              3058.4456              3063.9302
 Red. masses --      1.0452                 1.0776                 1.0597
 Frc consts  --      5.7501                 5.9391                 5.8615
 IR Inten    --      8.5375                40.9112                49.2318

                    100                    101                    102
                      A                      A                      A
 Frequencies --   3074.9549              3097.7083              3099.3194
 Red. masses --      1.0626                 1.1015                 1.1028
 Frc consts  --      5.9199                 6.2278                 6.2416
 IR Inten    --     36.6339                19.1210                 7.4596

                    103                    104                    105
                      A                      A                      A
 Frequencies --   3102.6536              3103.1122              3106.8358
 Red. masses --      1.1017                 1.1009                 1.1006
 Frc consts  --      6.2488                 6.2460                 6.2589
 IR Inten    --      9.0137                43.3168                 7.9854

                    106                    107                    108
                      A                      A                      A
 Frequencies --   3111.6107              3117.1192              3121.5940
 Red. masses --      1.1008                 1.1016                 1.1012
 Frc consts  --      6.2796                 6.3062                 6.3220
 IR Inten    --     76.6862                52.6962                37.5435

                    109                    110                    111
                      A                      A                      A
 Frequencies --   3128.6759              3138.6631              3150.4561
 Red. masses --      1.1000                 1.0981                 1.0971
 Frc consts  --      6.3438                 6.3735                 6.4155
 IR Inten    --     70.8224                17.0028                 9.2847

                    112                    113                    114
                      A                      A                      A
 Frequencies --   3154.8506              3474.2210              3556.3543
 Red. masses --      1.0965                 1.0498                 1.0922
 Frc consts  --      6.4301                 7.4659                 8.1388
 IR Inten    --     39.1549                 1.9949                 0.3032

 - Thermochemistry -
 -------------------
 Temperature   298.150 Kelvin.  Pressure   1.00000 Atm.
 Atom     1 has atomic number  6 and mass  12.00000

 Molecular mass:   198.20960 amu.
 Principal axes and moments of inertia in atomic units:
                           1         2         3
     Eigenvalues --  2015.182603868.615314675.71546
           X            0.99997  -0.00436  -0.00559
           Y            0.00436   0.99999  -0.00026
           Z            0.00560   0.00024   0.99998
 This molecule is an asymmetric top.
 Rotational symmetry number  1.
 Warning -- assumption of classical behavior for rotation
           may cause significant error
 Rotational temperatures (Kelvin)      0.04298     0.02239     0.01852
 Rotational constants (GHZ):           0.89557     0.46651     0.38598
 Zero-point vibrational energy     987394.5 (Joules/Mol)
                                  235.99295 (Kcal/Mol)
 Warning -- explicit consideration of  25 degrees of freedom as
           vibrations may cause significant error
 Vibrational temperatures:     52.54    95.77   126.03   146.14   164.91
          (Kelvin)            189.38   260.97   292.50   313.00   330.26
                              337.59   383.18   394.81   406.74   439.23
                              459.69   474.50   512.21   528.68   588.69
                              601.38   642.13   719.05   805.72   853.67
                              896.01   955.09  1134.20  1164.28  1203.74
                             1215.35  1244.87  1287.86  1302.07  1317.39
                             1353.76  1361.73  1367.51  1370.70  1403.73
                             1405.19  1438.52  1470.58  1484.02  1515.24
                             1534.36  1546.25  1582.51  1587.00  1621.67
                             1636.60  1721.43  1753.34  1779.92  1790.36
                             1804.74  1826.59  1838.05  1866.13  1882.71
                             1891.29  1920.57  1929.62  1965.28  1973.61
                             2001.10  2011.47  2042.73  2052.24  2056.85
                             2059.87  2078.15  2088.60  2110.64  2173.98
                             2177.25  2182.87  2186.18  2187.73  2198.47
                             2205.45  2206.83  2215.37  2222.63  2228.16
                             2228.94  2239.33  2442.14  4247.34  4309.89
                             4373.88  4376.60  4380.31  4383.52  4386.37
                             4393.13  4396.38  4400.42  4408.31  4424.17
                             4456.91  4459.23  4464.03  4464.69  4470.04
                             4476.91  4484.84  4491.28  4501.47  4515.84
                             4532.80  4539.13  4998.63  5116.80

 Zero-point correction=                           0.376079 (Hartree/Particle)
 Thermal correction to Energy=                    0.392453
 Thermal correction to Enthalpy=                  0.393397
 Thermal correction to Gibbs Free Energy=         0.333464
 Sum of electronic and zero-point Energies=           -582.112105
 Sum of electronic and thermal Energies=              -582.095731
 Sum of electronic and thermal Enthalpies=            -582.094787
 Sum of electronic and thermal Free Energies=         -582.154721

                     E (Thermal)             CV                S
                      KCal/Mol        Cal/Mol-Kelvin    Cal/Mol-Kelvin
 Total                  246.268             63.610            126.141
 Electronic               0.000              0.000              0.000
 Translational            0.889              2.981             41.757
 Rotational               0.889              2.981             31.967
 Vibrational            244.491             57.648             52.417
 Vibration     1          0.594              1.982              5.440
 Vibration     2          0.598              1.970              4.253
 Vibration     3          0.601              1.958              3.713
 Vibration     4          0.604              1.948              3.424
 Vibration     5          0.608              1.937              3.189
 Vibration     6          0.612              1.922              2.922
 Vibration     7          0.630              1.865              2.314
 Vibration     8          0.639              1.835              2.103
 Vibration     9          0.646              1.814              1.979
 Vibration    10          0.652              1.796              1.883
 Vibration    11          0.654              1.788              1.843
 Vibration    12          0.672              1.735              1.620
 Vibration    13          0.677              1.721              1.568
 Vibration    14          0.682              1.706              1.517
 Vibration    15          0.696              1.664              1.388
 Vibration    16          0.705              1.636              1.313
 Vibration    17          0.713              1.616              1.261
 Vibration    18          0.732              1.563              1.140
 Vibration    19          0.740              1.539              1.090
 Vibration    20          0.774              1.450              0.930
 Vibration    21          0.781              1.431              0.899
 Vibration    22          0.806              1.369              0.807
 Vibration    23          0.855              1.251              0.659
 Vibration    24          0.916              1.118              0.524
 Vibration    25          0.951              1.046              0.461

                           ! Non-Optimized Parameters !
 Normal termination of Gaussian 16 at Thu Dec 10 10:08:48 2020.

 ----------------------------------------------------------------------
 # B3LYP/6-311++G(d,p) empiricaldispersion=gd3bj scf=xqc pop=npa geom=c
 heck
 ----------------------------------------------------------------------

 --------------------------------------
 CID_84024580_JID_4465_Energie_neutraal
 --------------------------------------
 Structure from the checkpoint file:  "JID_4465.chk"
 Charge =  0 Multiplicity = 1

 SCF Done:  E(RB3LYP) =  -582.656709926     A.U. after   14 cycles
 Normal termination of Gaussian 16 at Thu Dec 10 10:16:34 2020.

 ----------------------------------------------------------------------
 # B3LYP/6-311++G(d,p) empiricaldispersion=gd3bj scf=xqc pop=npa geom=c
 heck
 ----------------------------------------------------------------------

 ------------------------------------
 CID_84024580_JID_4465_Energie_kation
 ------------------------------------
 Structure from the checkpoint file:  "JID_4465.chk"
 Charge =  1 Multiplicity = 2

 SCF Done:  E(UB3LYP) =  -582.378273581     A.U. after   21 cycles
 Normal termination of Gaussian 16 at Thu Dec 10 10:34:12 2020.
 Gaussian 16:  ES64L-G16RevA.03 25-Dec-2016

 ----------------------------------------------------------------------
 # B3LYP/6-311++G(d,p) empiricaldispersion=gd3bj scf=xqc pop=npa geom=c
 heck
 ----------------------------------------------------------------------

 -----------------------------------
 CID_84024580_JID_4465_Energie_anion
 -----------------------------------
 Structure from the checkpoint file:  "JID_4465.chk"
 Charge = -1 Multiplicity = 2

                         Standard orientation:
 ---------------------------------------------------------------------
 Center     Atomic      Atomic             Coordinates (Angstroms)
 Number     Number       Type             X           Y           Z
 ---------------------------------------------------------------------
      1          6           0       -2.505991   -0.251274    1.649062
      2          6           0       -1.909176   -0.672985    0.302759
      3          6           0       -2.987797   -1.046464   -0.725585
      4          7           0       -3.855719    0.095439   -1.046954
      5          6           0       -0.983535    0.419791   -0.256078
      6          7           0        0.109328    0.779044    0.672647
      7          6           0        0.230331    2.238519    0.807748
      8          6           0        1.030179    2.724623   -0.434636
      9          6           0        1.839112    1.470680   -0.856975
     10          6           0        1.488815    0.432793    0.245134
     11          6           0        1.863922   -1.050049   -0.005672
     12          6           0        3.389035   -1.090230   -0.245590
     13          6           0        1.553909   -1.863003    1.264075
     14          6           0        1.191828   -1.716764   -1.221179
     15          1           0       -3.110350    0.659180    1.547168
     16          1           0       -1.702266   -0.032298    2.356930
     17          1           0       -3.141978   -1.039510    2.070379
     18          1           0       -1.318006   -1.581738    0.473456
     19          1           0       -2.496658   -1.354932   -1.657836
     20          1           0       -3.539635   -1.928677   -0.352938
     21          1           0       -4.467249   -0.148067   -1.823613
     22          1           0       -4.469984    0.288181   -0.258008
     23          1           0       -0.604558    0.114942   -1.238821
     24          1           0       -1.604465    1.300535   -0.444839
     25          1           0        0.790345    2.457893    1.725688
     26          1           0       -0.755255    2.699906    0.904015
     27          1           0        0.348695    3.038847   -1.231758
     28          1           0        1.671908    3.580172   -0.200223
     29          1           0        1.528303    1.116487   -1.845692
     30          1           0        2.914486    1.663074   -0.906623
     31          1           0        2.100381    0.708416    1.117395
     32          1           0        3.933877   -0.586617    0.561934
     33          1           0        3.737447   -2.128571   -0.287700
     34          1           0        3.662832   -0.608941   -1.190572
     35          1           0        2.119671   -1.476148    2.120021
     36          1           0        0.493972   -1.813803    1.523087
     37          1           0        1.830511   -2.915206    1.125488
     38          1           0        1.295816   -1.112241   -2.128679
     39          1           0        1.672953   -2.682807   -1.415766
     40          1           0        0.130142   -1.913282   -1.060726
 ---------------------------------------------------------------------

 SCF Done:  E(UB3LYP) =  -582.642335222     A.U. after   29 cycles

 The electronic state is 2-A.
 Alpha  occ. eigenvalues --  -14.19769 -14.18800 -10.09526 -10.09027 -10.08870
 Alpha  occ. eigenvalues --  -10.08538 -10.07873 -10.06844 -10.06540 -10.06505
 Alpha  occ. eigenvalues --  -10.06135 -10.05905 -10.05620 -10.05123  -0.83118
 Alpha  occ. eigenvalues --   -0.77982  -0.72179  -0.69156  -0.65351  -0.61103
 Alpha  occ. eigenvalues --   -0.59273  -0.58736  -0.57679  -0.56086  -0.49625
 Alpha  occ. eigenvalues --   -0.47992  -0.45842  -0.42897  -0.39868  -0.38467
 Alpha  occ. eigenvalues --   -0.38267  -0.36356  -0.35657  -0.34452  -0.33262
 Alpha  occ. eigenvalues --   -0.32570  -0.32291  -0.31149  -0.30972  -0.30312
 Alpha  occ. eigenvalues --   -0.29174  -0.28502  -0.27233  -0.26592  -0.26267
 Alpha  occ. eigenvalues --   -0.25389  -0.24633  -0.23954  -0.22993  -0.22664
 Alpha  occ. eigenvalues --   -0.22195  -0.22062  -0.21411  -0.21177  -0.14191
 Alpha  occ. eigenvalues --   -0.11642   0.04298
 Alpha virt. eigenvalues --    0.05988   0.06925   0.07467   0.08392   0.08550
 Alpha virt. eigenvalues --    0.08699   0.09251   0.09641   0.10500   0.10967
 Alpha virt. eigenvalues --    0.11314   0.11420   0.12113   0.12329   0.12553

  Beta  occ. eigenvalues --  -14.19770 -14.18757 -10.09518 -10.09018 -10.08867
  Beta  occ. eigenvalues --  -10.08513 -10.07863 -10.06834 -10.06525 -10.06502
  Beta  occ. eigenvalues --  -10.06110 -10.05884 -10.05603 -10.05101  -0.83111
  Beta  occ. eigenvalues --   -0.77914  -0.72164  -0.69128  -0.65322  -0.61080
  Beta  occ. eigenvalues --   -0.59238  -0.58693  -0.57642  -0.56018  -0.49587
  Beta  occ. eigenvalues --   -0.47958  -0.45800  -0.42862  -0.39819  -0.38443
  Beta  occ. eigenvalues --   -0.38236  -0.36330  -0.35604  -0.34428  -0.33237
  Beta  occ. eigenvalues --   -0.32549  -0.32258  -0.31105  -0.30942  -0.30281
  Beta  occ. eigenvalues --   -0.29151  -0.28478  -0.27207  -0.26570  -0.26246
  Beta  occ. eigenvalues --   -0.25364  -0.24611  -0.23932  -0.22971  -0.22637
  Beta  occ. eigenvalues --   -0.22171  -0.22041  -0.21391  -0.21157  -0.14148
  Beta  occ. eigenvalues --   -0.11634
  Beta virt. eigenvalues --    0.06270   0.07114   0.07377   0.07853   0.08854
  Beta virt. eigenvalues --    0.08940   0.09191   0.09570   0.09751   0.10828
  Beta virt. eigenvalues --    0.11349   0.11573   0.11782   0.12322   0.12535

 Mulliken charges and spin densities:
               1          2
     1  C   -0.009047  -0.518614
     2  C   -0.430801   1.066467
     3  C    0.663366  -1.531132
     4  N   -0.384935   0.076832
     5  C   -0.181227  -0.894882
     6  N    0.378131   0.109033
     7  C   -0.000749   0.071944
     8  C    0.358894  -0.919241
     9  C    0.034259  -0.294882
    10  C    0.158260  -0.608919
    11  C   -1.054921   1.640570
    12  C    0.187100  -0.814012
    13  C   -0.064412  -0.373377
    14  C   -0.038361  -0.680497
    15  H    0.080140   0.035308
    16  H    0.097151   0.041250
    17  H   -0.293330   0.456845
    18  H    0.464986  -0.323328
    19  H   -0.347870   0.534084
    20  H   -0.280468   0.422482
    21  H   -0.218783   0.456750
    22  H   -0.030456   0.245807
    23  H    0.284328  -0.169185
    24  H    0.309819  -0.093171
    25  H   -0.165751   0.305888
    26  H    0.136742   0.018547
    27  H    0.027284   0.110760
    28  H   -0.076139   0.235374
    29  H    0.124746   0.023474
    30  H   -0.203834   0.353465
    31  H    0.317406  -0.115110
    32  H   -0.281750   0.425111
    33  H   -0.134409   0.287882
    34  H   -0.014272   0.164455
    35  H   -0.032775   0.173315
    36  H   -0.094007   0.215784
    37  H   -0.106981   0.256388
    38  H   -0.094911   0.265066
    39  H   -0.148361   0.302118
    40  H    0.065937   0.041352
 Sum of Mulliken charges =  -1.00000   1.00000

 Dipole moment (field-independent basis, Debye):
    X=              2.5481    Y=              1.9839    Z=              1.2947  Tot=              3.4792
 Quadrupole moment (field-independent basis, Debye-Ang):
   XX=           -178.2106   YY=           -134.6828   ZZ=           -130.9577
   XY=             -4.2437   XZ=             -7.2211   YZ=             -1.0733

 Summary of Natural Population Analysis:

                                       Natural Population
                Natural  -----------------------------------------------
    Atom  No    Charge         Core      Valence    Rydberg      Total
 -----------------------------------------------------------------------
      C    1   -0.28947      0.99964     2.28367    0.00616     3.28947
      C    2   -0.12261      0.99959     2.11178    0.01124     3.12261
      C    3   -0.08404      0.99961     2.07252    0.01191     3.08404
      N    4   -0.42640      0.99977     2.91561    0.01102     3.92640
      C    5   -0.09278      0.99957     2.08144    0.01177     3.09278
      N    6   -0.28494      0.99972     2.77269    0.01253     3.78494
      C    7   -0.08210      0.99962     2.07215    0.01032     3.08210
      C    8   -0.20417      0.99964     2.19747    0.00705     3.20417
      C    9   -0.20275      0.99961     2.19581    0.00733     3.20275
      C   10    0.00332      0.99953     1.98200    0.01515     2.99668
      C   11   -0.05112      0.99956     2.03965    0.01191     3.05112
      C   12   -0.28163      0.99963     2.27467    0.00734     3.28163
      C   13   -0.28153      0.99962     2.27435    0.00756     3.28153
      C   14   -0.28654      0.99962     2.27964    0.00728     3.28654
      H   15    0.09406      0.00000     0.40493    0.00101     0.40594
      H   16    0.10804      0.00000     0.39070    0.00126     0.39196
      H   17    0.09736      0.00000     0.40179    0.00086     0.40264
      H   18    0.09473      0.00000     0.40266    0.00261     0.40527
      H   19    0.09035      0.00000     0.40809    0.00157     0.40965
      H   20    0.08051      0.00000     0.41761    0.00188     0.41949
      H   21    0.17786      0.00000     0.31919    0.00295     0.32214
      H   22    0.17300      0.00000     0.32479    0.00221     0.32700
      H   23    0.09351      0.00000     0.40478    0.00171     0.40649
      H   24    0.10157      0.00000     0.39645    0.00198     0.39843
      H   25    0.09067      0.00000     0.40830    0.00102     0.40933
      H   26    0.09683      0.00000     0.40229    0.00088     0.40317
      H   27    0.09694      0.00000     0.40205    0.00101     0.40306
      H   28    0.09766      0.00000     0.40118    0.00116     0.40234
      H   29    0.09726      0.00000     0.40154    0.00120     0.40274
      H   30    0.10202      0.00000     0.39670    0.00128     0.39798
      H   31    0.09393      0.00000     0.40448    0.00159     0.40607
      H   32    0.09956      0.00000     0.39942    0.00102     0.40044
      H   33    0.09949      0.00000     0.39958    0.00093     0.40051
      H   34    0.10013      0.00000     0.39885    0.00101     0.39987
      H   35    0.09878      0.00000     0.40036    0.00086     0.40122
      H   36    0.10461      0.00000     0.39409    0.00130     0.39539
      H   37    0.09670      0.00000     0.40248    0.00083     0.40330
      H   38    0.09985      0.00000     0.39915    0.00100     0.40015
      H   39    0.10004      0.00000     0.39909    0.00087     0.39996
      H   40    0.10130      0.00000     0.39720    0.00150     0.39870
 =======================================================================
   * Total *   -0.00000     13.99474    41.83120    0.17406    56.00000

 Normal termination of Gaussian 16 at Thu Dec 10 11:00:36 2020.
