 Gaussian 16, Revision A.03,

 -----------------------------------------------------------
 # opt freq B3LYP/6-31G(d) empiricaldispersion=gd3bj scf=xqc
 -----------------------------------------------------------

 ------------------------------
 CID_84775834_JID_5649_neutraal
 ------------------------------
 Symbolic Z-matrix:
 Charge =  0 Multiplicity = 1

 SCF Done:  E(RB3LYP) =  -649.300173711     A.U. after   15 cycles
 SCF Done:  E(RB3LYP) =  -649.307434387     A.U. after   12 cycles
 SCF Done:  E(RB3LYP) =  -649.307975538     A.U. after   11 cycles
 SCF Done:  E(RB3LYP) =  -649.308021770     A.U. after   10 cycles
 SCF Done:  E(RB3LYP) =  -649.308025551     A.U. after    9 cycles
 SCF Done:  E(RB3LYP) =  -649.308027823     A.U. after    8 cycles
 SCF Done:  E(RB3LYP) =  -649.308028505     A.U. after    8 cycles
 SCF Done:  E(RB3LYP) =  -649.308028720     A.U. after    7 cycles
 SCF Done:  E(RB3LYP) =  -649.308028831     A.U. after    7 cycles
 SCF Done:  E(RB3LYP) =  -649.308028927     A.U. after    7 cycles
 SCF Done:  E(RB3LYP) =  -649.308028981     A.U. after    7 cycles
 Optimization completed.
    -- Stationary point found.
 Normal termination of Gaussian 16 at Thu Dec 10 16:29:40 2020.

 --------------------------------------------------------------------
 #N Geom=AllCheck Guess=TCheck SCRF=Check GenChk RB3LYP/6-31G(d) Freq
 --------------------------------------------------------------------

 Structure from the checkpoint file:  "JID_5649.chk"
 ------------------------------
 CID_84775834_JID_5649_neutraal
 ------------------------------
 Charge =  0 Multiplicity = 1

 SCF Done:  E(RB3LYP) =  -649.308028981     A.U. after    1 cycles

  Exact polarizability: 200.856   1.352 161.427   0.000  -0.002  64.195
 Approx polarizability: 319.278  -4.589 271.336  -0.003   0.001 100.874

                      1                      2                      3
                      A                      A                      A
 Frequencies --     36.8533                63.5319               113.3618
 Red. masses --      4.1107                 3.7435                 1.0997
 Frc consts  --      0.0033                 0.0089                 0.0083
 IR Inten    --      3.7516                 0.0000                 0.0756

                      4                      5                      6
                      A                      A                      A
 Frequencies --    123.9364               144.3749               150.3114
 Red. masses --      3.3732                 4.5557                 1.0534
 Frc consts  --      0.0305                 0.0559                 0.0140
 IR Inten    --      1.0003                 3.7144                 0.5466

                      7                      8                      9
                      A                      A                      A
 Frequencies --    150.7160               198.7022               212.1626
 Red. masses --      1.0835                 3.8941                 4.0563
 Frc consts  --      0.0145                 0.0906                 0.1076
 IR Inten    --      0.0009                 0.1559                 0.3614

                     10                     11                     12
                      A                      A                      A
 Frequencies --    243.1734               299.6760               314.3816
 Red. masses --      2.9651                 4.2552                 2.9244
 Frc consts  --      0.1033                 0.2252                 0.1703
 IR Inten    --      0.5241                 1.1603                 1.2818

                     13                     14                     15
                      A                      A                      A
 Frequencies --    331.1031               423.0594               482.1043
 Red. masses --      4.9706                 4.1082                 4.0106
 Frc consts  --      0.3211                 0.4332                 0.5492
 IR Inten    --      0.8731                 3.0646                 1.4826

                     16                     17                     18
                      A                      A                      A
 Frequencies --    484.7372               503.7072               530.7243
 Red. masses --      3.6180                 4.9110                 6.4514
 Frc consts  --      0.5009                 0.7341                 1.0706
 IR Inten    --      2.0642                 7.2548                 1.1312

                     19                     20                     21
                      A                      A                      A
 Frequencies --    551.1088               576.6380               582.6868
 Red. masses --      5.7005                 3.9347                 3.4090
 Frc consts  --      1.0201                 0.7708                 0.6819
 IR Inten    --      9.5969                 7.0560                 1.0585

                     22                     23                     24
                      A                      A                      A
 Frequencies --    626.6284               628.4759               707.9358
 Red. masses --      4.5279                 3.1275                 5.4084
 Frc consts  --      1.0475                 0.7278                 1.5970
 IR Inten    --     25.6582                 0.1533                 8.1023

                     25                     26                     27
                      A                      A                      A
 Frequencies --    736.8132               789.3860               839.8887
 Red. masses --      4.6664                 1.3492                 4.7323
 Frc consts  --      1.4926                 0.4953                 1.9668
 IR Inten    --      0.9879                42.2786                 0.0008

                     28                     29                     30
                      A                      A                      A
 Frequencies --    864.9725               901.9518               920.8346
 Red. masses --      5.1604                 4.9288                 1.3405
 Frc consts  --      2.2748                 2.3624                 0.6697
 IR Inten    --      0.3285                16.0088                 0.2597

                     31                     32                     33
                      A                      A                      A
 Frequencies --    948.5550               984.3386               994.5384
 Red. masses --      6.1311                 1.3048                 1.9698
 Frc consts  --      3.2502                 0.7449                 1.1479
 IR Inten    --     14.0114                 0.2430                22.0031

                     34                     35                     36
                      A                      A                      A
 Frequencies --   1012.7138              1044.5877              1051.0871
 Red. masses --      1.7207                 1.6598                 1.8582
 Frc consts  --      1.0398                 1.0671                 1.2096
 IR Inten    --      1.2583                 2.7431                 1.8241

                     37                     38                     39
                      A                      A                      A
 Frequencies --   1069.6983              1079.5204              1109.7214
 Red. masses --      1.6353                 1.5407                 2.1101
 Frc consts  --      1.1025                 1.0579                 1.5310
 IR Inten    --      1.7893                 3.5811                 0.0221

                     40                     41                     42
                      A                      A                      A
 Frequencies --   1175.1135              1188.8330              1205.1589
 Red. masses --      2.9978                 2.7688                 1.4086
 Frc consts  --      2.4390                 2.3056                 1.2053
 IR Inten    --     84.2128                39.0347                 7.8952

                     43                     44                     45
                      A                      A                      A
 Frequencies --   1275.9374              1300.4967              1362.3298
 Red. masses --      2.8388                 2.7242                 3.1991
 Frc consts  --      2.7229                 2.7146                 3.4982
 IR Inten    --     31.2578                 8.2312                25.1923

                     46                     47                     48
                      A                      A                      A
 Frequencies --   1369.9328              1398.5496              1414.2145
 Red. masses --      4.5804                 4.3522                 1.3323
 Frc consts  --      5.0647                 5.0155                 1.5699
 IR Inten    --      5.9466                 9.5672                48.7265

                     49                     50                     51
                      A                      A                      A
 Frequencies --   1424.1268              1440.7388              1446.4951
 Red. masses --      1.9668                 2.3810                 1.2755
 Frc consts  --      2.3503                 2.9120                 1.5725
 IR Inten    --     21.4896                44.7107                 4.6453

                     52                     53                     54
                      A                      A                      A
 Frequencies --   1486.0442              1494.0122              1502.2893
 Red. masses --      1.0568                 1.0495                 1.0444
 Frc consts  --      1.3751                 1.3802                 1.3887
 IR Inten    --     13.9042                 8.6864                 6.0495

                     55                     56                     57
                      A                      A                      A
 Frequencies --   1502.2919              1508.9694              1512.6645
 Red. masses --      1.2884                 1.6669                 1.0451
 Frc consts  --      1.7133                 2.2362                 1.4089
 IR Inten    --     11.8118                28.2127                 8.0128

                     58                     59                     60
                      A                      A                      A
 Frequencies --   1515.9123              1542.8755              1606.3265
 Red. masses --      1.7519                 2.7242                 7.2064
 Frc consts  --      2.3720                 3.8207                10.9557
 IR Inten    --     14.1055                68.3445                23.7809

                     61                     62                     63
                      A                      A                      A
 Frequencies --   1629.6626              1668.3603              1813.0645
 Red. masses --      7.1355                 5.4360                11.2890
 Frc consts  --     11.1652                 8.9147                21.8641
 IR Inten    --     18.8566                10.6618               133.5112

                     64                     65                     66
                      A                      A                      A
 Frequencies --   3053.7636              3062.2350              3066.0807
 Red. masses --      1.0391                 1.0353                 1.0358
 Frc consts  --      5.7093                 5.7201                 5.7370
 IR Inten    --      8.7809                18.0467                 0.9790

                     67                     68                     69
                      A                      A                      A
 Frequencies --   3107.3612              3122.3945              3126.5199
 Red. masses --      1.1002                 1.0999                 1.0986
 Frc consts  --      6.2588                 6.3182                 6.3272
 IR Inten    --     10.7601                 7.7149                 6.3521

                     70                     71                     72
                      A                      A                      A
 Frequencies --   3139.3737              3168.3972              3171.4948
 Red. masses --      1.1044                 1.1001                 1.1050
 Frc consts  --      6.4128                 6.5065                 6.5483
 IR Inten    --     18.5604                 7.0945                21.4708

                     73                     74                     75
                      A                      A                      A
 Frequencies --   3186.6560              3201.7519              3219.1515
 Red. masses --      1.0877                 1.0903                 1.0950
 Frc consts  --      6.5076                 6.5853                 6.6856
 IR Inten    --      9.9335                15.5228                18.4016

 - Thermochemistry -
 -------------------
 Temperature   298.150 Kelvin.  Pressure   1.00000 Atm.
 Atom     1 has atomic number  6 and mass  12.00000

 Molecular mass:   200.09496 amu.
 Principal axes and moments of inertia in atomic units:
                           1         2         3
     Eigenvalues --  1868.020873681.355115516.10991
           X            0.99940   0.03475   0.00001
           Y           -0.03475   0.99940  -0.00001
           Z           -0.00001   0.00001   1.00000
 This molecule is an asymmetric top.
 Rotational symmetry number  1.
 Warning -- assumption of classical behavior for rotation
           may cause significant error
 Rotational temperatures (Kelvin)      0.04637     0.02353     0.01570
 Rotational constants (GHZ):           0.96612     0.49024     0.32718
 Zero-point vibrational energy     569651.4 (Joules/Mol)
                                  136.14995 (Kcal/Mol)
 Warning -- explicit consideration of  21 degrees of freedom as
           vibrations may cause significant error
 Vibrational temperatures:     53.02    91.41   163.10   178.32   207.72
          (Kelvin)            216.26   216.85   285.89   305.25   349.87
                              431.17   452.33   476.38   608.69   693.64
                              697.43   724.72   763.59   792.92   829.65
                              838.36   901.58   904.24  1018.56  1060.11
                             1135.75  1208.41  1244.50  1297.71  1324.88
                             1364.76  1416.24  1430.92  1457.07  1502.93
                             1512.28  1539.06  1553.19  1596.64  1690.73
                             1710.47  1733.95  1835.79  1871.12  1960.09
                             1971.03  2012.20  2034.74  2049.00  2072.90
                             2081.18  2138.09  2149.55  2161.46  2161.46
                             2171.07  2176.39  2181.06  2219.85  2311.15
                             2344.72  2400.40  2608.60  4393.68  4405.87
                             4411.41  4470.80  4492.43  4498.36  4516.86
                             4558.62  4563.07  4584.89  4606.61  4631.64

 Zero-point correction=                           0.216969 (Hartree/Particle)
 Thermal correction to Energy=                    0.230616
 Thermal correction to Enthalpy=                  0.231560
 Thermal correction to Gibbs Free Energy=         0.176329
 Sum of electronic and zero-point Energies=           -649.091060
 Sum of electronic and thermal Energies=              -649.077413
 Sum of electronic and thermal Enthalpies=            -649.076469
 Sum of electronic and thermal Free Energies=         -649.131700

                     E (Thermal)             CV                S
                      KCal/Mol        Cal/Mol-Kelvin    Cal/Mol-Kelvin
 Total                  144.714             51.397            116.244
 Electronic               0.000              0.000              0.000
 Translational            0.889              2.981             41.786
 Rotational               0.889              2.981             32.006
 Vibrational            142.936             45.436             42.453
 Vibration     1          0.594              1.982              5.421
 Vibration     2          0.597              1.972              4.344
 Vibration     3          0.607              1.938              3.211
 Vibration     4          0.610              1.929              3.038
 Vibration     5          0.616              1.909              2.745
 Vibration     6          0.618              1.902              2.668
 Vibration     7          0.618              1.902              2.663
 Vibration     8          0.637              1.842              2.145
 Vibration     9          0.643              1.822              2.025
 Vibration    10          0.659              1.774              1.780
 Vibration    11          0.692              1.674              1.419
 Vibration    12          0.702              1.646              1.339
 Vibration    13          0.713              1.613              1.255
 Vibration    14          0.785              1.420              0.882
 Vibration    15          0.838              1.290              0.704
 Vibration    16          0.841              1.284              0.697
 Vibration    17          0.859              1.242              0.649
 Vibration    18          0.886              1.182              0.586
 Vibration    19          0.906              1.137              0.542
 Vibration    20          0.933              1.082              0.492
 Vibration    21          0.940              1.069              0.480

                           ! Non-Optimized Parameters !
 Normal termination of Gaussian 16 at Thu Dec 10 16:38:30 2020.

 ----------------------------------------------------------------------
 # B3LYP/6-311++G(d,p) empiricaldispersion=gd3bj scf=xqc pop=npa geom=c
 heck
 ----------------------------------------------------------------------

 --------------------------------------
 CID_84775834_JID_5649_Energie_neutraal
 --------------------------------------
 Structure from the checkpoint file:  "JID_5649.chk"
 Charge =  0 Multiplicity = 1

 SCF Done:  E(RB3LYP) =  -649.475915092     A.U. after   15 cycles
 Normal termination of Gaussian 16 at Thu Dec 10 16:42:38 2020.

 ----------------------------------------------------------------------
 # B3LYP/6-311++G(d,p) empiricaldispersion=gd3bj scf=xqc pop=npa geom=c
 heck
 ----------------------------------------------------------------------

 ------------------------------------
 CID_84775834_JID_5649_Energie_kation
 ------------------------------------
 Structure from the checkpoint file:  "JID_5649.chk"
 Charge =  1 Multiplicity = 2

 SCF Done:  E(UB3LYP) =  -649.164056047     A.U. after   33 cycles
 SCF Done:  E(UB3LYP) =  -649.164056052     a.u. after    2 cycles
 Normal termination of Gaussian 16 at Thu Dec 10 17:06:33 2020.
 Gaussian 16:  ES64L-G16RevA.03 25-Dec-2016

 ----------------------------------------------------------------------
 # B3LYP/6-311++G(d,p) empiricaldispersion=gd3bj scf=xqc pop=npa geom=c
 heck
 ----------------------------------------------------------------------

 -----------------------------------
 CID_84775834_JID_5649_Energie_anion
 -----------------------------------
 Structure from the checkpoint file:  "JID_5649.chk"
 Charge = -1 Multiplicity = 2

                         Standard orientation:
 ---------------------------------------------------------------------
 Center     Atomic      Atomic             Coordinates (Angstroms)
 Number     Number       Type             X           Y           Z
 ---------------------------------------------------------------------
      1          6           0       -1.673357   -2.870368    0.000197
      2          6           0       -1.913726   -1.386634    0.000044
      3          6           0       -0.799325   -0.491038   -0.000013
      4          6           0       -1.009812    0.920608   -0.000041
      5          6           0       -2.330323    1.431918   -0.000029
      6          6           0       -3.394155    0.558797    0.000005
      7          6           0       -3.181613   -0.840553    0.000037
      8          6           0        0.164761    1.734035   -0.000047
      9          7           0        1.370522    1.194061   -0.000034
     10          6           0        1.457722   -0.165848   -0.000101
     11          7           0        0.454056   -1.017091   -0.000056
     12          6           0        2.863313   -0.743142   -0.000086
     13          8           0        3.037879   -1.945411   -0.000541
     14          6           0        4.008258    0.246984    0.000523
     15          6           0        0.081915    3.236227   -0.000084
     16          1           0       -1.086794   -3.171741   -0.873806
     17          1           0       -2.619775   -3.418809   -0.001050
     18          1           0       -1.089163   -3.171913    0.875759
     19          1           0       -2.497657    2.503719   -0.000043
     20          1           0       -4.410861    0.940896    0.000003
     21          1           0       -4.042756   -1.503680    0.000051
     22          1           0        3.949739    0.902414   -0.874963
     23          1           0        3.948883    0.902485    0.875888
     24          1           0        4.951349   -0.302320    0.000961
     25          1           0       -0.455350    3.602854   -0.882775
     26          1           0       -0.455294    3.602890    0.882626
     27          1           0        1.090657    3.651779   -0.000123
 ---------------------------------------------------------------------

 SCF Done:  E(UB3LYP) =  -649.509545970     A.U. after   25 cycles

 The electronic state is 2-A.
 Alpha  occ. eigenvalues --  -18.94735 -14.16480 -14.13583 -10.09359 -10.06901
 Alpha  occ. eigenvalues --  -10.06722 -10.06671 -10.04824 -10.04455 -10.04224
 Alpha  occ. eigenvalues --  -10.03844 -10.03811 -10.03764 -10.03641 -10.03317
 Alpha  occ. eigenvalues --   -0.88583  -0.82687  -0.74362  -0.71414  -0.64981
 Alpha  occ. eigenvalues --   -0.63470  -0.60073  -0.59064  -0.55676  -0.51287
 Alpha  occ. eigenvalues --   -0.49787  -0.44224  -0.41513  -0.39584  -0.36507
 Alpha  occ. eigenvalues --   -0.35022  -0.32790  -0.31828  -0.30920  -0.30092
 Alpha  occ. eigenvalues --   -0.29333  -0.29181  -0.28063  -0.27354  -0.26685
 Alpha  occ. eigenvalues --   -0.26125  -0.25904  -0.24728  -0.22911  -0.22363
 Alpha  occ. eigenvalues --   -0.21885  -0.20464  -0.16910  -0.15576  -0.12942
 Alpha  occ. eigenvalues --   -0.10080  -0.10076  -0.09294   0.02372
 Alpha virt. eigenvalues --    0.08119   0.08704   0.08935   0.09569   0.10264
 Alpha virt. eigenvalues --    0.11530   0.11778   0.12591   0.13340   0.13565
 Alpha virt. eigenvalues --    0.13590   0.13721   0.14193   0.15594   0.15622

  Beta  occ. eigenvalues --  -18.94460 -14.16599 -14.13117 -10.09240 -10.06799
  Beta  occ. eigenvalues --  -10.06557 -10.06476 -10.04850 -10.04472 -10.04257
  Beta  occ. eigenvalues --  -10.03699 -10.03662 -10.03636 -10.03558 -10.03326
  Beta  occ. eigenvalues --   -0.88086  -0.82299  -0.73950  -0.70964  -0.64706
  Beta  occ. eigenvalues --   -0.63095  -0.59928  -0.58913  -0.55561  -0.50832
  Beta  occ. eigenvalues --   -0.49596  -0.43927  -0.41087  -0.39440  -0.36208
  Beta  occ. eigenvalues --   -0.34866  -0.32682  -0.31218  -0.30750  -0.29638
  Beta  occ. eigenvalues --   -0.29212  -0.28827  -0.27911  -0.27222  -0.26582
  Beta  occ. eigenvalues --   -0.26036  -0.25332  -0.24551  -0.22752  -0.21778
  Beta  occ. eigenvalues --   -0.21456  -0.19445  -0.15533  -0.15415  -0.12306
  Beta  occ. eigenvalues --   -0.09738  -0.09001  -0.08459
  Beta virt. eigenvalues --    0.07989   0.08090   0.08906   0.09409   0.09549
  Beta virt. eigenvalues --    0.10241   0.11489   0.11829   0.12569   0.13545
  Beta virt. eigenvalues --    0.13646   0.13694   0.14244   0.14834   0.15584

 Mulliken charges and spin densities:
               1          2
     1  C   -0.513283  -0.010742
     2  C    0.637221   0.119133
     3  C   -0.291195  -0.039540
     4  C    0.774369   0.024851
     5  C   -0.542150   0.055938
     6  C   -0.563534   0.138188
     7  C   -0.415814  -0.015213
     8  C   -0.375416   0.236168
     9  N    0.042905  -0.071996
    10  C   -0.129666   0.115904
    11  N    0.077847   0.232716
    12  C    0.175601   0.089576
    13  O   -0.346702   0.099989
    14  C   -0.554327  -0.011925
    15  C   -0.522482  -0.016404
    16  H    0.158407   0.010946
    17  H    0.107671  -0.000295
    18  H    0.158198   0.011014
    19  H    0.113189  -0.008319
    20  H    0.114653  -0.010458
    21  H    0.080470   0.001309
    22  H    0.142801   0.004223
    23  H    0.142812   0.004217
    24  H    0.139581  -0.000619
    25  H    0.117408   0.020317
    26  H    0.117411   0.020315
    27  H    0.154024   0.000706
 Sum of Mulliken charges =  -1.00000   1.00000

 Dipole moment (field-independent basis, Debye):
    X=             -3.0790    Y=              3.5223    Z=              0.0012  Tot=              4.6783
 Quadrupole moment (field-independent basis, Debye-Ang):
   XX=           -123.0555   YY=           -110.5540   ZZ=            -95.2905
   XY=             10.1381   XZ=              0.0032   YZ=             -0.0025

 Summary of Natural Population Analysis:

                                       Natural Population
                Natural  -----------------------------------------------
    Atom  No    Charge         Core      Valence    Rydberg      Total
 -----------------------------------------------------------------------
      C    1   -0.29297      0.99960     2.28772    0.00565     3.29297
      C    2    0.03747      0.99937     1.95395    0.00921     2.96253
      C    3    0.08313      0.99937     1.90444    0.01305     2.91687
      C    4   -0.06589      0.99946     2.05761    0.00882     3.06589
      C    5   -0.08746      0.99955     2.07958    0.00833     3.08746
      C    6   -0.07834      0.99960     2.06845    0.01030     3.07834
      C    7   -0.11067      0.99942     2.10104    0.01021     3.11067
      C    8    0.18982      0.99955     1.79773    0.01291     2.81018
      N    9   -0.27930      0.99966     2.76965    0.00998     3.77930
      C   10    0.19257      0.99956     1.79044    0.01742     2.80743
      N   11   -0.16576      0.99964     2.65486    0.01125     3.66576
      C   12    0.27845      0.99967     1.70068    0.02120     2.72155
      O   13   -0.25953      0.99987     3.25141    0.00824     4.25953
      C   14   -0.33184      0.99964     2.32746    0.00474     3.33184
      C   15   -0.30558      0.99965     2.30152    0.00442     3.30558
      H   16    0.10901      0.00000     0.38953    0.00146     0.39099
      H   17    0.08967      0.00000     0.40976    0.00057     0.41033
      H   18    0.10896      0.00000     0.38958    0.00146     0.39104
      H   19    0.09254      0.00000     0.40597    0.00150     0.40746
      H   20    0.08718      0.00000     0.41096    0.00187     0.41282
      H   21    0.09039      0.00000     0.40886    0.00075     0.40961
      H   22    0.10768      0.00000     0.39124    0.00108     0.39232
      H   23    0.10768      0.00000     0.39124    0.00108     0.39232
      H   24    0.09576      0.00000     0.40241    0.00184     0.40424
      H   25    0.10091      0.00000     0.39801    0.00108     0.39909
      H   26    0.10091      0.00000     0.39801    0.00108     0.39909
      H   27    0.10527      0.00000     0.39347    0.00126     0.39473
 =======================================================================
   * Total *    0.00005     14.99363    37.83556    0.17076    52.99995

 Normal termination of Gaussian 16 at Thu Dec 10 17:16:30 2020.
