 Gaussian 16, Revision A.03,

 -----------------------------------------------------------
 # opt freq B3LYP/6-31G(d) empiricaldispersion=gd3bj scf=xqc
 -----------------------------------------------------------

 ------------------------------
 CID_62158647_JID_9142_neutraal
 ------------------------------
 Symbolic Z-matrix:
 Charge =  0 Multiplicity = 1

 SCF Done:  E(RB3LYP) =  -1272.87923646     A.U. after   15 cycles
 SCF Done:  E(RB3LYP) =  -1272.89048736     A.U. after   12 cycles
 SCF Done:  E(RB3LYP) =  -1272.89196331     A.U. after   12 cycles
 SCF Done:  E(RB3LYP) =  -1272.89237746     A.U. after   12 cycles
 SCF Done:  E(RB3LYP) =  -1272.89255043     A.U. after   11 cycles
 SCF Done:  E(RB3LYP) =  -1272.89276852     A.U. after   11 cycles
 SCF Done:  E(RB3LYP) =  -1272.89283254     A.U. after   11 cycles
 SCF Done:  E(RB3LYP) =  -1272.89284541     A.U. after    9 cycles
 SCF Done:  E(RB3LYP) =  -1272.89284753     A.U. after    8 cycles
 SCF Done:  E(RB3LYP) =  -1272.89284853     A.U. after    8 cycles
 SCF Done:  E(RB3LYP) =  -1272.89284892     A.U. after    8 cycles
 SCF Done:  E(RB3LYP) =  -1272.89284901     A.U. after    8 cycles
 SCF Done:  E(RB3LYP) =  -1272.89284907     A.U. after    8 cycles
 Optimization completed.
    -- Stationary point found.
 Normal termination of Gaussian 16 at Mon Dec 14 13:24:17 2020.

 --------------------------------------------------------------------
 #N Geom=AllCheck Guess=TCheck SCRF=Check GenChk RB3LYP/6-31G(d) Freq
 --------------------------------------------------------------------

 Structure from the checkpoint file:  "JID_9142.chk"
 ------------------------------
 CID_62158647_JID_9142_neutraal
 ------------------------------
 Charge =  0 Multiplicity = 1

 SCF Done:  E(RB3LYP) =  -1272.89284907     A.U. after    1 cycles

  Exact polarizability: 191.297 -29.530 149.754   4.455   3.497 147.607
 Approx polarizability: 258.905 -52.705 229.220  11.308  10.074 251.999

                      1                      2                      3
                      A                      A                      A
 Frequencies --     25.9403                30.8096                34.9759
 Red. masses --      4.0624                 4.8019                 5.1763
 Frc consts  --      0.0016                 0.0027                 0.0037
 IR Inten    --      0.1765                 0.4705                 0.2404

                      4                      5                      6
                      A                      A                      A
 Frequencies --     82.7137               107.3631               129.4959
 Red. masses --      4.9316                 3.2517                 4.4768
 Frc consts  --      0.0199                 0.0221                 0.0442
 IR Inten    --      1.3312                 1.3865                 0.4861

                      7                      8                      9
                      A                      A                      A
 Frequencies --    150.4551               157.6520               192.8863
 Red. masses --      4.6353                 3.1805                 1.9251
 Frc consts  --      0.0618                 0.0466                 0.0422
 IR Inten    --      0.9357                 1.6346                 1.5561

                     10                     11                     12
                      A                      A                      A
 Frequencies --    210.2720               234.0314               246.0593
 Red. masses --      1.4487                 1.9218                 1.6159
 Frc consts  --      0.0377                 0.0620                 0.0576
 IR Inten    --      0.7754                 3.6448                93.3221

                     13                     14                     15
                      A                      A                      A
 Frequencies --    256.5109               272.2429               274.6112
 Red. masses --      1.4880                 2.7371                 5.5077
 Frc consts  --      0.0577                 0.1195                 0.2447
 IR Inten    --    184.4780                 1.1170                 0.7748

                     16                     17                     18
                      A                      A                      A
 Frequencies --    289.4084               311.9836               325.2578
 Red. masses --      1.5115                 2.6870                 3.0852
 Frc consts  --      0.0746                 0.1541                 0.1923
 IR Inten    --      0.2686                 9.3584                 6.7712

                     19                     20                     21
                      A                      A                      A
 Frequencies --    335.4814               372.2740               378.6726
 Red. masses --      3.2794                 5.7970                 3.1522
 Frc consts  --      0.2175                 0.4733                 0.2663
 IR Inten    --      0.5369                 3.4350                 8.3349

                     22                     23                     24
                      A                      A                      A
 Frequencies --    411.2886               413.9509               423.7927
 Red. masses --      2.1759                 3.2533                 2.7056
 Frc consts  --      0.2169                 0.3284                 0.2863
 IR Inten    --      1.1568                 0.4543                 1.2119

                     25                     26                     27
                      A                      A                      A
 Frequencies --    436.8280               487.6994               501.2255
 Red. masses --      2.5379                 3.7915                 4.4903
 Frc consts  --      0.2853                 0.5313                 0.6647
 IR Inten    --     11.6290                 8.9395                14.1560

                     28                     29                     30
                      A                      A                      A
 Frequencies --    517.9380               539.2288               554.1887
 Red. masses --      3.6163                 3.7524                 4.9076
 Frc consts  --      0.5716                 0.6428                 0.8880
 IR Inten    --      1.8055                 5.3821                14.3843

                     31                     32                     33
                      A                      A                      A
 Frequencies --    565.2525               589.9972               652.9558
 Red. masses --      1.0654                 8.1561                 4.2749
 Frc consts  --      0.2006                 1.6728                 1.0739
 IR Inten    --      1.6245               116.1537                40.7319

                     34                     35                     36
                      A                      A                      A
 Frequencies --    665.5323               714.6513               748.4947
 Red. masses --      8.3797                 7.3513                 4.8289
 Frc consts  --      2.1868                 2.2121                 1.5940
 IR Inten    --      8.7286                62.5601                33.0006

                     37                     38                     39
                      A                      A                      A
 Frequencies --    806.0396               815.5106               839.9203
 Red. masses --      3.5292                11.1146                 2.4833
 Frc consts  --      1.3509                 4.3551                 1.0322
 IR Inten    --     19.7734                39.4292                12.5059

                     40                     41                     42
                      A                      A                      A
 Frequencies --    896.2718               899.7359               918.1245
 Red. masses --      3.2014                 3.7312                 2.2463
 Frc consts  --      1.5152                 1.7796                 1.1156
 IR Inten    --     31.0061                33.7774                22.8691

                     43                     44                     45
                      A                      A                      A
 Frequencies --    941.3356               950.6069               968.5260
 Red. masses --      1.8531                 1.4749                 1.4965
 Frc consts  --      0.9675                 0.7852                 0.8271
 IR Inten    --     10.9817                 3.0560                 1.4930

                     46                     47                     48
                      A                      A                      A
 Frequencies --    973.0936              1002.3998              1004.2411
 Red. masses --      1.7985                 2.0373                 1.3678
 Frc consts  --      1.0034                 1.2061                 0.8127
 IR Inten    --     45.9700                69.2244                 1.1928

                     49                     50                     51
                      A                      A                      A
 Frequencies --   1022.4258              1039.8370              1051.8821
 Red. masses --      1.5853                 5.2309                 1.6510
 Frc consts  --      0.9764                 3.3324                 1.0763
 IR Inten    --     20.7641                19.1604                 4.6925

                     52                     53                     54
                      A                      A                      A
 Frequencies --   1059.7752              1076.5308              1111.8337
 Red. masses --      1.7555                 1.7087                 6.2676
 Frc consts  --      1.1616                 1.1667                 4.5649
 IR Inten    --     35.5271                35.5816               146.9216

                     55                     56                     57
                      A                      A                      A
 Frequencies --   1145.8564              1170.0251              1177.3901
 Red. masses --      1.9551                 3.6243                 2.5347
 Frc consts  --      1.5124                 2.9232                 2.0702
 IR Inten    --      9.2513               172.3095                98.0857

                     58                     59                     60
                      A                      A                      A
 Frequencies --   1192.0630              1230.2688              1238.5545
 Red. masses --      5.8627                 2.2686                 2.9149
 Frc consts  --      4.9085                 2.0231                 2.6345
 IR Inten    --     14.7534                10.9661                26.7287

                     61                     62                     63
                      A                      A                      A
 Frequencies --   1271.0772              1293.7058              1294.1932
 Red. masses --      2.2175                 1.4894                 6.0953
 Frc consts  --      2.1108                 1.4687                 6.0151
 IR Inten    --     25.0144                65.4074                 7.5917

                     64                     65                     66
                      A                      A                      A
 Frequencies --   1313.5641              1340.6587              1361.5747
 Red. masses --      4.5661                 1.5882                 1.3279
 Frc consts  --      4.6419                 1.6819                 1.4504
 IR Inten    --    120.1086                 6.6598                 3.8096

                     67                     68                     69
                      A                      A                      A
 Frequencies --   1371.3195              1388.0597              1407.0741
 Red. masses --      1.5713                 1.3219                 1.6153
 Frc consts  --      1.7410                 1.5006                 1.8842
 IR Inten    --     14.0612                10.6224                 9.4719

                     70                     71                     72
                      A                      A                      A
 Frequencies --   1408.0924              1416.7166              1424.0429
 Red. masses --      1.4204                 1.3438                 1.3418
 Frc consts  --      1.6593                 1.5890                 1.6032
 IR Inten    --      2.8777                 8.2898                 2.1670

                     73                     74                     75
                      A                      A                      A
 Frequencies --   1435.3157              1438.9763              1444.4275
 Red. masses --      1.2958                 4.2537                 1.2479
 Frc consts  --      1.5728                 5.1895                 1.5340
 IR Inten    --     27.9370                10.9321                 5.9702

                     76                     77                     78
                      A                      A                      A
 Frequencies --   1503.5433              1512.2243              1514.8545
 Red. masses --      1.0581                 1.0503                 1.0721
 Frc consts  --      1.4093                 1.4151                 1.4495
 IR Inten    --      0.0864                 4.1822                 1.9741

                     79                     80                     81
                      A                      A                      A
 Frequencies --   1516.5399              1518.3292              1526.4527
 Red. masses --      2.2752                 1.0800                 1.0646
 Frc consts  --      3.0830                 1.4669                 1.4615
 IR Inten    --    170.3688                11.7358                 5.7352

                     82                     83                     84
                      A                      A                      A
 Frequencies --   1528.8698              1533.2305              1549.5907
 Red. masses --      1.0637                 1.0665                 1.0550
 Frc consts  --      1.4649                 1.4771                 1.4925
 IR Inten    --      7.9222                 3.8987                 7.6899

                     85                     86                     87
                      A                      A                      A
 Frequencies --   1590.8436              1641.8397              1672.6819
 Red. masses --      6.2360                 3.2451                 2.1338
 Frc consts  --      9.2985                 5.1540                 3.5174
 IR Inten    --    104.8576                66.6941               793.3370

                     88                     89                     90
                      A                      A                      A
 Frequencies --   3018.5194              3032.1268              3058.7019
 Red. masses --      1.0716                 1.0673                 1.0366
 Frc consts  --      5.7526                 5.7813                 5.7140
 IR Inten    --     35.7013                29.1724                 7.5015

                     91                     92                     93
                      A                      A                      A
 Frequencies --   3061.2014              3065.1524              3068.2667
 Red. masses --      1.0479                 1.0477                 1.0665
 Frc consts  --      5.7856                 5.7993                 5.9155
 IR Inten    --     25.0515                33.7065                25.4472

                     94                     95                     96
                      A                      A                      A
 Frequencies --   3119.1313              3127.0846              3130.9687
 Red. masses --      1.0961                 1.1003                 1.0995
 Frc consts  --      6.2827                 6.3392                 6.3502
 IR Inten    --      6.1060                19.0146                21.9032

                     97                     98                     99
                      A                      A                      A
 Frequencies --   3135.9222              3141.3417              3151.9842
 Red. masses --      1.1004                 1.1033                 1.1029
 Frc consts  --      6.3759                 6.4149                 6.4560
 IR Inten    --     36.4464                21.4346                11.7624

                    100                    101                    102
                      A                      A                      A
 Frequencies --   3156.9498              3166.3595              3193.2320
 Red. masses --      1.0927                 1.0999                 1.0918
 Frc consts  --      6.4161                 6.4970                 6.5594
 IR Inten    --      3.6865                35.3318                 5.5401

                    103                    104                    105
                      A                      A                      A
 Frequencies --   3205.7222              3617.2046              3744.9168
 Red. masses --      1.0921                 1.0447                 1.1059
 Frc consts  --      6.6126                 8.0533                 9.1379
 IR Inten    --      0.7776               143.1882                57.6124

 - Thermochemistry -
 -------------------
 Temperature   298.150 Kelvin.  Pressure   1.00000 Atm.
 Atom     1 has atomic number  6 and mass  12.00000

 Molecular mass:   286.10996 amu.
 Principal axes and moments of inertia in atomic units:
                           1         2         3
     Eigenvalues --  3420.953407252.718308278.15030
           X            0.99999   0.00270   0.00258
           Y           -0.00263   0.99966  -0.02601
           Z           -0.00265   0.02600   0.99966
 This molecule is an asymmetric top.
 Rotational symmetry number  1.
 Warning -- assumption of classical behavior for rotation
           may cause significant error
 Rotational temperatures (Kelvin)      0.02532     0.01194     0.01046
 Rotational constants (GHZ):           0.52756     0.24884     0.21801
 Zero-point vibrational energy     799027.4 (Joules/Mol)
                                  190.97214 (Kcal/Mol)
 Warning -- explicit consideration of  32 degrees of freedom as
           vibrations may cause significant error
 Vibrational temperatures:     37.32    44.33    50.32   119.01   154.47
          (Kelvin)            186.32   216.47   226.83   277.52   302.53
                              336.72   354.02   369.06   391.70   395.10
                              416.39   448.87   467.97   482.68   535.62
                              544.83   591.75   595.58   609.74   628.50
                              701.69   721.15   745.20   775.83   797.35
                              813.27   848.87   939.46   957.55  1028.22
                             1076.92  1159.71  1173.34  1208.46  1289.54
                             1294.52  1320.98  1354.37  1367.71  1393.49
                             1400.06  1442.23  1444.88  1471.04  1496.09
                             1513.42  1524.78  1548.89  1599.68  1648.63
                             1683.41  1694.00  1715.11  1770.08  1782.00
                             1828.80  1861.35  1862.06  1889.93  1928.91
                             1959.00  1973.02  1997.11  2024.47  2025.93
                             2038.34  2048.88  2065.10  2070.37  2078.21
                             2163.26  2175.75  2179.54  2181.96  2184.54
                             2196.23  2199.70  2205.98  2229.52  2288.87
                             2362.24  2406.62  4342.98  4362.55  4400.79
                             4404.39  4410.07  4414.55  4487.73  4499.18
                             4504.77  4511.89  4519.69  4535.00  4542.15
                             4555.69  4594.35  4612.32  5204.35  5388.10

 Zero-point correction=                           0.304333 (Hartree/Particle)
 Thermal correction to Energy=                    0.323110
 Thermal correction to Enthalpy=                  0.324055
 Thermal correction to Gibbs Free Energy=         0.257046
 Sum of electronic and zero-point Energies=          -1272.588516
 Sum of electronic and thermal Energies=             -1272.569739
 Sum of electronic and thermal Enthalpies=           -1272.568794
 Sum of electronic and thermal Free Energies=        -1272.635803

                     E (Thermal)             CV                S
                      KCal/Mol        Cal/Mol-Kelvin    Cal/Mol-Kelvin
 Total                  202.755             72.304            141.031
 Electronic               0.000              0.000              0.000
 Translational            0.889              2.981             42.851
 Rotational               0.889              2.981             33.684
 Vibrational            200.977             66.342             64.495
 Vibration     1          0.593              1.985              6.118
 Vibration     2          0.594              1.984              5.777
 Vibration     3          0.594              1.982              5.525
 Vibration     4          0.600              1.961              3.825
 Vibration     5          0.606              1.943              3.316
 Vibration     6          0.612              1.924              2.954
 Vibration     7          0.618              1.902              2.666
 Vibration     8          0.621              1.894              2.578
 Vibration     9          0.635              1.850              2.200
 Vibration    10          0.642              1.825              2.041
 Vibration    11          0.654              1.789              1.848
 Vibration    12          0.661              1.769              1.759
 Vibration    13          0.666              1.752              1.685
 Vibration    14          0.675              1.724              1.582
 Vibration    15          0.677              1.720              1.567
 Vibration    16          0.686              1.693              1.477
 Vibration    17          0.700              1.651              1.352
 Vibration    18          0.709              1.625              1.284
 Vibration    19          0.717              1.605              1.234
 Vibration    20          0.744              1.529              1.070
 Vibration    21          0.749              1.516              1.044
 Vibration    22          0.775              1.446              0.922
 Vibration    23          0.778              1.440              0.913
 Vibration    24          0.786              1.418              0.879
 Vibration    25          0.797              1.390              0.837
 Vibration    26          0.844              1.277              0.690
 Vibration    27          0.857              1.247              0.655
 Vibration    28          0.873              1.210              0.615
 Vibration    29          0.894              1.163              0.567
 Vibration    30          0.910              1.131              0.536
 Vibration    31          0.921              1.106              0.513
 Vibration    32          0.947              1.053              0.467

 Optimization completed.
    -- Stationary point found.
 Normal termination of Gaussian 16 at Mon Dec 14 13:44:54 2020.

 ----------------------------------------------------------------------
 # B3LYP/6-311++G(d,p) empiricaldispersion=gd3bj scf=xqc pop=npa geom=c
 heck
 ----------------------------------------------------------------------

 --------------------------------------
 CID_62158647_JID_9142_Energie_neutraal
 --------------------------------------
 Structure from the checkpoint file:  "JID_9142.chk"
 Charge =  0 Multiplicity = 1

 SCF Done:  E(RB3LYP) =  -1273.16836920     A.U. after   16 cycles
 Normal termination of Gaussian 16 at Mon Dec 14 13:54:31 2020.

 ----------------------------------------------------------------------
 # B3LYP/6-311++G(d,p) empiricaldispersion=gd3bj scf=xqc pop=npa geom=c
 heck
 ----------------------------------------------------------------------

 ------------------------------------
 CID_62158647_JID_9142_Energie_kation
 ------------------------------------
 Structure from the checkpoint file:  "JID_9142.chk"
 Charge =  1 Multiplicity = 2

 SCF Done:  E(UB3LYP) =  -1272.85731757     A.U. after   25 cycles
 Normal termination of Gaussian 16 at Mon Dec 14 14:16:20 2020.
 Gaussian 16:  ES64L-G16RevA.03 25-Dec-2016

 ----------------------------------------------------------------------
 # B3LYP/6-311++G(d,p) empiricaldispersion=gd3bj scf=xqc pop=npa geom=c
 heck
 ----------------------------------------------------------------------

 -----------------------------------
 CID_62158647_JID_9142_Energie_anion
 -----------------------------------
 Structure from the checkpoint file:  "JID_9142.chk"
 Charge = -1 Multiplicity = 2

                         Standard orientation:
 ---------------------------------------------------------------------
 Center     Atomic      Atomic             Coordinates (Angstroms)
 Number     Number       Type             X           Y           Z
 ---------------------------------------------------------------------
      1          6           0        2.658256    0.338329    2.347991
      2          6           0        3.148325   -0.139434    0.978857
      3          6           0        2.295564   -1.281685    0.419801
      4          7           0        1.038446   -0.696698   -0.066385
      5          6           0        1.287383    0.218407   -1.185423
      6          6           0        2.134309    1.397795   -0.679022
      7          8           0        3.295645    0.911503    0.018416
      8          6           0        1.285954    2.334204    0.194506
      9          6           0        2.709222    2.163844   -1.869949
     10         16           0       -0.248332   -1.774398   -0.291848
     11          8           0       -0.311512   -2.262972   -1.676257
     12          8           0       -0.183548   -2.714426    0.830795
     13          6           0       -1.613454   -0.671241   -0.063537
     14          6           0       -2.507450   -0.386056   -1.096861
     15          7           0       -3.538741    0.437025   -0.932622
     16          6           0       -3.669548    0.980961    0.297537
     17          7           0       -2.870771    0.762078    1.371219
     18          6           0       -1.853704   -0.064259    1.174726
     19          7           0       -4.692801    1.847216    0.475095
     20          1           0        1.579920    0.512059    2.359064
     21          1           0        3.168237    1.265196    2.625321
     22          1           0        2.883779   -0.421314    3.105213
     23          1           0        4.170593   -0.517246    1.095002
     24          1           0        2.828388   -1.786233   -0.399960
     25          1           0        2.068994   -2.011778    1.197764
     26          1           0        0.334234    0.593198   -1.568108
     27          1           0        1.803297   -0.305583   -2.002346
     28          1           0        1.935357    3.042668    0.716471
     29          1           0        0.587525    2.901136   -0.431399
     30          1           0        0.699914    1.782936    0.932040
     31          1           0        3.354801    1.510866   -2.464473
     32          1           0        1.907710    2.549562   -2.509135
     33          1           0        3.307631    3.008361   -1.514921
     34          1           0       -2.377554   -0.841208   -2.075514
     35          1           0       -1.202176   -0.260475    2.023303
     36          1           0       -4.900220    2.167195    1.408261
     37          1           0       -5.383872    1.935666   -0.253551
 ---------------------------------------------------------------------

 SCF Done:  E(UB3LYP) =  -1273.17342647     A.U. after   33 cycles
 SCF Done:  E(UB3LYP) =  -1273.17342647     a.u. after    1 cycles

 The electronic state is 2-A.
 Alpha  occ. eigenvalues --  -88.94283 -19.02809 -18.99971 -18.99823 -14.23566
 Alpha  occ. eigenvalues --  -14.21403 -14.15471 -14.15384 -10.14106 -10.14024
 Alpha  occ. eigenvalues --  -10.13357 -10.10690 -10.10499 -10.07295 -10.06751
 Alpha  occ. eigenvalues --  -10.06709 -10.06199 -10.05953 -10.05668  -8.00452
 Alpha  occ. eigenvalues --   -5.96752  -5.96704  -5.96515  -1.00072  -0.94396
 Alpha  occ. eigenvalues --   -0.89071  -0.86455  -0.83309  -0.78141  -0.74495
 Alpha  occ. eigenvalues --   -0.72370  -0.67057  -0.65265  -0.60987  -0.59860
 Alpha  occ. eigenvalues --   -0.59617  -0.54117  -0.52584  -0.52196  -0.48220
 Alpha  occ. eigenvalues --   -0.43828  -0.42850  -0.42324  -0.41500  -0.40382
 Alpha  occ. eigenvalues --   -0.39025  -0.37460  -0.36830  -0.35834  -0.35466
 Alpha  occ. eigenvalues --   -0.34721  -0.33657  -0.33091  -0.31073  -0.30630
 Alpha  occ. eigenvalues --   -0.29943  -0.29514  -0.29448  -0.28979  -0.28293
 Alpha  occ. eigenvalues --   -0.28087  -0.27005  -0.25144  -0.24479  -0.23576
 Alpha  occ. eigenvalues --   -0.22272  -0.21487  -0.20961  -0.20342  -0.19341
 Alpha  occ. eigenvalues --   -0.18326  -0.17483  -0.16573  -0.14866  -0.11151
 Alpha  occ. eigenvalues --   -0.11035   0.04721
 Alpha virt. eigenvalues --    0.06228   0.07290   0.07763   0.08521   0.09440
 Alpha virt. eigenvalues --    0.09933   0.10296   0.10575   0.10834   0.11171
 Alpha virt. eigenvalues --    0.11929   0.12493   0.12935   0.13461   0.13657

  Beta  occ. eigenvalues --  -88.94280 -19.02806 -18.99977 -18.99813 -14.23569
  Beta  occ. eigenvalues --  -14.21411 -14.15145 -14.15000 -10.14107 -10.14071
  Beta  occ. eigenvalues --  -10.13348 -10.10688 -10.10486 -10.07287 -10.06745
  Beta  occ. eigenvalues --  -10.06385 -10.06194 -10.06091 -10.05153  -8.00449
  Beta  occ. eigenvalues --   -5.96748  -5.96701  -5.96511  -1.00073  -0.94388
  Beta  occ. eigenvalues --   -0.89067  -0.86090  -0.83307  -0.77878  -0.73657
  Beta  occ. eigenvalues --   -0.72359  -0.66984  -0.65126  -0.60966  -0.59838
  Beta  occ. eigenvalues --   -0.59489  -0.54028  -0.52166  -0.51673  -0.48150
  Beta  occ. eigenvalues --   -0.43794  -0.42740  -0.42152  -0.41240  -0.40364
  Beta  occ. eigenvalues --   -0.38986  -0.37437  -0.36800  -0.35810  -0.35302
  Beta  occ. eigenvalues --   -0.34710  -0.33634  -0.33029  -0.31032  -0.29957
  Beta  occ. eigenvalues --   -0.29642  -0.29457  -0.29198  -0.28912  -0.28268
  Beta  occ. eigenvalues --   -0.28066  -0.26693  -0.25131  -0.24457  -0.23552
  Beta  occ. eigenvalues --   -0.22048  -0.21251  -0.20916  -0.19933  -0.19280
  Beta  occ. eigenvalues --   -0.17480  -0.16233  -0.15646  -0.14789  -0.10731
  Beta  occ. eigenvalues --   -0.10302
  Beta virt. eigenvalues --    0.06463   0.07438   0.07727   0.08490   0.09529
  Beta virt. eigenvalues --    0.09965   0.10314   0.10678   0.10912   0.11158
  Beta virt. eigenvalues --    0.11643   0.11905   0.12438   0.12869   0.13362

 Mulliken charges and spin densities:
               1          2
     1  C   -0.167401  -0.326139
     2  C    0.162308   0.076074
     3  C   -0.252084  -0.238048
     4  N    0.222984   0.004304
     5  C   -0.535219  -0.238183
     6  C   -0.829178   0.499179
     7  O   -0.018578  -0.010192
     8  C   -0.220959  -0.127781
     9  C    0.061945  -0.493059
    10  S    0.595216  -0.047847
    11  O   -0.125900  -0.007589
    12  O   -0.238938   0.009600
    13  C   -0.671279  -0.093084
    14  C   -0.097742   0.282958
    15  N   -0.220776   0.162985
    16  C   -0.044900  -0.013432
    17  N   -0.159024   0.144105
    18  C   -0.314852   0.352826
    19  N   -0.280358  -0.003556
    20  H    0.160282   0.002335
    21  H    0.125217   0.025387
    22  H    0.048807   0.086553
    23  H   -0.351040   0.565019
    24  H    0.127670   0.038704
    25  H    0.165060   0.043956
    26  H    0.183498  -0.017945
    27  H    0.172730   0.045797
    28  H    0.134289   0.027911
    29  H    0.152281  -0.006067
    30  H    0.152813  -0.000132
    31  H    0.064906   0.090355
    32  H    0.079497   0.068593
    33  H    0.058574   0.097695
    34  H    0.185878  -0.001025
    35  H    0.173075  -0.012879
    36  H    0.255500  -0.000191
    37  H    0.245697   0.012814
 Sum of Mulliken charges =  -1.00000   1.00000

 Dipole moment (field-independent basis, Debye):
    X=              2.2341    Y=              3.6745    Z=              0.2208  Tot=              4.3061
 Quadrupole moment (field-independent basis, Debye-Ang):
   XX=           -168.4060   YY=           -150.2415   ZZ=           -144.6191
   XY=             -6.1471   XZ=             -2.8955   YZ=             -0.8563

 Summary of Natural Population Analysis:

                                       Natural Population
                Natural  -----------------------------------------------
    Atom  No    Charge         Core      Valence    Rydberg      Total
 -----------------------------------------------------------------------
      C    1   -0.30056      0.99964     2.29482    0.00610     3.30056
      C    2    0.06328      0.99954     1.92123    0.01595     2.93672
      C    3   -0.10181      0.99959     2.09014    0.01207     3.10181
      N    4   -0.37754      0.99971     2.86389    0.01393     3.87754
      C    5   -0.10360      0.99954     2.09075    0.01330     3.10360
      C    6    0.13179      0.99952     1.85292    0.01578     2.86821
      O    7   -0.31648      0.99987     3.30584    0.01077     4.31648
      C    8   -0.29992      0.99961     2.29441    0.00591     3.29992
      C    9   -0.28641      0.99961     2.28069    0.00611     3.28641
      S   10    1.11441      4.99912     1.78618    0.10029     6.88559
      O   11   -0.46921      0.99991     3.46378    0.00552     4.46921
      O   12   -0.46861      0.99990     3.46277    0.00593     4.46861
      C   13   -0.24029      0.99934     2.22860    0.01234     3.24029
      C   14    0.10723      0.99954     1.87803    0.01520     2.89277
      N   15   -0.24008      0.99967     2.72646    0.01394     3.74008
      C   16    0.28948      0.99965     1.69131    0.01957     2.71052
      N   17   -0.24314      0.99967     2.73049    0.01297     3.74314
      C   18    0.14719      0.99955     1.83819    0.01507     2.85281
      N   19   -0.39762      0.99969     2.88923    0.00871     3.89762
      H   20    0.10499      0.00000     0.39373    0.00128     0.39501
      H   21    0.10137      0.00000     0.39782    0.00082     0.39863
      H   22    0.09964      0.00000     0.39960    0.00076     0.40036
      H   23    0.09127      0.00000     0.40731    0.00142     0.40873
      H   24    0.09081      0.00000     0.40790    0.00129     0.40919
      H   25    0.11677      0.00000     0.38198    0.00125     0.38323
      H   26    0.11584      0.00000     0.38302    0.00114     0.38416
      H   27    0.09503      0.00000     0.40370    0.00127     0.40497
      H   28    0.09950      0.00000     0.39958    0.00092     0.40050
      H   29    0.10162      0.00000     0.39754    0.00084     0.39838
      H   30    0.11089      0.00000     0.38781    0.00130     0.38911
      H   31    0.10305      0.00000     0.39591    0.00104     0.39695
      H   32    0.09987      0.00000     0.39939    0.00074     0.40013
      H   33    0.10229      0.00000     0.39675    0.00095     0.39771
      H   34    0.09232      0.00000     0.40598    0.00171     0.40768
      H   35    0.08236      0.00000     0.41565    0.00199     0.41764
      H   36    0.19241      0.00000     0.30633    0.00127     0.30759
      H   37    0.19184      0.00000     0.30620    0.00196     0.30816
 =======================================================================
   * Total *   -0.00000     22.99266    52.67595    0.33138    76.00000

 Normal termination of Gaussian 16 at Mon Dec 14 14:45:05 2020.
