 Gaussian 16, Revision A.03,

 -----------------------------------------------------------
 # opt freq B3LYP/6-31G(d) empiricaldispersion=gd3bj scf=xqc
 -----------------------------------------------------------

 -------------------------------
 CID_148908377_JID_7471_neutraal
 -------------------------------
 Symbolic Z-matrix:
 Charge =  0 Multiplicity = 1

 SCF Done:  E(RB3LYP) =  -710.429084343     A.U. after   23 cycles
 SCF Done:  E(RB3LYP) =  -710.460768981     A.U. after   16 cycles
 SCF Done:  E(RB3LYP) =  -710.476720937     A.U. after   16 cycles
 SCF Done:  E(RB3LYP) =  -710.483067934     A.U. after   16 cycles
 SCF Done:  E(RB3LYP) =  -710.487794647     A.U. after   15 cycles
 SCF Done:  E(RB3LYP) =  -710.491090573     A.U. after   14 cycles
 SCF Done:  E(RB3LYP) =  -710.496664565     A.U. after   14 cycles
 SCF Done:  E(RB3LYP) =  -710.502486738     A.U. after   15 cycles
 SCF Done:  E(RB3LYP) =  -710.505823340     A.U. after   16 cycles
 SCF Done:  E(RB3LYP) =  -710.510903706     A.U. after   15 cycles
 SCF Done:  E(RB3LYP) =  -710.518217622     A.U. after   11 cycles
 SCF Done:  E(RB3LYP) =  -710.518221140     A.U. after   12 cycles
 SCF Done:  E(RB3LYP) =  -710.518224962     A.U. after   12 cycles
 SCF Done:  E(RB3LYP) =  -710.518226260     A.U. after   10 cycles
 SCF Done:  E(RB3LYP) =  -710.518226438     A.U. after    9 cycles
 SCF Done:  E(RB3LYP) =  -710.518226477     A.U. after    7 cycles
 Optimization completed.
    -- Stationary point found.
 Normal termination of Gaussian 16 at Fri Dec 11 12:30:54 2020.

 --------------------------------------------------------------------
 #N Geom=AllCheck Guess=TCheck SCRF=Check GenChk RB3LYP/6-31G(d) Freq
 --------------------------------------------------------------------

 Structure from the checkpoint file:  "JID_7471.chk"
 -------------------------------
 CID_148908377_JID_7471_neutraal
 -------------------------------
 Charge =  0 Multiplicity = 1

 SCF Done:  E(RB3LYP) =  -710.518226477     A.U. after    3 cycles

  Exact polarizability: 292.298 -16.672 145.492 -21.759 -19.411 153.945
 Approx polarizability: 568.146 -66.381 238.423 -90.791 -46.021 285.843

                      1                      2                      3
                      A                      A                      A
 Frequencies --     31.7419                45.5721                97.0149
 Red. masses --      3.4115                 3.9743                 3.8412
 Frc consts  --      0.0020                 0.0049                 0.0213
 IR Inten    --      1.8026                 0.0750                 6.8206

                      4                      5                      6
                      A                      A                      A
 Frequencies --    105.9726               118.5587               143.5737
 Red. masses --      3.3292                 1.4743                 1.2152
 Frc consts  --      0.0220                 0.0122                 0.0148
 IR Inten    --      0.9121                 8.5652                 1.5191

                      7                      8                      9
                      A                      A                      A
 Frequencies --    163.4883               188.5347               207.9958
 Red. masses --      2.6271                 3.4059                 1.5539
 Frc consts  --      0.0414                 0.0713                 0.0396
 IR Inten    --      0.1056                 1.8981                 0.2314

                     10                     11                     12
                      A                      A                      A
 Frequencies --    232.2565               243.6001               270.4967
 Red. masses --      3.0677                 3.0094                 3.2301
 Frc consts  --      0.0975                 0.1052                 0.1392
 IR Inten    --      2.7909                 5.4979                 6.8210

                     13                     14                     15
                      A                      A                      A
 Frequencies --    293.1220               301.6939               362.9592
 Red. masses --      3.9592                 3.5584                 4.4765
 Frc consts  --      0.2004                 0.1908                 0.3475
 IR Inten    --      2.1711                 5.1327                 4.2566

                     16                     17                     18
                      A                      A                      A
 Frequencies --    385.5215               436.8043               456.8578
 Red. masses --      4.4480                 4.3144                 3.0866
 Frc consts  --      0.3895                 0.4850                 0.3796
 IR Inten    --      4.0632                11.3758                 5.6276

                     19                     20                     21
                      A                      A                      A
 Frequencies --    508.7616               514.4081               557.9672
 Red. masses --      3.9064                 4.7308                 4.2089
 Frc consts  --      0.5957                 0.7376                 0.7720
 IR Inten    --     13.2289                29.7622                 0.2072

                     22                     23                     24
                      A                      A                      A
 Frequencies --    584.6135               596.0234               647.1550
 Red. masses --      5.1128                 5.9121                 5.3891
 Frc consts  --      1.0295                 1.2374                 1.3298
 IR Inten    --     21.5858                 4.1978                 5.6357

                     25                     26                     27
                      A                      A                      A
 Frequencies --    683.2362               712.3396               746.9704
 Red. masses --      5.6405                 3.7438                 1.3627
 Frc consts  --      1.5513                 1.1193                 0.4480
 IR Inten    --      4.4908                14.5859                44.6467

                     28                     29                     30
                      A                      A                      A
 Frequencies --    752.3240               775.9304               782.9295
 Red. masses --      3.1812                 3.8274                 1.7479
 Frc consts  --      1.0608                 1.3577                 0.6313
 IR Inten    --      4.9153                 2.5218                20.7315

                     31                     32                     33
                      A                      A                      A
 Frequencies --    809.6226               852.2088               861.3574
 Red. masses --      1.6107                 1.6907                 4.5048
 Frc consts  --      0.6220                 0.7235                 1.9692
 IR Inten    --     24.9069                 6.3818                 7.1329

                     34                     35                     36
                      A                      A                      A
 Frequencies --    922.1939               923.8463               943.0575
 Red. masses --      1.6219                 2.9562                 2.5406
 Frc consts  --      0.8127                 1.4866                 1.3313
 IR Inten    --      0.2721                11.9734                15.0556

                     37                     38                     39
                      A                      A                      A
 Frequencies --    952.7681               964.5600               966.1245
 Red. masses --      3.2946                 2.2309                 1.2424
 Frc consts  --      1.7621                 1.2229                 0.6832
 IR Inten    --     56.4782                68.9670                 0.2235

                     40                     41                     42
                      A                      A                      A
 Frequencies --   1003.1436              1013.0517              1027.9924
 Red. masses --      1.7981                 1.1764                 3.3428
 Frc consts  --      1.0661                 0.7113                 2.0813
 IR Inten    --     14.8110                30.4142                52.9231

                     43                     44                     45
                      A                      A                      A
 Frequencies --   1039.3791              1046.5140              1080.2074
 Red. masses --      2.1045                 4.3384                 1.5263
 Frc consts  --      1.3395                 2.7994                 1.0493
 IR Inten    --      1.5647                15.2606                 0.3090

                     46                     47                     48
                      A                      A                      A
 Frequencies --   1105.9476              1127.4547              1151.0255
 Red. masses --      3.9016                 2.1576                 1.2538
 Frc consts  --      2.8117                 1.6159                 0.9787
 IR Inten    --     10.9850                 0.8030                38.0206

                     49                     50                     51
                      A                      A                      A
 Frequencies --   1153.4610              1181.1281              1186.6367
 Red. masses --      1.9256                 1.2523                 1.4202
 Frc consts  --      1.5095                 1.0293                 1.1782
 IR Inten    --     10.1247                24.1718                 9.1632

                     52                     53                     54
                      A                      A                      A
 Frequencies --   1210.5353              1224.1027              1252.6782
 Red. masses --      1.9474                 1.6717                 2.2311
 Frc consts  --      1.6814                 1.4759                 2.0628
 IR Inten    --      1.5956                 3.7021                10.8723

                     55                     56                     57
                      A                      A                      A
 Frequencies --   1287.8373              1307.3874              1322.1927
 Red. masses --      1.4116                 1.9150                 2.3649
 Frc consts  --      1.3793                 1.9286                 2.4359
 IR Inten    --      0.5131                 0.8998                10.8537

                     58                     59                     60
                      A                      A                      A
 Frequencies --   1334.2939              1342.1558              1362.4618
 Red. masses --      2.3177                 1.2794                 3.5569
 Frc consts  --      2.4311                 1.3579                 3.8902
 IR Inten    --     42.7078                 4.0326                54.3352

                     61                     62                     63
                      A                      A                      A
 Frequencies --   1363.7714              1427.8854              1439.7074
 Red. masses --      2.5429                 1.5648                 1.2528
 Frc consts  --      2.7865                 1.8797                 1.5300
 IR Inten    --     24.6319               357.1105                 2.7237

                     64                     65                     66
                      A                      A                      A
 Frequencies --   1472.9502              1499.3235              1508.8298
 Red. masses --      2.5992                 1.0701                 1.0459
 Frc consts  --      3.3226                 1.4173                 1.4028
 IR Inten    --     71.7875                21.0297                 5.1454

                     67                     68                     69
                      A                      A                      A
 Frequencies --   1510.4999              1517.2087              1523.3812
 Red. masses --      1.1140                 1.0610                 1.6849
 Frc consts  --      1.4976                 1.4389                 2.3038
 IR Inten    --      5.3310                11.5312                22.1026

                     70                     71                     72
                      A                      A                      A
 Frequencies --   1525.9066              1574.1951              1586.2445
 Red. masses --      1.4945                 2.6766                 4.7767
 Frc consts  --      2.0503                 3.9079                 7.0813
 IR Inten    --     36.2357               681.4766                33.3395

                     73                     74                     75
                      A                      A                      A
 Frequencies --   1649.6521              1683.9608              1724.8040
 Red. masses --      6.1584                 7.5923                 5.7460
 Frc consts  --      9.8742                12.6849                10.0716
 IR Inten    --     63.3506                84.9166                21.2506

                     76                     77                     78
                      A                      A                      A
 Frequencies --   2951.9479              3025.4243              3033.2317
 Red. masses --      1.0740                 1.0846                 1.0379
 Frc consts  --      5.5142                 5.8490                 5.6264
 IR Inten    --    106.1695                54.1515                39.3680

                     79                     80                     81
                      A                      A                      A
 Frequencies --   3056.1177              3080.6637              3121.2202
 Red. masses --      1.0336                 1.0994                 1.0987
 Frc consts  --      5.6876                 6.1474                 6.3061
 IR Inten    --    103.9056                18.3437                 9.6562

                     82                     83                     84
                      A                      A                      A
 Frequencies --   3147.2144              3156.6704              3161.3198
 Red. masses --      1.0903                 1.1044                 1.0902
 Frc consts  --      6.3630                 6.4837                 6.4193
 IR Inten    --     11.9605                 9.8638                21.9088

                     85                     86                     87
                      A                      A                      A
 Frequencies --   3170.6735              3176.0390              3200.5677
 Red. masses --      1.0854                 1.0894                 1.0916
 Frc consts  --      6.4289                 6.4747                 6.5884
 IR Inten    --     16.3902                18.2880                29.9437

                     88                     89                     90
                      A                      A                      A
 Frequencies --   3204.5806              3207.3964              3215.5865
 Red. masses --      1.1078                 1.0958                 1.0924
 Frc consts  --      6.7030                 6.6419                 6.6550
 IR Inten    --      9.5932                46.8815                 7.2532

 - Thermochemistry -
 -------------------
 Temperature   298.150 Kelvin.  Pressure   1.00000 Atm.
 Atom     1 has atomic number  6 and mass  12.00000

 Molecular mass:   225.11536 amu.
 Principal axes and moments of inertia in atomic units:
                           1         2         3
     Eigenvalues --  2568.741234959.008395491.06125
           X            0.99979   0.01760   0.01064
           Y           -0.01747   0.99976  -0.01287
           Z           -0.01086   0.01268   0.99986
 This molecule is an asymmetric top.
 Rotational symmetry number  1.
 Warning -- assumption of classical behavior for rotation
           may cause significant error
 Rotational temperatures (Kelvin)      0.03372     0.01747     0.01577
 Rotational constants (GHZ):           0.70258     0.36393     0.32867
 Zero-point vibrational energy     686780.4 (Joules/Mol)
                                  164.14447 (Kcal/Mol)
 Warning -- explicit consideration of  23 degrees of freedom as
           vibrations may cause significant error
 Vibrational temperatures:     45.67    65.57   139.58   152.47   170.58
          (Kelvin)            206.57   235.22   271.26   299.26   334.17
                              350.49   389.18   421.74   434.07   522.22
                              554.68   628.46   657.32   731.99   740.12
                              802.79   841.13   857.54   931.11   983.02
                             1024.90  1074.72  1082.43  1116.39  1126.46
                             1164.87  1226.14  1239.30  1326.83  1329.21
                             1356.85  1370.82  1387.79  1390.04  1443.30
                             1457.56  1479.05  1495.43  1505.70  1554.18
                             1591.21  1622.16  1656.07  1659.57  1699.38
                             1707.31  1741.69  1761.21  1802.32  1852.91
                             1881.04  1902.34  1919.75  1931.06  1960.28
                             1962.16  2054.41  2071.42  2119.25  2157.19
                             2170.87  2173.27  2182.92  2191.81  2195.44
                             2264.92  2282.25  2373.48  2422.84  2481.61
                             4247.19  4352.91  4364.14  4397.07  4432.39
                             4490.74  4528.14  4541.74  4548.43  4561.89
                             4569.61  4604.90  4610.68  4614.73  4626.51

 Zero-point correction=                           0.261581 (Hartree/Particle)
 Thermal correction to Energy=                    0.276848
 Thermal correction to Enthalpy=                  0.277792
 Thermal correction to Gibbs Free Energy=         0.218891
 Sum of electronic and zero-point Energies=           -710.256646
 Sum of electronic and thermal Energies=              -710.241378
 Sum of electronic and thermal Enthalpies=            -710.240434
 Sum of electronic and thermal Free Energies=         -710.299335

                     E (Thermal)             CV                S
                      KCal/Mol        Cal/Mol-Kelvin    Cal/Mol-Kelvin
 Total                  173.725             59.112            123.967
 Electronic               0.000              0.000              0.000
 Translational            0.889              2.981             42.137
 Rotational               0.889              2.981             32.614
 Vibrational            171.947             53.150             49.217
 Vibration     1          0.594              1.983              5.717
 Vibration     2          0.595              1.979              5.001
 Vibration     3          0.603              1.951              3.513
 Vibration     4          0.605              1.944              3.341
 Vibration     5          0.609              1.934              3.124
 Vibration     6          0.616              1.910              2.756
 Vibration     7          0.623              1.887              2.509
 Vibration     8          0.633              1.856              2.242
 Vibration     9          0.641              1.828              2.061
 Vibration    10          0.653              1.792              1.861
 Vibration    11          0.659              1.773              1.776
 Vibration    12          0.674              1.728              1.593
 Vibration    13          0.688              1.687              1.456
 Vibration    14          0.694              1.670              1.407
 Vibration    15          0.737              1.549              1.109
 Vibration    16          0.754              1.501              1.017
 Vibration    17          0.797              1.390              0.837
 Vibration    18          0.815              1.346              0.775
 Vibration    19          0.864              1.231              0.637
 Vibration    20          0.869              1.218              0.623
 Vibration    21          0.914              1.122              0.528
 Vibration    22          0.942              1.065              0.477
 Vibration    23          0.954              1.040              0.457

                           ! Non-Optimized Parameters !
 Normal termination of Gaussian 16 at Fri Dec 11 12:43:48 2020.

 ----------------------------------------------------------------------
 # B3LYP/6-311++G(d,p) empiricaldispersion=gd3bj scf=xqc pop=npa geom=c
 heck
 ----------------------------------------------------------------------

 ---------------------------------------
 CID_148908377_JID_7471_Energie_neutraal
 ---------------------------------------
 Structure from the checkpoint file:  "JID_7471.chk"
 Charge =  0 Multiplicity = 1

 SCF Done:  E(RB3LYP) =  -710.704384272     A.U. after   20 cycles
 Normal termination of Gaussian 16 at Fri Dec 11 12:51:57 2020.

 ----------------------------------------------------------------------
 # B3LYP/6-311++G(d,p) empiricaldispersion=gd3bj scf=xqc pop=npa geom=c
 heck
 ----------------------------------------------------------------------

 -------------------------------------
 CID_148908377_JID_7471_Energie_kation
 -------------------------------------
 Structure from the checkpoint file:  "JID_7471.chk"
 Charge =  1 Multiplicity = 2

 SCF Done:  E(UB3LYP) =  -710.493899154     A.U. after   25 cycles
 Normal termination of Gaussian 16 at Fri Dec 11 13:06:58 2020.
 Gaussian 16:  ES64L-G16RevA.03 25-Dec-2016

 ----------------------------------------------------------------------
 # B3LYP/6-311++G(d,p) empiricaldispersion=gd3bj scf=xqc pop=npa geom=c
 heck
 ----------------------------------------------------------------------

 ------------------------------------
 CID_148908377_JID_7471_Energie_anion
 ------------------------------------
 Structure from the checkpoint file:  "JID_7471.chk"
 Charge = -1 Multiplicity = 2

                         Standard orientation:
 ---------------------------------------------------------------------
 Center     Atomic      Atomic             Coordinates (Angstroms)
 Number     Number       Type             X           Y           Z
 ---------------------------------------------------------------------
      1          6           0       -2.741787   -3.011791   -1.241398
      2          6           0       -1.965286   -2.002414   -0.450024
      3          6           0       -1.441211   -0.878239   -0.946183
      4          6           0       -0.641489    0.147833   -0.147346
      5          6           0       -1.579913    0.981844    0.674534
      6          6           0       -1.698551    0.476774    2.091580
      7          6           0       -0.389952   -0.290762    2.196319
      8          6           0        0.210611   -0.424073    0.993388
      9          6           0        1.554902   -0.447073    0.474923
     10          6           0        2.761589   -0.955982    0.953718
     11          6           0        3.946291   -0.613443    0.307754
     12          6           0        3.914305    0.273180   -0.790934
     13          6           0        2.734005    0.823745   -1.262113
     14          6           0        1.505475    0.467253   -0.646327
     15          7           0        0.275853    0.909754   -1.000920
     16          8           0       -2.266145    2.013354    0.324591
     17          6           0       -2.171436    2.506093   -1.051040
     18          1           0       -2.846190   -2.708863   -2.288111
     19          1           0       -3.747064   -3.156490   -0.822829
     20          1           0       -2.248431   -3.992346   -1.216776
     21          1           0       -1.804468   -2.230080    0.604834
     22          1           0       -1.560374   -0.611937   -1.996003
     23          1           0       -1.778998    1.303522    2.813115
     24          1           0       -2.626088   -0.114369    2.202111
     25          1           0        0.070705   -0.501375    3.155756
     26          1           0        2.772900   -1.624911    1.811345
     27          1           0        4.893540   -1.020723    0.647617
     28          1           0        4.849540    0.532518   -1.282299
     29          1           0        2.725634    1.503948   -2.108517
     30          1           0       -1.122450    2.451860   -1.358212
     31          1           0       -2.788773    1.860733   -1.679635
     32          1           0       -2.576620    3.515723   -1.013781
 ---------------------------------------------------------------------

 SCF Done:  E(UB3LYP) =  -710.752255339     A.U. after   27 cycles

 The electronic state is 2-A.
 Alpha  occ. eigenvalues --  -19.02537 -14.10085 -10.09178 -10.06457 -10.06048
 Alpha  occ. eigenvalues --  -10.05579 -10.04580 -10.04163 -10.04000 -10.03649
 Alpha  occ. eigenvalues --  -10.03447 -10.03209 -10.03122 -10.02984 -10.01667
 Alpha  occ. eigenvalues --  -10.01632 -10.01324  -0.95181  -0.77377  -0.69835
 Alpha  occ. eigenvalues --   -0.67638  -0.66582  -0.61872  -0.59656  -0.59609
 Alpha  occ. eigenvalues --   -0.56364  -0.54125  -0.50936  -0.47219  -0.44286
 Alpha  occ. eigenvalues --   -0.42775  -0.41818  -0.39597  -0.36730  -0.35569
 Alpha  occ. eigenvalues --   -0.34884  -0.33416  -0.32504  -0.31483  -0.30721
 Alpha  occ. eigenvalues --   -0.30365  -0.29356  -0.28788  -0.27832  -0.26309
 Alpha  occ. eigenvalues --   -0.25679  -0.25194  -0.24345  -0.23415  -0.22577
 Alpha  occ. eigenvalues --   -0.21247  -0.20070  -0.19655  -0.18878  -0.14364
 Alpha  occ. eigenvalues --   -0.13330  -0.12150  -0.09552  -0.08503  -0.01571
 Alpha  occ. eigenvalues --    0.01216
 Alpha virt. eigenvalues --    0.07953   0.09097   0.09190   0.09533   0.10316
 Alpha virt. eigenvalues --    0.10626   0.11130   0.11198   0.11596   0.12234
 Alpha virt. eigenvalues --    0.12929   0.13440   0.13614   0.14087   0.14499

  Beta  occ. eigenvalues --  -19.02067 -14.10015 -10.09195 -10.06052 -10.05658
  Beta  occ. eigenvalues --  -10.05209 -10.04667 -10.04166 -10.03903 -10.03605
  Beta  occ. eigenvalues --  -10.03450 -10.03212 -10.03126 -10.02910 -10.01665
  Beta  occ. eigenvalues --  -10.01628 -10.01319  -0.94112  -0.77204  -0.69530
  Beta  occ. eigenvalues --   -0.67429  -0.66437  -0.61551  -0.59522  -0.59483
  Beta  occ. eigenvalues --   -0.56292  -0.54061  -0.50310  -0.47143  -0.43938
  Beta  occ. eigenvalues --   -0.42609  -0.41398  -0.39487  -0.36315  -0.34770
  Beta  occ. eigenvalues --   -0.34410  -0.32980  -0.32325  -0.31349  -0.30612
  Beta  occ. eigenvalues --   -0.30220  -0.28900  -0.28698  -0.27593  -0.26170
  Beta  occ. eigenvalues --   -0.25565  -0.24853  -0.24163  -0.23280  -0.21737
  Beta  occ. eigenvalues --   -0.20384  -0.19712  -0.19377  -0.18520  -0.14256
  Beta  occ. eigenvalues --   -0.13258  -0.11749  -0.09471  -0.08346  -0.01281
  Beta virt. eigenvalues --    0.07911   0.09077   0.09141   0.09454   0.10403
  Beta virt. eigenvalues --    0.10594   0.10963   0.11114   0.11412   0.11815
  Beta virt. eigenvalues --    0.12538   0.12957   0.13470   0.13899   0.14523

 Mulliken charges and spin densities:
               1          2
     1  C   -0.659674  -0.013309
     2  C   -0.245148   0.076469
     3  C    0.053750  -0.005137
     4  C    0.383222  -0.063147
     5  C   -0.411896   0.737625
     6  C   -0.588416  -0.083727
     7  C   -0.784275   0.164991
     8  C    1.199063  -0.061860
     9  C    0.616964   0.008599
    10  C   -0.213932  -0.009039
    11  C   -0.374333   0.004997
    12  C   -0.267551  -0.004718
    13  C   -0.396569  -0.012932
    14  C   -0.962563   0.008347
    15  N    0.058164   0.010232
    16  O   -0.100439   0.104295
    17  C   -0.229376  -0.015412
    18  H    0.127964   0.000680
    19  H    0.115704   0.007708
    20  H    0.124528   0.000367
    21  H    0.175163  -0.006058
    22  H    0.155697   0.007972
    23  H    0.151034   0.012584
    24  H    0.081075   0.084614
    25  H    0.108377   0.008142
    26  H    0.112264  -0.000155
    27  H    0.096406  -0.000083
    28  H    0.109548   0.000342
    29  H    0.100932   0.000552
    30  H    0.221778   0.012147
    31  H    0.110615   0.025584
    32  H    0.131924  -0.000671
 Sum of Mulliken charges =  -1.00000   1.00000

 Dipole moment (field-independent basis, Debye):
    X=             -3.2259    Y=             -0.7281    Z=              0.2941  Tot=              3.3201
 Quadrupole moment (field-independent basis, Debye-Ang):
   XX=           -134.3319   YY=           -116.1528   ZZ=           -113.7916
   XY=              0.4605   XZ=              4.1217   YZ=             -2.2478

 Summary of Natural Population Analysis:

                                       Natural Population
                Natural  -----------------------------------------------
    Atom  No    Charge         Core      Valence    Rydberg      Total
 -----------------------------------------------------------------------
      C    1   -0.29631      0.99966     2.29191    0.00474     3.29631
      C    2   -0.08397      0.99952     2.07730    0.00715     3.08397
      C    3   -0.07811      0.99947     2.06719    0.01145     3.07811
      C    4   -0.01917      0.99944     2.00259    0.01714     3.01917
      C    5    0.54006      0.99949     1.44185    0.01860     2.45994
      C    6   -0.24290      0.99960     2.23677    0.00653     3.24290
      C    7   -0.09628      0.99947     2.08891    0.00790     3.09628
      C    8    0.00376      0.99945     1.98261    0.01419     2.99624
      C    9   -0.08518      0.99943     2.07460    0.01115     3.08518
      C   10   -0.09159      0.99953     2.08363    0.00842     3.09159
      C   11   -0.16337      0.99958     2.15139    0.01240     3.16337
      C   12   -0.10273      0.99958     2.09398    0.00916     3.10273
      C   13   -0.13838      0.99952     2.12825    0.01061     3.13838
      C   14    0.10220      0.99951     1.88424    0.01405     2.89780
      N   15   -0.34233      0.99971     2.82933    0.01328     3.84233
      O   16   -0.20788      0.99981     3.19813    0.00994     4.20788
      C   17   -0.11597      0.99959     2.10935    0.00704     3.11597
      H   18    0.09579      0.00000     0.40312    0.00109     0.40421
      H   19    0.09452      0.00000     0.40434    0.00114     0.40548
      H   20    0.09589      0.00000     0.40296    0.00115     0.40411
      H   21    0.09304      0.00000     0.40541    0.00154     0.40696
      H   22    0.09348      0.00000     0.40519    0.00133     0.40652
      H   23    0.10337      0.00000     0.39544    0.00120     0.39663
      H   24    0.10699      0.00000     0.39095    0.00206     0.39301
      H   25    0.08843      0.00000     0.40977    0.00180     0.41157
      H   26    0.09084      0.00000     0.40757    0.00159     0.40916
      H   27    0.08864      0.00000     0.40984    0.00152     0.41136
      H   28    0.08778      0.00000     0.41114    0.00108     0.41222
      H   29    0.09359      0.00000     0.40471    0.00170     0.40641
      H   30    0.12284      0.00000     0.37606    0.00110     0.37716
      H   31    0.08335      0.00000     0.41569    0.00096     0.41665
      H   32    0.07959      0.00000     0.41962    0.00079     0.42041
 =======================================================================
   * Total *   -0.00000     16.99237    42.80382    0.20381    60.00000

 Normal termination of Gaussian 16 at Fri Dec 11 13:22:56 2020.
