 Gaussian 16, Revision A.03,

 -----------------------------------------------------------
 # opt freq B3LYP/6-31G(d) empiricaldispersion=gd3bj scf=xqc
 -----------------------------------------------------------

 -------------------------------
 CID_142172573_JID_7972_neutraal
 -------------------------------
 Symbolic Z-matrix:
 Charge =  0 Multiplicity = 1

 SCF Done:  E(RB3LYP) =  -769.790022934     A.U. after   15 cycles
 SCF Done:  E(RB3LYP) =  -769.798462526     A.U. after   12 cycles
 SCF Done:  E(RB3LYP) =  -769.800289925     A.U. after   11 cycles
 SCF Done:  E(RB3LYP) =  -769.800924244     A.U. after   12 cycles
 SCF Done:  E(RB3LYP) =  -769.801944484     A.U. after   13 cycles
 SCF Done:  E(RB3LYP) =  -769.803245773     A.U. after   13 cycles
 SCF Done:  E(RB3LYP) =  -769.805731935     A.U. after   15 cycles
 SCF Done:  E(RB3LYP) =  -769.806784832     A.U. after   12 cycles
 SCF Done:  E(RB3LYP) =  -769.807687008     A.U. after   12 cycles
 SCF Done:  E(RB3LYP) =  -769.808069769     A.U. after   12 cycles
 SCF Done:  E(RB3LYP) =  -769.808268212     A.U. after   10 cycles
 SCF Done:  E(RB3LYP) =  -769.808268937     A.U. after    8 cycles
 SCF Done:  E(RB3LYP) =  -769.808269184     A.U. after    8 cycles
 SCF Done:  E(RB3LYP) =  -769.808269236     A.U. after    7 cycles
 SCF Done:  E(RB3LYP) =  -769.808269261     A.U. after    7 cycles
 Optimization completed.
    -- Stationary point found.
 Normal termination of Gaussian 16 at Fri Dec 11 13:32:46 2020.

 --------------------------------------------------------------------
 #N Geom=AllCheck Guess=TCheck SCRF=Check GenChk RB3LYP/6-31G(d) Freq
 --------------------------------------------------------------------

 Structure from the checkpoint file:  "JID_7972.chk"
 -------------------------------
 CID_142172573_JID_7972_neutraal
 -------------------------------
 Charge =  0 Multiplicity = 1

 SCF Done:  E(RB3LYP) =  -769.808269261     A.U. after    1 cycles

  Exact polarizability: 192.271   4.275 147.340  -6.668  -1.418 128.007
 Approx polarizability: 230.022   9.762 221.881  -8.919  -7.988 190.206

                      1                      2                      3
                      A                      A                      A
 Frequencies --     19.1061                21.0916                29.2611
 Red. masses --      4.0397                 3.9826                 3.4195
 Frc consts  --      0.0009                 0.0010                 0.0017
 IR Inten    --      0.2236                 0.2535                 0.3201

                      4                      5                      6
                      A                      A                      A
 Frequencies --     40.3754                56.9458                77.3993
 Red. masses --      3.6110                 4.9400                 3.6611
 Frc consts  --      0.0035                 0.0094                 0.0129
 IR Inten    --      0.5422                 1.8597                 0.1549

                      7                      8                      9
                      A                      A                      A
 Frequencies --    101.0128               122.8338               128.0409
 Red. masses --      3.7363                 2.3067                 2.3212
 Frc consts  --      0.0225                 0.0205                 0.0224
 IR Inten    --      1.1147                 4.1126                 1.3123

                     10                     11                     12
                      A                      A                      A
 Frequencies --    135.9379               144.3188               174.7832
 Red. masses --      2.7738                 1.5038                 2.2659
 Frc consts  --      0.0302                 0.0185                 0.0408
 IR Inten    --     11.7820                 1.2577                 0.2484

                     13                     14                     15
                      A                      A                      A
 Frequencies --    202.2151               210.1892               222.7478
 Red. masses --      2.6892                 1.2561                 1.0688
 Frc consts  --      0.0648                 0.0327                 0.0312
 IR Inten    --      4.0932                 2.2894                22.9808

                     16                     17                     18
                      A                      A                      A
 Frequencies --    252.8849               272.5539               294.5727
 Red. masses --      2.1571                 1.3311                 2.3045
 Frc consts  --      0.0813                 0.0583                 0.1178
 IR Inten    --      3.4521                33.1861                 1.0877

                     19                     20                     21
                      A                      A                      A
 Frequencies --    317.0218               328.5095               338.3809
 Red. masses --      2.8717                 2.9268                 3.5382
 Frc consts  --      0.1700                 0.1861                 0.2387
 IR Inten    --      1.0296                 1.3867                14.0776

                     22                     23                     24
                      A                      A                      A
 Frequencies --    350.3385               378.2439               395.1145
 Red. masses --      2.3693                 3.0398                 2.3504
 Frc consts  --      0.1713                 0.2562                 0.2162
 IR Inten    --      8.6769                 0.2164                 0.8097

                     25                     26                     27
                      A                      A                      A
 Frequencies --    465.8642               484.2771               496.7285
 Red. masses --      3.7278                 2.6956                 2.8343
 Frc consts  --      0.4767                 0.3725                 0.4120
 IR Inten    --      5.3514                 4.5583                 7.5010

                     28                     29                     30
                      A                      A                      A
 Frequencies --    516.1138               528.7549               570.8605
 Red. masses --      2.8117                 3.2003                 2.8861
 Frc consts  --      0.4413                 0.5272                 0.5541
 IR Inten    --     30.9356                 1.3583                 1.4653

                     31                     32                     33
                      A                      A                      A
 Frequencies --    594.2425               757.2409               782.0368
 Red. masses --      2.5477                 5.7668                 2.3005
 Frc consts  --      0.5301                 1.9483                 0.8290
 IR Inten    --      7.0040                13.7013                 0.3808

                     34                     35                     36
                      A                      A                      A
 Frequencies --    791.5200               796.7657               808.0211
 Red. masses --      2.3135                 1.7476                 1.2159
 Frc consts  --      0.8540                 0.6537                 0.4677
 IR Inten    --      6.7057                57.4863                 1.5797

                     37                     38                     39
                      A                      A                      A
 Frequencies --    856.7372               874.4125               881.2582
 Red. masses --      2.2003                 1.7020                 2.0043
 Frc consts  --      0.9515                 0.7667                 0.9171
 IR Inten    --      0.7605               118.3203                15.6155

                     40                     41                     42
                      A                      A                      A
 Frequencies --    892.1708               905.9170               928.3801
 Red. masses --      1.7747                 1.8574                 2.3893
 Frc consts  --      0.8323                 0.8981                 1.2133
 IR Inten    --      0.2684                26.5359                 6.9952

                     43                     44                     45
                      A                      A                      A
 Frequencies --    958.2592               967.9785               983.6861
 Red. masses --      2.9139                 1.5791                 1.2947
 Frc consts  --      1.5765                 0.8717                 0.7382
 IR Inten    --     30.6609                 9.4433                 2.2517

                     46                     47                     48
                      A                      A                      A
 Frequencies --    991.1223              1004.9843              1020.2908
 Red. masses --      1.5562                 1.5603                 1.7215
 Frc consts  --      0.9007                 0.9285                 1.0559
 IR Inten    --     15.6730                 9.6197                 0.2291

                     49                     50                     51
                      A                      A                      A
 Frequencies --   1034.7197              1048.5344              1065.5540
 Red. masses --      4.4333                 1.8608                 1.3235
 Frc consts  --      2.7965                 1.2054                 0.8853
 IR Inten    --      2.1883                11.6422                 9.9224

                     52                     53                     54
                      A                      A                      A
 Frequencies --   1077.3713              1088.1341              1093.8626
 Red. masses --      1.5364                 2.0413                 1.3950
 Frc consts  --      1.0507                 1.4241                 0.9834
 IR Inten    --      8.1996                21.8454                 5.2699

                     55                     56                     57
                      A                      A                      A
 Frequencies --   1116.6208              1121.2133              1137.9451
 Red. masses --      2.3564                 3.4901                 2.3089
 Frc consts  --      1.7311                 2.5850                 1.7616
 IR Inten    --     17.3922                34.4355                26.7627

                     58                     59                     60
                      A                      A                      A
 Frequencies --   1157.5801              1187.3170              1188.1132
 Red. masses --      1.7514                 1.2747                 2.0268
 Frc consts  --      1.3828                 1.0588                 1.6857
 IR Inten    --     65.4889                 1.3133               148.8635

                     61                     62                     63
                      A                      A                      A
 Frequencies --   1211.0630              1212.3277              1224.7791
 Red. masses --      1.4291                 1.5604                 1.9955
 Frc consts  --      1.2350                 1.3512                 1.7637
 IR Inten    --      7.5036                17.8446               114.6146

                     64                     65                     66
                      A                      A                      A
 Frequencies --   1246.9577              1266.6815              1277.3761
 Red. masses --      1.8057                 1.2857                 1.3853
 Frc consts  --      1.6542                 1.2154                 1.3318
 IR Inten    --     79.8095                14.8260                 9.1887

                     67                     68                     69
                      A                      A                      A
 Frequencies --   1301.5509              1327.0471              1357.7995
 Red. masses --      1.4334                 2.0667                 1.4710
 Frc consts  --      1.4306                 2.1444                 1.5978
 IR Inten    --      5.8150                 0.7725                15.7777

                     70                     71                     72
                      A                      A                      A
 Frequencies --   1373.7129              1386.2787              1396.0904
 Red. masses --      1.4305                 1.5004                 1.4406
 Frc consts  --      1.5905                 1.6989                 1.6544
 IR Inten    --     91.4029                 6.3934                20.0515

                     73                     74                     75
                      A                      A                      A
 Frequencies --   1398.6053              1414.2068              1426.9440
 Red. masses --      1.6822                 1.5621                 1.3340
 Frc consts  --      1.9387                 1.8407                 1.6004
 IR Inten    --     29.0514                 7.4966                 7.8918

                     76                     77                     78
                      A                      A                      A
 Frequencies --   1443.2024              1452.1388              1488.3175
 Red. masses --      1.2718                 1.5280                 1.0878
 Frc consts  --      1.5607                 1.8984                 1.4196
 IR Inten    --      4.8023                 9.9455                 2.8342

                     79                     80                     81
                      A                      A                      A
 Frequencies --   1493.3030              1505.5126              1506.5498
 Red. masses --      1.2248                 1.1122                 1.0995
 Frc consts  --      1.6091                 1.4853                 1.4703
 IR Inten    --      9.7948                 6.6327                10.1382

                     82                     83                     84
                      A                      A                      A
 Frequencies --   1510.8953              1511.9711              1520.3377
 Red. masses --      1.0793                 1.0483                 1.0506
 Frc consts  --      1.4517                 1.4119                 1.4307
 IR Inten    --     22.3354                 5.2456                 1.2852

                     85                     86                     87
                      A                      A                      A
 Frequencies --   1521.7438              1525.7157              1528.0677
 Red. masses --      1.0553                 1.1360                 1.1703
 Frc consts  --      1.4398                 1.5580                 1.6100
 IR Inten    --      9.1147                13.3417                 3.4681

                     88                     89                     90
                      A                      A                      A
 Frequencies --   1535.8144              1537.1384              1555.4106
 Red. masses --      1.1081                 1.1106                 1.0873
 Frc consts  --      1.5399                 1.5461                 1.5498
 IR Inten    --     16.1501                10.1831                 4.5206

                     91                     92                     93
                      A                      A                      A
 Frequencies --   1692.8564              1753.7094              1803.9453
 Red. masses --      1.0961                 6.6082                11.4282
 Frc consts  --      1.8507                11.9742                21.9116
 IR Inten    --     47.7417                 0.2203               221.3816

                     94                     95                     96
                      A                      A                      A
 Frequencies --   2954.8329              2963.8959              3021.1574
 Red. masses --      1.0721                 1.0828                 1.0392
 Frc consts  --      5.5149                 5.6044                 5.5885
 IR Inten    --     72.5565                54.4014                42.7630

                     97                     98                     99
                      A                      A                      A
 Frequencies --   3043.0443              3050.6465              3052.4307
 Red. masses --      1.0626                 1.0859                 1.0376
 Frc consts  --      5.7975                 5.9544                 5.6959
 IR Inten    --     17.6138                41.6292                22.6982

                    100                    101                    102
                      A                      A                      A
 Frequencies --   3062.6591              3074.2155              3075.6461
 Red. masses --      1.0997                 1.0294                 1.0670
 Frc consts  --      6.0774                 5.7321                 5.9467
 IR Inten    --     25.4595                38.3447                 2.1287

                    103                    104                    105
                      A                      A                      A
 Frequencies --   3091.5160              3115.2579              3118.3373
 Red. masses --      1.0945                 1.1020                 1.1009
 Frc consts  --      6.1633                 6.3011                 6.3074
 IR Inten    --     35.5331                34.5997                 8.9401

                    106                    107                    108
                      A                      A                      A
 Frequencies --   3120.9914              3144.1513              3147.8170
 Red. masses --      1.0997                 1.0903                 1.1073
 Frc consts  --      6.3109                 6.3502                 6.4647
 IR Inten    --     13.8837                37.3710                21.4883

                    109                    110                    111
                      A                      A                      A
 Frequencies --   3149.9634              3157.1596              3168.9827
 Red. masses --      1.1012                 1.0547                 1.0550
 Frc consts  --      6.4376                 6.1939                 6.2420
 IR Inten    --     19.5879                14.9674                 8.4508

                    112                    113                    114
                      A                      A                      A
 Frequencies --   3178.8786              3243.3574              3258.2673
 Red. masses --      1.1072                 1.1184                 1.1170
 Frc consts  --      6.5919                 6.9319                 6.9868
 IR Inten    --     18.7074                 1.4503                 9.9717

                    115                    116                    117
                      A                      A                      A
 Frequencies --   3466.1826              3474.2262              3549.7188
 Red. masses --      1.0505                 1.0725                 1.0917
 Frc consts  --      7.4358                 7.6270                 8.1049
 IR Inten    --      2.8563                 0.4707                 2.4299

 - Thermochemistry -
 -------------------
 Temperature   298.150 Kelvin.  Pressure   1.00000 Atm.
 Atom     1 has atomic number  6 and mass  12.00000

 Molecular mass:   240.18378 amu.
 Principal axes and moments of inertia in atomic units:
                           1         2         3
     Eigenvalues --  1933.68002********************
           X            0.99998  -0.00605  -0.00250
           Y            0.00609   0.99984   0.01698
           Z            0.00240  -0.01699   0.99985
 This molecule is an asymmetric top.
 Rotational symmetry number  1.
 Warning -- assumption of classical behavior for rotation
           may cause significant error
 Rotational temperatures (Kelvin)      0.04479     0.00838     0.00791
 Rotational constants (GHZ):           0.93332     0.17455     0.16488
 Zero-point vibrational energy     958088.3 (Joules/Mol)
                                  228.98860 (Kcal/Mol)
 Warning -- explicit consideration of  31 degrees of freedom as
           vibrations may cause significant error
 Vibrational temperatures:     27.49    30.35    42.10    58.09    81.93
          (Kelvin)            111.36   145.33   176.73   184.22   195.58
                              207.64   251.47   290.94   302.42   320.48
                              363.84   392.14   423.82   456.12   472.65
                              486.85   504.06   544.21   568.48   670.27
                              696.77   714.68   742.57   760.76   821.34
                              854.98  1089.50  1125.18  1138.82  1146.37
                             1162.56  1232.65  1258.08  1267.93  1283.63
                             1303.41  1335.73  1378.72  1392.71  1415.30
                             1426.00  1445.95  1467.97  1488.73  1508.61
                             1533.09  1550.10  1565.58  1573.82  1606.57
                             1613.18  1637.25  1665.50  1708.28  1709.43
                             1742.45  1744.27  1762.18  1794.09  1822.47
                             1837.86  1872.64  1909.32  1953.57  1976.47
                             1994.55  2008.66  2012.28  2034.73  2053.05
                             2076.45  2089.30  2141.36  2148.53  2166.10
                             2167.59  2173.84  2175.39  2187.43  2189.45
                             2195.16  2198.55  2209.69  2211.60  2237.89
                             2435.64  2523.20  2595.47  4251.35  4264.39
                             4346.77  4378.26  4389.20  4391.77  4406.48
                             4423.11  4425.17  4448.00  4482.16  4486.59
                             4490.41  4523.73  4529.01  4532.09  4542.45
                             4559.46  4573.70  4666.47  4687.92  4987.06
                             4998.64  5107.25

 Zero-point correction=                           0.364917 (Hartree/Particle)
 Thermal correction to Energy=                    0.385051
 Thermal correction to Enthalpy=                  0.385995
 Thermal correction to Gibbs Free Energy=         0.313580
 Sum of electronic and zero-point Energies=           -769.443353
 Sum of electronic and thermal Energies=              -769.423218
 Sum of electronic and thermal Enthalpies=            -769.422274
 Sum of electronic and thermal Free Energies=         -769.494689

                     E (Thermal)             CV                S
                      KCal/Mol        Cal/Mol-Kelvin    Cal/Mol-Kelvin
 Total                  241.623             73.220            152.410
 Electronic               0.000              0.000              0.000
 Translational            0.889              2.981             42.330
 Rotational               0.889              2.981             33.747
 Vibrational            239.846             67.259             76.333
 Vibration     1          0.593              1.986              6.725
 Vibration     2          0.593              1.985              6.529
 Vibration     3          0.593              1.984              5.879
 Vibration     4          0.594              1.981              5.241
 Vibration     5          0.596              1.975              4.560
 Vibration     6          0.599              1.964              3.956
 Vibration     7          0.604              1.948              3.435
 Vibration     8          0.610              1.930              3.055
 Vibration     9          0.611              1.925              2.975
 Vibration    10          0.614              1.917              2.860
 Vibration    11          0.616              1.909              2.746
 Vibration    12          0.627              1.873              2.383
 Vibration    13          0.639              1.837              2.113
 Vibration    14          0.642              1.825              2.042
 Vibration    15          0.648              1.806              1.937
 Vibration    16          0.664              1.758              1.710
 Vibration    17          0.676              1.724              1.580
 Vibration    18          0.689              1.684              1.448
 Vibration    19          0.704              1.641              1.325
 Vibration    20          0.712              1.619              1.267
 Vibration    21          0.719              1.599              1.220
 Vibration    22          0.727              1.575              1.165
 Vibration    23          0.749              1.517              1.046
 Vibration    24          0.762              1.481              0.981
 Vibration    25          0.823              1.326              0.749
 Vibration    26          0.840              1.285              0.699
 Vibration    27          0.852              1.257              0.666
 Vibration    28          0.871              1.214              0.619
 Vibration    29          0.884              1.186              0.590
 Vibration    30          0.927              1.094              0.503
 Vibration    31          0.952              1.044              0.460

 Optimization completed.
    -- Stationary point found.
 Normal termination of Gaussian 16 at Fri Dec 11 13:47:43 2020.

 ----------------------------------------------------------------------
 # B3LYP/6-311++G(d,p) empiricaldispersion=gd3bj scf=xqc pop=npa geom=c
 heck
 ----------------------------------------------------------------------

 ---------------------------------------
 CID_142172573_JID_7972_Energie_neutraal
 ---------------------------------------
 Structure from the checkpoint file:  "JID_7972.chk"
 Charge =  0 Multiplicity = 1

 SCF Done:  E(RB3LYP) =  -770.038813850     A.U. after   15 cycles
 Normal termination of Gaussian 16 at Fri Dec 11 13:54:13 2020.

 ----------------------------------------------------------------------
 # B3LYP/6-311++G(d,p) empiricaldispersion=gd3bj scf=xqc pop=npa geom=c
 heck
 ----------------------------------------------------------------------

 -------------------------------------
 CID_142172573_JID_7972_Energie_kation
 -------------------------------------
 Structure from the checkpoint file:  "JID_7972.chk"
 Charge =  1 Multiplicity = 2

 SCF Done:  E(UB3LYP) =  -769.745049902     A.U. after   27 cycles
 Normal termination of Gaussian 16 at Fri Dec 11 14:09:53 2020.
 Gaussian 16:  ES64L-G16RevA.03 25-Dec-2016

 ----------------------------------------------------------------------
 # B3LYP/6-311++G(d,p) empiricaldispersion=gd3bj scf=xqc pop=npa geom=c
 heck
 ----------------------------------------------------------------------

 ------------------------------------
 CID_142172573_JID_7972_Energie_anion
 ------------------------------------
 Structure from the checkpoint file:  "JID_7972.chk"
 Charge = -1 Multiplicity = 2

                         Standard orientation:
 ---------------------------------------------------------------------
 Center     Atomic      Atomic             Coordinates (Angstroms)
 Number     Number       Type             X           Y           Z
 ---------------------------------------------------------------------
      1          6           0       -4.903883    2.054457   -0.273434
      2          6           0       -4.345053    0.801492    0.394883
      3          7           0       -5.413879   -0.213230    0.468649
      4          7           0       -3.196270    0.326460   -0.361381
      5          6           0       -2.461743   -0.778401    0.266892
      6          6           0       -1.349684   -1.281430   -0.638002
      7          6           0       -0.232291   -0.574086   -0.851760
      8          6           0        0.099234    0.758011   -0.233437
      9          6           0        0.983669    0.651397    1.027905
     10          6           0        2.321361   -0.039313    0.815307
     11          6           0        2.935729   -0.812064    1.981587
     12          6           0        2.372737   -1.560812    0.818652
     13          6           0        3.272827    0.698580   -0.064237
     14          8           0        3.077119    1.807342   -0.521785
     15          8           0        4.416293    0.004871   -0.299292
     16          6           0        5.378679    0.680248   -1.119867
     17          6           0       -1.597420   -2.608734   -1.307859
     18          1           0       -5.293198    1.805846   -1.267441
     19          1           0       -4.115420    2.803504   -0.379998
     20          1           0       -5.723623    2.485187    0.313434
     21          1           0       -3.954424    1.075453    1.390871
     22          1           0       -5.138164   -0.964603    1.098723
     23          1           0       -6.252175    0.198540    0.877065
     24          1           0       -3.526022    0.023789   -1.278286
     25          1           0       -2.049565   -0.397425    1.210201
     26          1           0       -3.109494   -1.633785    0.529731
     27          1           0        0.519437   -0.998498   -1.517865
     28          1           0        0.624476    1.379659   -0.965813
     29          1           0       -0.825448    1.283277    0.022984
     30          1           0        1.163674    1.659573    1.419022
     31          1           0        0.437632    0.096656    1.801379
     32          1           0        4.013875   -0.775115    2.092124
     33          1           0        2.376353   -0.792827    2.912800
     34          1           0        1.415794   -2.059476    0.932596
     35          1           0        3.064615   -2.040710    0.135609
     36          1           0        4.957417    0.900319   -2.104335
     37          1           0        5.691899    1.618157   -0.653601
     38          1           0        6.221781   -0.005777   -1.207196
     39          1           0       -1.709059   -3.415292   -0.569502
     40          1           0       -2.530323   -2.593406   -1.889500
     41          1           0       -0.781268   -2.879442   -1.985038
 ---------------------------------------------------------------------

 SCF Done:  E(UB3LYP) =  -770.027317421     A.U. after   33 cycles
 SCF Done:  E(UB3LYP) =  -770.027317421     a.u. after    1 cycles

 The electronic state is 2-A.
 Alpha  occ. eigenvalues --  -19.08292 -19.02500 -14.20302 -14.19759 -10.21572
 Alpha  occ. eigenvalues --  -10.13773 -10.12972 -10.11492 -10.10117 -10.09958
 Alpha  occ. eigenvalues --  -10.09557 -10.08475 -10.08283 -10.07863 -10.07064
 Alpha  occ. eigenvalues --  -10.06911 -10.06894  -1.02293  -0.93437  -0.83662
 Alpha  occ. eigenvalues --   -0.79620  -0.76330  -0.71700  -0.67489  -0.65079
 Alpha  occ. eigenvalues --   -0.64011  -0.60583  -0.57639  -0.55065  -0.52820
 Alpha  occ. eigenvalues --   -0.51762  -0.50310  -0.46761  -0.44002  -0.42748
 Alpha  occ. eigenvalues --   -0.40975  -0.39955  -0.39909  -0.39407  -0.37762
 Alpha  occ. eigenvalues --   -0.37520  -0.36457  -0.35977  -0.35285  -0.33434
 Alpha  occ. eigenvalues --   -0.32675  -0.31980  -0.31545  -0.30882  -0.29709
 Alpha  occ. eigenvalues --   -0.29342  -0.28877  -0.28559  -0.28087  -0.28031
 Alpha  occ. eigenvalues --   -0.26882  -0.26405  -0.25026  -0.24023  -0.22493
 Alpha  occ. eigenvalues --   -0.22326  -0.20441  -0.19174  -0.16046  -0.15006
 Alpha  occ. eigenvalues --   -0.13885   0.03813
 Alpha virt. eigenvalues --    0.04925   0.06335   0.06747   0.07563   0.07816
 Alpha virt. eigenvalues --    0.07984   0.08487   0.08758   0.08988   0.09333
 Alpha virt. eigenvalues --    0.09430   0.09958   0.10679   0.10928   0.11089

  Beta  occ. eigenvalues --  -19.08288 -19.02496 -14.20299 -14.19712 -10.21572
  Beta  occ. eigenvalues --  -10.13732 -10.12955 -10.11492 -10.10096 -10.09949
  Beta  occ. eigenvalues --  -10.09547 -10.08466 -10.08278 -10.07849 -10.07055
  Beta  occ. eigenvalues --  -10.06893 -10.06892  -1.02285  -0.93428  -0.83632
  Beta  occ. eigenvalues --   -0.79614  -0.76270  -0.71675  -0.67470  -0.65034
  Beta  occ. eigenvalues --   -0.63966  -0.60561  -0.57597  -0.55034  -0.52790
  Beta  occ. eigenvalues --   -0.51736  -0.50251  -0.46740  -0.43973  -0.42719
  Beta  occ. eigenvalues --   -0.40941  -0.39920  -0.39886  -0.39365  -0.37730
  Beta  occ. eigenvalues --   -0.37491  -0.36407  -0.35952  -0.35251  -0.33413
  Beta  occ. eigenvalues --   -0.32647  -0.31954  -0.31525  -0.30861  -0.29693
  Beta  occ. eigenvalues --   -0.29313  -0.28851  -0.28542  -0.28058  -0.28001
  Beta  occ. eigenvalues --   -0.26857  -0.26374  -0.25014  -0.24008  -0.22479
  Beta  occ. eigenvalues --   -0.22314  -0.20431  -0.19164  -0.15995  -0.14977
  Beta  occ. eigenvalues --   -0.13868
  Beta virt. eigenvalues --    0.05771   0.06179   0.06754   0.06925   0.07867
  Beta virt. eigenvalues --    0.08097   0.08245   0.08634   0.09049   0.09154
  Beta virt. eigenvalues --    0.09678   0.09755   0.10153   0.10851   0.11091

 Mulliken charges and spin densities:
               1          2
     1  C   -0.062838  -0.582813
     2  C    0.595975  -0.696323
     3  N   -0.356478   0.057218
     4  N   -0.008141   0.023881
     5  C   -1.249572   0.081307
     6  C    0.643781   0.177072
     7  C   -0.497752   0.380045
     8  C   -0.254039  -0.231406
     9  C   -0.008067  -0.527460
    10  C    0.286282   0.601978
    11  C   -0.020170  -0.128420
    12  C    0.241019  -0.581147
    13  C   -1.050246   0.128969
    14  O   -0.243809   0.020912
    15  O   -0.114070   0.060755
    16  C    0.783313  -1.025816
    17  C    0.407665  -1.040024
    18  H    0.058971   0.086511
    19  H    0.076074   0.069522
    20  H   -0.243682   0.382145
    21  H   -0.197395   0.350113
    22  H   -0.223805   0.454141
    23  H   -0.080725   0.315994
    24  H    0.198037   0.006525
    25  H   -0.312042   0.518998
    26  H    0.171243  -0.047745
    27  H    0.065769   0.129341
    28  H    0.126681   0.073399
    29  H    0.444529  -0.229815
    30  H    0.092056   0.114404
    31  H    0.213445  -0.089355
    32  H    0.074915   0.113315
    33  H   -0.052492   0.212841
    34  H    0.213668  -0.059441
    35  H    0.020076   0.188984
    36  H   -0.076064   0.247551
    37  H   -0.149923   0.324201
    38  H   -0.503213   0.658522
    39  H   -0.112809   0.279844
    40  H    0.070692   0.078246
    41  H    0.033141   0.103030
 Sum of Mulliken charges =  -1.00000   1.00000

 Dipole moment (field-independent basis, Debye):
    X=              2.1976    Y=             -0.1762    Z=             -0.8041  Tot=              2.3467
 Quadrupole moment (field-independent basis, Debye-Ang):
   XX=           -250.8490   YY=           -146.4499   ZZ=           -137.2759
   XY=             -2.4460   XZ=             20.2773   YZ=              1.4280

 Summary of Natural Population Analysis:

                                       Natural Population
                Natural  -----------------------------------------------
    Atom  No    Charge         Core      Valence    Rydberg      Total
 -----------------------------------------------------------------------
      C    1   -0.28849      0.99964     2.28225    0.00659     3.28849
      C    2    0.07693      0.99965     1.90852    0.01490     2.92307
      N    3   -0.43447      0.99976     2.92382    0.01089     3.93447
      N    4   -0.33850      0.99973     2.82839    0.01039     3.83850
      C    5   -0.10275      0.99957     2.09182    0.01135     3.10275
      C    6   -0.01760      0.99948     2.00813    0.00999     3.01760
      C    7   -0.08306      0.99945     2.07501    0.00860     3.08306
      C    8   -0.21481      0.99960     2.20635    0.00885     3.21481
      C    9   -0.17835      0.99959     2.16994    0.00882     3.17835
      C   10   -0.09075      0.99950     2.07849    0.01276     3.09075
      C   11   -0.18135      0.99960     2.17393    0.00782     3.18135
      C   12   -0.18575      0.99960     2.17669    0.00946     3.18575
      C   13    0.41258      0.99958     1.56264    0.02520     2.58742
      O   14   -0.30821      0.99987     3.30320    0.00513     4.30821
      O   15   -0.28362      0.99986     3.27473    0.00903     4.28362
      C   16   -0.10343      0.99959     2.09464    0.00919     3.10343
      C   17   -0.29482      0.99962     2.28944    0.00575     3.29482
      H   18    0.09802      0.00000     0.40106    0.00092     0.40198
      H   19    0.10450      0.00000     0.39459    0.00091     0.39550
      H   20    0.09856      0.00000     0.40056    0.00088     0.40144
      H   21    0.07770      0.00000     0.42020    0.00210     0.42230
      H   22    0.17838      0.00000     0.31861    0.00301     0.32162
      H   23    0.17767      0.00000     0.31959    0.00274     0.32233
      H   24    0.17067      0.00000     0.32659    0.00274     0.32933
      H   25    0.09654      0.00000     0.40164    0.00182     0.40346
      H   26    0.08456      0.00000     0.41368    0.00177     0.41544
      H   27    0.09128      0.00000     0.40744    0.00128     0.40872
      H   28    0.10909      0.00000     0.38971    0.00120     0.39091
      H   29    0.11249      0.00000     0.38602    0.00149     0.38751
      H   30    0.10547      0.00000     0.39356    0.00097     0.39453
      H   31    0.09729      0.00000     0.40134    0.00137     0.40271
      H   32    0.10944      0.00000     0.38936    0.00120     0.39056
      H   33    0.10355      0.00000     0.39551    0.00093     0.39645
      H   34    0.10987      0.00000     0.38906    0.00107     0.39013
      H   35    0.11148      0.00000     0.38717    0.00135     0.38852
      H   36    0.09160      0.00000     0.40724    0.00116     0.40840
      H   37    0.09106      0.00000     0.40780    0.00114     0.40894
      H   38    0.09427      0.00000     0.40385    0.00188     0.40573
      H   39    0.10204      0.00000     0.39690    0.00106     0.39796
      H   40    0.10042      0.00000     0.39858    0.00099     0.39958
      H   41    0.10051      0.00000     0.39873    0.00076     0.39949
 =======================================================================
   * Total *    0.00000     16.99371    48.79683    0.20946    66.00000

 Normal termination of Gaussian 16 at Fri Dec 11 14:29:07 2020.
