 Gaussian 16, Revision A.03,

 -----------------------------------------------------------
 # opt freq B3LYP/6-31G(d) empiricaldispersion=gd3bj scf=xqc
 -----------------------------------------------------------

 ------------------------------
 CID_22723195_JID_3544_neutraal
 ------------------------------
 Symbolic Z-matrix:
 Charge =  0 Multiplicity = 1

 SCF Done:  E(RB3LYP) =  -559.418217987     A.U. after   13 cycles
 SCF Done:  E(RB3LYP) =  -559.421235940     A.U. after   12 cycles
 SCF Done:  E(RB3LYP) =  -559.421947782     A.U. after   12 cycles
 SCF Done:  E(RB3LYP) =  -559.422043572     A.U. after   12 cycles
 SCF Done:  E(RB3LYP) =  -559.422212312     A.U. after   12 cycles
 SCF Done:  E(RB3LYP) =  -559.422466918     A.U. after   12 cycles
 SCF Done:  E(RB3LYP) =  -559.422884662     A.U. after   12 cycles
 SCF Done:  E(RB3LYP) =  -559.422955038     A.U. after   11 cycles
 SCF Done:  E(RB3LYP) =  -559.422999898     A.U. after   11 cycles
 SCF Done:  E(RB3LYP) =  -559.423016536     A.U. after   10 cycles
 SCF Done:  E(RB3LYP) =  -559.423028608     A.U. after    8 cycles
 SCF Done:  E(RB3LYP) =  -559.423028998     A.U. after    8 cycles
 SCF Done:  E(RB3LYP) =  -559.423029333     A.U. after    8 cycles
 SCF Done:  E(RB3LYP) =  -559.423029358     A.U. after    7 cycles
 SCF Done:  E(RB3LYP) =  -559.423029365     A.U. after    6 cycles
 Optimization completed.
    -- Stationary point found.
 Normal termination of Gaussian 16 at Wed Dec  9 23:45:25 2020.

 --------------------------------------------------------------------
 #N Geom=AllCheck Guess=TCheck SCRF=Check GenChk RB3LYP/6-31G(d) Freq
 --------------------------------------------------------------------

 Structure from the checkpoint file:  "JID_3544.chk"
 ------------------------------
 CID_22723195_JID_3544_neutraal
 ------------------------------
 Charge =  0 Multiplicity = 1

 SCF Done:  E(RB3LYP) =  -559.423029365     A.U. after    1 cycles

  Exact polarizability: 142.879  20.531 108.731  -7.036   5.146 112.264
 Approx polarizability: 192.710  38.722 157.526 -14.011  12.432 195.008

                      1                      2                      3
                      A                      A                      A
 Frequencies --     26.3068                36.7675                53.2547
 Red. masses --      4.3962                 1.0247                 3.4613
 Frc consts  --      0.0018                 0.0008                 0.0058
 IR Inten    --      0.7120                 0.3071                 1.7808

                      4                      5                      6
                      A                      A                      A
 Frequencies --     56.5902               107.5568               131.9919
 Red. masses --      3.9500                 5.3103                 3.0906
 Frc consts  --      0.0075                 0.0362                 0.0317
 IR Inten    --      0.2921                 0.5267                 3.9451

                      7                      8                      9
                      A                      A                      A
 Frequencies --    181.0073               208.0530               266.9386
 Red. masses --      3.4593                 2.6342                 2.3027
 Frc consts  --      0.0668                 0.0672                 0.0967
 IR Inten    --      0.6425                21.5695                 6.0025

                     10                     11                     12
                      A                      A                      A
 Frequencies --    300.9298               312.6616               346.9840
 Red. masses --      2.5332                 1.8986                 1.7611
 Frc consts  --      0.1352                 0.1094                 0.1249
 IR Inten    --      8.5307                 6.1419                28.8367

                     13                     14                     15
                      A                      A                      A
 Frequencies --    368.3552               391.3687               420.2399
 Red. masses --      1.8378                 2.2989                 2.9637
 Frc consts  --      0.1469                 0.2075                 0.3084
 IR Inten    --     11.7842                 0.1036                 0.0846

                     16                     17                     18
                      A                      A                      A
 Frequencies --    442.2438               484.3212               535.2832
 Red. masses --      2.9907                 3.3075                 2.4484
 Frc consts  --      0.3446                 0.4571                 0.4133
 IR Inten    --      1.9023                 4.0937                 8.1087

                     19                     20                     21
                      A                      A                      A
 Frequencies --    581.5188               660.2239               717.7099
 Red. masses --      2.5849                 6.7069                 3.3041
 Frc consts  --      0.5150                 1.7225                 1.0028
 IR Inten    --      6.3692                 0.0593                 3.4783

                     22                     23                     24
                      A                      A                      A
 Frequencies --    730.3982               773.5597               815.9633
 Red. masses --      3.0500                 1.6657                 1.5235
 Frc consts  --      0.9587                 0.5873                 0.5976
 IR Inten    --      1.2975                52.5419                20.6657

                     25                     26                     27
                      A                      A                      A
 Frequencies --    834.1908               838.9853               863.0990
 Red. masses --      2.3573                 2.2680                 1.2586
 Frc consts  --      0.9665                 0.9406                 0.5524
 IR Inten    --      2.0330                14.8253                 0.8679

                     28                     29                     30
                      A                      A                      A
 Frequencies --    895.3763               916.9674               964.3404
 Red. masses --      2.2941                 1.7200                 1.2813
 Frc consts  --      1.0836                 0.8521                 0.7020
 IR Inten    --     12.2170                14.5565                 1.1692

                     31                     32                     33
                      A                      A                      A
 Frequencies --    969.9568               981.5789              1016.3331
 Red. masses --      1.3480                 2.2233                 1.4724
 Frc consts  --      0.7472                 1.2621                 0.8961
 IR Inten    --      0.2877                 6.4563                 0.3379

                     34                     35                     36
                      A                      A                      A
 Frequencies --   1044.3476              1049.4646              1069.6983
 Red. masses --      2.8129                 1.6431                 2.5195
 Frc consts  --      1.8076                 1.0662                 1.6986
 IR Inten    --      0.4648                 6.8931                53.4099

                     37                     38                     39
                      A                      A                      A
 Frequencies --   1077.3167              1085.9181              1135.9461
 Red. masses --      1.5455                 2.2425                 2.0733
 Frc consts  --      1.0568                 1.5580                 1.5762
 IR Inten    --     14.0787                 9.1476                 5.8068

                     40                     41                     42
                      A                      A                      A
 Frequencies --   1153.1245              1169.5164              1220.1623
 Red. masses --      1.4341                 2.5591                 1.2530
 Frc consts  --      1.1235                 2.0623                 1.0991
 IR Inten    --      7.1410                29.2979                 5.9019

                     43                     44                     45
                      A                      A                      A
 Frequencies --   1220.9054              1226.2369              1239.4604
 Red. masses --      1.1864                 1.8741                 1.6424
 Frc consts  --      1.0420                 1.6603                 1.4866
 IR Inten    --      0.7238                 0.7680                 1.5365

                     46                     47                     48
                      A                      A                      A
 Frequencies --   1248.2237              1257.8206              1326.5688
 Red. masses --      2.4645                 1.2592                 1.3426
 Frc consts  --      2.2624                 1.1738                 1.3921
 IR Inten    --      2.4693                 6.6509                 5.7260

                     49                     50                     51
                      A                      A                      A
 Frequencies --   1352.6547              1354.1317              1379.6996
 Red. masses --      3.1899                 1.4434                 1.5322
 Frc consts  --      3.4388                 1.5594                 1.7184
 IR Inten    --      0.3038                 0.4067                 1.0279

                     52                     53                     54
                      A                      A                      A
 Frequencies --   1399.2953              1409.3382              1412.4337
 Red. masses --      1.3207                 1.2997                 1.2048
 Frc consts  --      1.5236                 1.5210                 1.4162
 IR Inten    --      8.2715                10.7262                 8.8652

                     55                     56                     57
                      A                      A                      A
 Frequencies --   1426.7759              1443.3907              1460.7065
 Red. masses --      1.2633                 1.2455                 2.3880
 Frc consts  --      1.5152                 1.5289                 3.0020
 IR Inten    --     13.7167                 0.1676                 2.2772

                     58                     59                     60
                      A                      A                      A
 Frequencies --   1501.9057              1513.6654              1517.3991
 Red. masses --      1.0852                 1.1072                 1.0491
 Frc consts  --      1.4423                 1.4946                 1.4231
 IR Inten    --      0.8406                 5.0616                 5.2808

                     61                     62                     63
                      A                      A                      A
 Frequencies --   1523.3963              1524.1643              1538.8230
 Red. masses --      1.1016                 1.0949                 1.2029
 Frc consts  --      1.5063                 1.4987                 1.6783
 IR Inten    --      8.7906                 9.5262                27.3632

                     64                     65                     66
                      A                      A                      A
 Frequencies --   1558.0558              1566.2704              1631.9456
 Red. masses --      1.0922                 2.4476                 5.4965
 Frc consts  --      1.5621                 3.5377                 8.6247
 IR Inten    --      6.7350                18.8275                 0.7675

                     67                     68                     69
                      A                      A                      A
 Frequencies --   1676.3275              2967.2806              3019.4627
 Red. masses --      5.8177                 1.0718                 1.0651
 Frc consts  --      9.6320                 5.5602                 5.7216
 IR Inten    --      0.9845                30.7699                48.1042

                     70                     71                     72
                      A                      A                      A
 Frequencies --   3038.3200              3042.1412              3045.7298
 Red. masses --      1.0837                 1.0622                 1.0391
 Frc consts  --      5.8944                 5.7918                 5.6792
 IR Inten    --     27.9329                57.7812                25.8425

                     73                     74                     75
                      A                      A                      A
 Frequencies --   3056.4290              3079.0237              3091.0576
 Red. masses --      1.0646                 1.0978                 1.1055
 Frc consts  --      5.8597                 6.1322                 6.2234
 IR Inten    --     67.3119                56.5860                56.6065

                     76                     77                     78
                      A                      A                      A
 Frequencies --   3097.8585              3102.7311              3128.7326
 Red. masses --      1.1040                 1.0978                 1.1025
 Frc consts  --      6.2420                 6.2266                 6.3584
 IR Inten    --     22.7744                19.3196                15.8125

                     79                     80                     81
                      A                      A                      A
 Frequencies --   3174.0238              3178.4650              3190.9667
 Red. masses --      1.0866                 1.0871                 1.0939
 Frc consts  --      6.4499                 6.4706                 6.5626
 IR Inten    --     11.4117                 9.0928                29.0421

                     82                     83                     84
                      A                      A                      A
 Frequencies --   3195.7404              3495.5143              3741.8475
 Red. masses --      1.0945                 1.0727                 1.0663
 Frc consts  --      6.5859                 7.7222                 8.7962
 IR Inten    --      7.9949                 5.3231               126.2590

 - Thermochemistry -
 -------------------
 Temperature   298.150 Kelvin.  Pressure   1.00000 Atm.
 Atom     1 has atomic number  6 and mass  12.00000

 Molecular mass:   179.13101 amu.
 Principal axes and moments of inertia in atomic units:
                           1         2         3
     Eigenvalues --  1509.963523198.253073930.90528
           X            0.99978   0.01930  -0.00874
           Y           -0.01921   0.99976   0.01054
           Z            0.00894  -0.01037   0.99991
 This molecule is an asymmetric top.
 Rotational symmetry number  1.
 Warning -- assumption of classical behavior for rotation
           may cause significant error
 Rotational temperatures (Kelvin)      0.05736     0.02708     0.02203
 Rotational constants (GHZ):           1.19522     0.56429     0.45912
 Zero-point vibrational energy     697371.9 (Joules/Mol)
                                  166.67587 (Kcal/Mol)
 Warning -- explicit consideration of  19 degrees of freedom as
           vibrations may cause significant error
 Vibrational temperatures:     37.85    52.90    76.62    81.42   154.75
          (Kelvin)            189.91   260.43   299.34   384.07   432.97
                              449.85   499.23   529.98   563.09   604.63
                              636.29   696.83   770.15   836.68   949.91
                             1032.62  1050.88  1112.98  1173.99  1200.21
                             1207.11  1241.81  1288.25  1319.31  1387.47
                             1395.55  1412.27  1462.28  1502.58  1509.95
                             1539.06  1550.02  1562.39  1634.37  1659.09
                             1682.67  1755.54  1756.61  1764.28  1783.31
                             1795.92  1809.72  1908.64  1946.17  1948.29
                             1985.08  2013.27  2027.72  2032.18  2052.81
                             2076.72  2101.63  2160.91  2177.83  2183.20
                             2191.83  2192.93  2214.02  2241.69  2253.51
                             2348.01  2411.86  4269.25  4344.33  4371.46
                             4376.96  4382.13  4397.52  4430.03  4447.34
                             4457.13  4464.14  4501.55  4566.71  4573.10
                             4591.09  4597.96  5029.27  5383.68

 Zero-point correction=                           0.265615 (Hartree/Particle)
 Thermal correction to Energy=                    0.279224
 Thermal correction to Enthalpy=                  0.280168
 Thermal correction to Gibbs Free Energy=         0.223718
 Sum of electronic and zero-point Energies=           -559.157414
 Sum of electronic and thermal Energies=              -559.143806
 Sum of electronic and thermal Enthalpies=            -559.142862
 Sum of electronic and thermal Free Energies=         -559.199311

                     E (Thermal)             CV                S
                      KCal/Mol        Cal/Mol-Kelvin    Cal/Mol-Kelvin
 Total                  175.215             50.613            118.808
 Electronic               0.000              0.000              0.000
 Translational            0.889              2.981             41.456
 Rotational               0.889              2.981             31.318
 Vibrational            173.438             44.651             46.034
 Vibration     1          0.593              1.985              6.090
 Vibration     2          0.594              1.982              5.426
 Vibration     3          0.596              1.976              4.693
 Vibration     4          0.596              1.975              4.573
 Vibration     5          0.606              1.943              3.313
 Vibration     6          0.612              1.921              2.917
 Vibration     7          0.630              1.866              2.318
 Vibration     8          0.641              1.828              2.061
 Vibration     9          0.672              1.734              1.616
 Vibration    10          0.693              1.672              1.412
 Vibration    11          0.701              1.650              1.348
 Vibration    12          0.725              1.581              1.180
 Vibration    13          0.741              1.537              1.087
 Vibration    14          0.759              1.489              0.995
 Vibration    15          0.783              1.426              0.891
 Vibration    16          0.802              1.378              0.820
 Vibration    17          0.840              1.285              0.699
 Vibration    18          0.890              1.172              0.576
 Vibration    19          0.938              1.071              0.483

 Optimization completed.
    -- Stationary point found.
 Normal termination of Gaussian 16 at Wed Dec  9 23:54:26 2020.

 ----------------------------------------------------------------------
 # B3LYP/6-311++G(d,p) empiricaldispersion=gd3bj scf=xqc pop=npa geom=c
 heck
 ----------------------------------------------------------------------

 --------------------------------------
 CID_22723195_JID_3544_Energie_neutraal
 --------------------------------------
 Structure from the checkpoint file:  "JID_3544.chk"
 Charge =  0 Multiplicity = 1

 SCF Done:  E(RB3LYP) =  -559.588594937     A.U. after   14 cycles
 Normal termination of Gaussian 16 at Wed Dec  9 23:58:28 2020.

 ----------------------------------------------------------------------
 # B3LYP/6-311++G(d,p) empiricaldispersion=gd3bj scf=xqc pop=npa geom=c
 heck
 ----------------------------------------------------------------------

 ------------------------------------
 CID_22723195_JID_3544_Energie_kation
 ------------------------------------
 Structure from the checkpoint file:  "JID_3544.chk"
 Charge =  1 Multiplicity = 2

 SCF Done:  E(UB3LYP) =  -559.294428207     A.U. after   23 cycles
 Normal termination of Gaussian 16 at Thu Dec 10 00:07:52 2020.
 Gaussian 16:  ES64L-G16RevA.03 25-Dec-2016

 ----------------------------------------------------------------------
 # B3LYP/6-311++G(d,p) empiricaldispersion=gd3bj scf=xqc pop=npa geom=c
 heck
 ----------------------------------------------------------------------

 -----------------------------------
 CID_22723195_JID_3544_Energie_anion
 -----------------------------------
 Structure from the checkpoint file:  "JID_3544.chk"
 Charge = -1 Multiplicity = 2

                         Standard orientation:
 ---------------------------------------------------------------------
 Center     Atomic      Atomic             Coordinates (Angstroms)
 Number     Number       Type             X           Y           Z
 ---------------------------------------------------------------------
      1          6           0        3.796518    1.065753   -0.116832
      2          6           0        2.574851    0.186557   -0.015331
      3          6           0        2.091487   -0.516891   -1.122371
      4          6           0        0.934009   -1.292532   -1.035911
      5          6           0        0.219286   -1.393740    0.161859
      6          6           0        0.713666   -0.702470    1.278771
      7          6           0        1.868955    0.072027    1.191552
      8          6           0       -1.098649   -2.132055    0.235808
      9          6           0       -2.269555   -1.148809    0.400365
     10          7           0       -2.361259   -0.249245   -0.748540
     11          6           0       -2.878284    1.083317   -0.443720
     12          6           0       -1.929199    1.959516    0.389472
     13          8           0       -0.657020    2.090464   -0.238757
     14          1           0        4.426194    0.778138   -0.964504
     15          1           0        3.513251    2.116677   -0.258617
     16          1           0        4.404918    1.012948    0.792469
     17          1           0        2.621264   -0.450598   -2.069317
     18          1           0        0.574020   -1.819897   -1.915924
     19          1           0        0.184084   -0.769007    2.226306
     20          1           0        2.228393    0.599612    2.071844
     21          1           0       -1.248210   -2.720603   -0.676550
     22          1           0       -1.103844   -2.831751    1.080423
     23          1           0       -3.209985   -1.708434    0.497600
     24          1           0       -2.126851   -0.612572    1.354733
     25          1           0       -1.435825   -0.120827   -1.153577
     26          1           0       -3.067903    1.593474   -1.395859
     27          1           0       -3.844086    0.985713    0.070204
     28          1           0       -2.347787    2.968973    0.479734
     29          1           0       -1.819229    1.562178    1.409195
     30          1           0       -0.101935    1.352946    0.059713
 ---------------------------------------------------------------------

 SCF Done:  E(UB3LYP) =  -559.573811388     A.U. after   33 cycles
 SCF Done:  E(UB3LYP) =  -559.573811388     a.u. after    1 cycles

 The electronic state is 2-A.
 Alpha  occ. eigenvalues --  -19.02132 -14.19534 -10.11695 -10.09492 -10.09234
 Alpha  occ. eigenvalues --  -10.08215 -10.08022 -10.07554 -10.07427 -10.07419
 Alpha  occ. eigenvalues --  -10.07381 -10.07338 -10.06863  -0.92292  -0.80787
 Alpha  occ. eigenvalues --   -0.76398  -0.69638  -0.65163  -0.64839  -0.61780
 Alpha  occ. eigenvalues --   -0.57928  -0.52694  -0.51358  -0.50073  -0.47392
 Alpha  occ. eigenvalues --   -0.41943  -0.39832  -0.38879  -0.38017  -0.36481
 Alpha  occ. eigenvalues --   -0.35780  -0.33787  -0.33024  -0.32320  -0.32153
 Alpha  occ. eigenvalues --   -0.31315  -0.29401  -0.28859  -0.27635  -0.26863
 Alpha  occ. eigenvalues --   -0.26056  -0.24939  -0.23800  -0.23607  -0.22936
 Alpha  occ. eigenvalues --   -0.18809  -0.16037  -0.14403  -0.12593   0.04526
 Alpha virt. eigenvalues --    0.06448   0.07166   0.07424   0.07827   0.08212
 Alpha virt. eigenvalues --    0.08612   0.09061   0.09903   0.10311   0.10841
 Alpha virt. eigenvalues --    0.11445   0.11717   0.12074   0.13081   0.13267

  Beta  occ. eigenvalues --  -19.02129 -14.19531 -10.11685 -10.09485 -10.09208
  Beta  occ. eigenvalues --  -10.08161 -10.07975 -10.07546 -10.07414 -10.07406
  Beta  occ. eigenvalues --  -10.07368 -10.07309 -10.06838  -0.92285  -0.80772
  Beta  occ. eigenvalues --   -0.76329  -0.69552  -0.65116  -0.64784  -0.61742
  Beta  occ. eigenvalues --   -0.57863  -0.52642  -0.51309  -0.50027  -0.47313
  Beta  occ. eigenvalues --   -0.41924  -0.39767  -0.38847  -0.37978  -0.36443
  Beta  occ. eigenvalues --   -0.35698  -0.33746  -0.32989  -0.32234  -0.32109
  Beta  occ. eigenvalues --   -0.31272  -0.29360  -0.28816  -0.27584  -0.26825
  Beta  occ. eigenvalues --   -0.25990  -0.24883  -0.23752  -0.23557  -0.22913
  Beta  occ. eigenvalues --   -0.18795  -0.15952  -0.14176  -0.12574
  Beta virt. eigenvalues --    0.06785   0.07275   0.07597   0.07850   0.08128
  Beta virt. eigenvalues --    0.08680   0.09176   0.09600   0.10238   0.10645
  Beta virt. eigenvalues --    0.11102   0.11939   0.12017   0.12632   0.13190

 Mulliken charges and spin densities:
               1          2
     1  C    2.656015  -3.282651
     2  C    0.070624   0.342255
     3  C   -0.514166   0.029506
     4  C   -1.256046   0.808938
     5  C    0.825231  -0.165190
     6  C   -0.157004  -0.034310
     7  C   -0.665123   0.378352
     8  C    0.893845  -1.564098
     9  C    0.427322  -0.689304
    10  N   -0.136124   0.028224
    11  C   -0.458109   0.170706
    12  C    0.096161  -0.421756
    13  O   -0.301265   0.014465
    14  H   -0.289348   0.423011
    15  H    0.082903   0.092656
    16  H   -0.262197   0.406106
    17  H   -0.402932   0.582026
    18  H   -0.191825   0.347932
    19  H   -0.932391   1.111545
    20  H   -0.668799   0.862262
    21  H    0.074307   0.084457
    22  H   -0.336191   0.515808
    23  H   -0.357794   0.540463
    24  H   -0.013147   0.082827
    25  H    0.288436  -0.044023
    26  H    0.111600   0.057656
    27  H   -0.101450   0.219831
    28  H   -0.014260   0.160584
    29  H    0.009413   0.127527
    30  H    0.522313  -0.185805
 Sum of Mulliken charges =  -1.00000   1.00000

 Dipole moment (field-independent basis, Debye):
    X=             -2.5528    Y=              1.9230    Z=             -3.3726  Tot=              4.6464
 Quadrupole moment (field-independent basis, Debye-Ang):
   XX=           -148.7345   YY=           -119.9227   ZZ=           -124.7223
   XY=             -7.3138   XZ=              0.8879   YZ=              4.1322

 Summary of Natural Population Analysis:

                                       Natural Population
                Natural  -----------------------------------------------
    Atom  No    Charge         Core      Valence    Rydberg      Total
 -----------------------------------------------------------------------
      C    1   -0.29314      0.99963     2.28768    0.00583     3.29314
      C    2   -0.01216      0.99951     2.00292    0.00973     3.01216
      C    3   -0.09803      0.99951     2.08842    0.01011     3.09803
      C    4   -0.10337      0.99950     2.09409    0.00979     3.10337
      C    5   -0.02132      0.99950     2.00944    0.01238     3.02132
      C    6   -0.10620      0.99950     2.09475    0.01195     3.10620
      C    7   -0.10256      0.99951     2.09182    0.01123     3.10256
      C    8   -0.20134      0.99959     2.19148    0.01026     3.20134
      C    9   -0.08319      0.99962     2.07166    0.01191     3.08319
      N   10   -0.34643      0.99975     2.83509    0.01159     3.84643
      C   11   -0.09780      0.99963     2.08690    0.01127     3.09780
      C   12   -0.02331      0.99961     2.01121    0.01249     3.02331
      O   13   -0.37639      0.99990     3.37012    0.00638     4.37639
      H   14    0.10272      0.00000     0.39600    0.00128     0.39728
      H   15    0.10426      0.00000     0.39484    0.00090     0.39574
      H   16    0.10547      0.00000     0.39300    0.00153     0.39453
      H   17    0.10007      0.00000     0.39893    0.00100     0.39993
      H   18    0.10043      0.00000     0.39850    0.00107     0.39957
      H   19    0.10586      0.00000     0.39185    0.00229     0.39414
      H   20    0.10361      0.00000     0.39486    0.00154     0.39639
      H   21    0.09944      0.00000     0.39898    0.00157     0.40056
      H   22    0.10936      0.00000     0.38883    0.00182     0.39064
      H   23    0.09208      0.00000     0.40625    0.00167     0.40792
      H   24    0.08156      0.00000     0.41614    0.00230     0.41844
      H   25    0.17672      0.00000     0.31934    0.00394     0.32328
      H   26    0.09198      0.00000     0.40700    0.00102     0.40802
      H   27    0.09170      0.00000     0.40727    0.00103     0.40830
      H   28    0.08214      0.00000     0.41677    0.00109     0.41786
      H   29    0.07966      0.00000     0.41903    0.00131     0.42034
      H   30    0.23819      0.00000     0.25791    0.00390     0.26181
 =======================================================================
   * Total *   -0.00000     12.99477    35.84106    0.16417    49.00000

 Normal termination of Gaussian 16 at Thu Dec 10 00:21:10 2020.
