 Gaussian 16, Revision A.03,

 -----------------------------------------------------------
 # opt freq B3LYP/6-31G(d) empiricaldispersion=gd3bj scf=xqc
 -----------------------------------------------------------

 -----------------------------
 CID_89446506_JID_359_neutraal
 -----------------------------
 Symbolic Z-matrix:
 Charge =  0 Multiplicity = 1

 SCF Done:  E(RB3LYP) =  -820.059950123     A.U. after   15 cycles
 SCF Done:  E(RB3LYP) =  -820.083287828     A.U. after   13 cycles
 SCF Done:  E(RB3LYP) =  -820.084975461     A.U. after   13 cycles
 SCF Done:  E(RB3LYP) =  -820.084300772     A.U. after   12 cycles
 SCF Done:  E(RB3LYP) =  -820.084959397     A.U. after   12 cycles
 SCF Done:  E(RB3LYP) =  -820.085149098     A.U. after    9 cycles
 SCF Done:  E(RB3LYP) =  -820.085160735     A.U. after   11 cycles
 SCF Done:  E(RB3LYP) =  -820.085197378     A.U. after   11 cycles
 SCF Done:  E(RB3LYP) =  -820.085199221     A.U. after    9 cycles
 SCF Done:  E(RB3LYP) =  -820.085200252     A.U. after    9 cycles
 SCF Done:  E(RB3LYP) =  -819.978733437     A.U. after   16 cycles
 SCF Done:  E(RB3LYP) =  -820.085439002     A.U. after   13 cycles
 SCF Done:  E(RB3LYP) =  -820.085367229     A.U. after   13 cycles
 SCF Done:  E(RB3LYP) =  -820.085472005     A.U. after   12 cycles
 SCF Done:  E(RB3LYP) =  -820.085478412     A.U. after   12 cycles
 SCF Done:  E(RB3LYP) =  -820.085480540     A.U. after    9 cycles
 Optimization completed.
    -- Stationary point found.
 Normal termination of Gaussian 16 at Tue Dec  8 10:35:29 2020.

 --------------------------------------------------------------------
 #N Geom=AllCheck Guess=TCheck SCRF=Check GenChk RB3LYP/6-31G(d) Freq
 --------------------------------------------------------------------

 Structure from the checkpoint file:  "JID_359.chk"
 -----------------------------
 CID_89446506_JID_359_neutraal
 -----------------------------
 Charge =  0 Multiplicity = 1

 SCF Done:  E(RB3LYP) =  -820.085480540     A.U. after    1 cycles

  Exact polarizability: 130.719 -10.680  84.841   6.597  -2.438  61.204
 Approx polarizability: 198.507 -21.535 130.972  16.327  -4.890 106.385

                      1                      2                      3
                      A                      A                      A
 Frequencies --     45.0263               111.7211               142.2862
 Red. masses --      4.3491                 3.3967                 3.9680
 Frc consts  --      0.0052                 0.0250                 0.0473
 IR Inten    --      3.5476                 0.2760                 0.2387

                      4                      5                      6
                      A                      A                      A
 Frequencies --    216.0143               231.5052               248.7876
 Red. masses --      1.1146                 5.2888                 2.9218
 Frc consts  --      0.0306                 0.1670                 0.1066
 IR Inten    --      0.0247                 1.4953                 3.8217

                      7                      8                      9
                      A                      A                      A
 Frequencies --    282.3207               333.8753               371.1834
 Red. masses --      5.2265                 7.2445                 3.3131
 Frc consts  --      0.2454                 0.4758                 0.2689
 IR Inten    --      2.6622                 5.4541                 1.6650

                     10                     11                     12
                      A                      A                      A
 Frequencies --    419.5477               472.6729               518.5340
 Red. masses --      4.8081                 4.4662                 6.5947
 Frc consts  --      0.4986                 0.5879                 1.0447
 IR Inten    --     18.2486                 5.8675                12.0780

                     13                     14                     15
                      A                      A                      A
 Frequencies --    552.0337               556.4887               593.5574
 Red. masses --      4.5851                 3.6194                 7.0758
 Frc consts  --      0.8232                 0.6604                 1.4688
 IR Inten    --     12.5662                 4.4451                28.0852

                     16                     17                     18
                      A                      A                      A
 Frequencies --    608.4479               646.1588               662.9576
 Red. masses --      1.2409                 1.2333                 3.5241
 Frc consts  --      0.2707                 0.3034                 0.9126
 IR Inten    --     40.1030                39.7016                 7.5300

                     19                     20                     21
                      A                      A                      A
 Frequencies --    758.3845               870.8948               897.8689
 Red. masses --      5.1238                 1.4402                 3.8603
 Frc consts  --      1.7363                 0.6436                 1.8336
 IR Inten    --     29.0282                17.7957                 7.2066

                     22                     23                     24
                      A                      A                      A
 Frequencies --    930.4426               946.0706              1026.0938
 Red. masses --      1.7443                 2.0477                 1.4062
 Frc consts  --      0.8897                 1.0799                 0.8723
 IR Inten    --      3.1544                 2.3294                 5.5169

                     25                     26                     27
                      A                      A                      A
 Frequencies --   1092.0116              1104.1114              1127.6034
 Red. masses --      2.2260                 4.5461                 1.4234
 Frc consts  --      1.5640                 3.2653                 1.0663
 IR Inten    --      9.0025               138.9185                 1.3994

                     28                     29                     30
                      A                      A                      A
 Frequencies --   1135.5518              1175.4911              1248.3051
 Red. masses --      1.3257                 2.2336                 1.7600
 Frc consts  --      1.0072                 1.8184                 1.6158
 IR Inten    --     22.6930                 5.4741                20.5941

                     31                     32                     33
                      A                      A                      A
 Frequencies --   1264.3399              1323.5436              1330.9303
 Red. masses --      1.6183                 6.4887                 1.9609
 Frc consts  --      1.5242                 6.6971                 2.0465
 IR Inten    --     18.1494               158.4259                12.0213

                     34                     35                     36
                      A                      A                      A
 Frequencies --   1349.6229              1440.3255              1479.3770
 Red. masses --      1.7149                 1.2155                 1.0969
 Frc consts  --      1.8404                 1.4857                 1.4144
 IR Inten    --     13.1960                 1.5291                 4.2698

                     37                     38                     39
                      A                      A                      A
 Frequencies --   1519.2687              1525.1350              1680.6492
 Red. masses --      1.0453                 1.0446                 7.5248
 Frc consts  --      1.4215                 1.4316                12.5228
 IR Inten    --      4.8175                 8.6203                 1.9313

                     40                     41                     42
                      A                      A                      A
 Frequencies --   2230.6621              3064.8600              3068.6289
 Red. masses --      6.1586                 1.0811                 1.0392
 Frc consts  --     18.0551                 5.9830                 5.7654
 IR Inten    --      0.4274                 3.6392                19.4266

                     43                     44                     45
                      A                      A                      A
 Frequencies --   3095.1468              3137.9327              3155.0215
 Red. masses --      1.0573                 1.1014                 1.1084
 Frc consts  --      5.9677                 6.3896                 6.5008
 IR Inten    --      1.1446                11.4023                 0.0288

                     46                     47                     48
                      A                      A                      A
 Frequencies --   3163.8066              3210.0846              3495.1207
 Red. masses --      1.1033                 1.0923                 1.1574
 Frc consts  --      6.5068                 6.6316                 8.3301
 IR Inten    --      6.6255                 4.2078                81.7492

 - Thermochemistry -
 -------------------
 Temperature   298.150 Kelvin.  Pressure   1.00000 Atm.
 Atom     1 has atomic number  6 and mass  12.00000

 Molecular mass:   156.02450 amu.
 Principal axes and moments of inertia in atomic units:
                           1         2         3
     Eigenvalues --   860.754902152.306962574.71831
           X            0.99926  -0.03844   0.00192
           Y            0.03844   0.99926  -0.00106
           Z           -0.00188   0.00113   1.00000
 This molecule is an asymmetric top.
 Rotational symmetry number  1.
 Warning -- assumption of classical behavior for rotation
           may cause significant error
 Rotational temperatures (Kelvin)      0.10063     0.04024     0.03364
 Rotational constants (GHZ):           2.09670     0.83851     0.70095
 Zero-point vibrational energy     358044.7 (Joules/Mol)
                                   85.57474 (Kcal/Mol)
 Warning -- explicit consideration of  16 degrees of freedom as
           vibrations may cause significant error
 Vibrational temperatures:     64.78   160.74   204.72   310.80   333.08
          (Kelvin)            357.95   406.20   480.37   534.05   603.64
                              680.07   746.05   794.25   800.66   854.00
                              875.42   929.68   953.85  1091.15  1253.02
                             1291.83  1338.70  1361.18  1476.32  1571.16
                             1588.57  1622.37  1633.81  1691.27  1796.03
                             1819.10  1904.28  1914.91  1941.81  2072.31
                             2128.49  2185.89  2194.33  2418.08  3209.43
                             4409.65  4415.07  4453.23  4514.79  4539.37
                             4552.01  4618.60  5028.70

 Zero-point correction=                           0.136372 (Hartree/Particle)
 Thermal correction to Energy=                    0.146346
 Thermal correction to Enthalpy=                  0.147290
 Thermal correction to Gibbs Free Energy=         0.100854
 Sum of electronic and zero-point Energies=           -819.949109
 Sum of electronic and thermal Energies=              -819.939135
 Sum of electronic and thermal Enthalpies=            -819.938190
 Sum of electronic and thermal Free Energies=         -819.984627

                     E (Thermal)             CV                S
                      KCal/Mol        Cal/Mol-Kelvin    Cal/Mol-Kelvin
 Total                   91.833             37.519             97.733
 Electronic               0.000              0.000              0.000
 Translational            0.889              2.981             41.044
 Rotational               0.889              2.981             29.946
 Vibrational             90.056             31.557             26.743
 Vibration     1          0.595              1.979              5.025
 Vibration     2          0.607              1.940              3.239
 Vibration     3          0.616              1.911              2.773
 Vibration     4          0.645              1.817              1.992
 Vibration     5          0.653              1.793              1.867
 Vibration     6          0.662              1.765              1.739
 Vibration     7          0.681              1.706              1.520
 Vibration     8          0.715              1.608              1.241
 Vibration     9          0.743              1.531              1.075
 Vibration    10          0.782              1.428              0.894
 Vibration    11          0.830              1.311              0.730
 Vibration    12          0.874              1.209              0.613
 Vibration    13          0.907              1.135              0.540
 Vibration    14          0.912              1.126              0.531
 Vibration    15          0.951              1.046              0.461
 Vibration    16          0.967              1.014              0.435

                           ! Non-Optimized Parameters !
 Normal termination of Gaussian 16 at Tue Dec  8 10:40:00 2020.

 ----------------------------------------------------------------------
 # B3LYP/6-311++G(d,p) empiricaldispersion=gd3bj scf=xqc pop=npa geom=c
 heck
 ----------------------------------------------------------------------

 -------------------------------------
 CID_89446506_JID_359_Energie_neutraal
 -------------------------------------
 Structure from the checkpoint file:  "JID_359.chk"
 Charge =  0 Multiplicity = 1

 SCF Done:  E(RB3LYP) =  -820.235681750     A.U. after   16 cycles
 Normal termination of Gaussian 16 at Tue Dec  8 10:42:00 2020.

 ----------------------------------------------------------------------
 # B3LYP/6-311++G(d,p) empiricaldispersion=gd3bj scf=xqc pop=npa geom=c
 heck
 ----------------------------------------------------------------------

 -----------------------------------
 CID_89446506_JID_359_Energie_kation
 -----------------------------------
 Structure from the checkpoint file:  "JID_359.chk"
 Charge =  1 Multiplicity = 2

 SCF Done:  E(UB3LYP) =  -819.891739431     A.U. after   29 cycles
 Normal termination of Gaussian 16 at Tue Dec  8 10:48:01 2020.
 Gaussian 16:  ES64L-G16RevA.03 25-Dec-2016

 ----------------------------------------------------------------------
 # B3LYP/6-311++G(d,p) empiricaldispersion=gd3bj scf=xqc pop=npa geom=c
 heck
 ----------------------------------------------------------------------

 ----------------------------------
 CID_89446506_JID_359_Energie_anion
 ----------------------------------
 Structure from the checkpoint file:  "JID_359.chk"
 Charge = -1 Multiplicity = 2

                         Standard orientation:
 ---------------------------------------------------------------------
 Center     Atomic      Atomic             Coordinates (Angstroms)
 Number     Number       Type             X           Y           Z
 ---------------------------------------------------------------------
      1          6           0       -1.563129    2.113518    0.244051
      2          6           0       -0.754571    1.087643   -0.547400
      3          6           0        0.732863    1.192299   -0.393773
      4          6           0        1.427924    0.065841   -0.138895
      5          6           0        0.626150   -1.213100   -0.046251
      6         16           0       -1.115603   -0.637402    0.033045
      7          8           0       -1.940436   -1.342858   -0.959389
      8          8           0       -1.521840   -0.586734    1.446082
      9          6           0        2.834985    0.007732    0.037316
     10          6           0        4.031606   -0.078467    0.192318
     11          1           0       -2.635913    1.963586    0.094298
     12          1           0       -1.305486    3.122226   -0.095787
     13          1           0       -1.348244    2.031247    1.311775
     14          1           0       -1.051297    1.090732   -1.603674
     15          1           0        1.216101    2.161608   -0.470109
     16          1           0        0.835017   -1.790967    0.857548
     17          1           0        0.735429   -1.851061   -0.927916
     18          1           0        5.087290   -0.145001    0.327412
 ---------------------------------------------------------------------

 SCF Done:  E(UB3LYP) =  -820.239194111     A.U. after   27 cycles

 The electronic state is 2-A.
 Alpha  occ. eigenvalues --  -88.90792 -18.98881 -18.98703 -10.08298 -10.08134
 Alpha  occ. eigenvalues --  -10.04715 -10.03974 -10.02884 -10.01828 -10.01410
 Alpha  occ. eigenvalues --   -7.97411  -5.93687  -5.93545  -5.93478  -0.97737
 Alpha  occ. eigenvalues --   -0.87631  -0.72382  -0.65580  -0.61389  -0.57496
 Alpha  occ. eigenvalues --   -0.54511  -0.46241  -0.44374  -0.39701  -0.37130
 Alpha  occ. eigenvalues --   -0.35407  -0.34560  -0.32643  -0.31890  -0.30811
 Alpha  occ. eigenvalues --   -0.28545  -0.26421  -0.26030  -0.23519  -0.20350
 Alpha  occ. eigenvalues --   -0.19577  -0.18737  -0.17798  -0.15810  -0.13604
 Alpha  occ. eigenvalues --   -0.10502   0.05239
 Alpha virt. eigenvalues --    0.08460   0.09119   0.10693   0.11179   0.11461
 Alpha virt. eigenvalues --    0.13091   0.13209   0.14042   0.14109   0.15578
 Alpha virt. eigenvalues --    0.16130   0.17138   0.17673   0.17810   0.18323

  Beta  occ. eigenvalues --  -88.90782 -18.98879 -18.98694 -10.08340 -10.08157
  Beta  occ. eigenvalues --  -10.04639 -10.03689 -10.02870 -10.01351 -10.01166
  Beta  occ. eigenvalues --   -7.97402  -5.93681  -5.93539  -5.93447  -0.97713
  Beta  occ. eigenvalues --   -0.87619  -0.71946  -0.65297  -0.61103  -0.56972
  Beta  occ. eigenvalues --   -0.54277  -0.45682  -0.44040  -0.39378  -0.36925
  Beta  occ. eigenvalues --   -0.35215  -0.34356  -0.32483  -0.31669  -0.30665
  Beta  occ. eigenvalues --   -0.28423  -0.26200  -0.25779  -0.23274  -0.20315
  Beta  occ. eigenvalues --   -0.19436  -0.18068  -0.17020  -0.15738  -0.13454
  Beta  occ. eigenvalues --   -0.08262
  Beta virt. eigenvalues --    0.08550   0.09093   0.10674   0.10986   0.11608
  Beta virt. eigenvalues --    0.11888   0.13160   0.13348   0.14124   0.14176
  Beta virt. eigenvalues --    0.15574   0.16644   0.17160   0.17721   0.17850

 Mulliken charges and spin densities:
               1          2
     1  C    0.263983  -0.872202
     2  C   -0.657402   0.408417
     3  C   -0.413474   0.448201
     4  C   -0.014711   0.075285
     5  C   -1.215563   0.110901
     6  S    0.945280  -0.330364
     7  O   -0.227958   0.009801
     8  O   -0.279323   0.007832
     9  C    1.456198  -0.184235
    10  C   -1.204929   0.365159
    11  H   -0.123458   0.277784
    12  H   -0.207585   0.339785
    13  H    0.017911   0.161719
    14  H    0.103028   0.140232
    15  H    0.087108   0.019168
    16  H    0.178210   0.022176
    17  H    0.193151   0.010842
    18  H    0.099534  -0.010499
 Sum of Mulliken charges =  -1.00000   1.00000

 Dipole moment (field-independent basis, Debye):
    X=             -0.0831    Y=             -1.1853    Z=             -0.9603  Tot=              1.5277
 Quadrupole moment (field-independent basis, Debye-Ang):
   XX=           -109.4445   YY=            -85.4930   ZZ=            -83.3562
   XY=             -2.1773   XZ=             -0.5802   YZ=             -2.1111

 Summary of Natural Population Analysis:

                                       Natural Population
                Natural  -----------------------------------------------
    Atom  No    Charge         Core      Valence    Rydberg      Total
 -----------------------------------------------------------------------
      C    1   -0.28847      0.99964     2.28153    0.00731     3.28847
      C    2   -0.20477      0.99956     2.19003    0.01518     3.20477
      C    3    0.00039      0.99947     1.98857    0.01157     2.99961
      C    4   -0.03959      0.99942     2.03030    0.00987     3.03959
      C    5   -0.27523      0.99956     2.26799    0.00768     3.27523
      S    6    1.01270      4.99929     1.89247    0.09554     6.98730
      O    7   -0.47526      0.99991     3.46974    0.00561     4.47526
      O    8   -0.47257      0.99991     3.46650    0.00616     4.47257
      C    9   -0.00658      0.99937     1.99911    0.00810     3.00658
      C   10   -0.09580      0.99929     2.09163    0.00488     3.09580
      H   11    0.10122      0.00000     0.39719    0.00159     0.39878
      H   12    0.10038      0.00000     0.39847    0.00115     0.39962
      H   13    0.11001      0.00000     0.38871    0.00128     0.38999
      H   14    0.11443      0.00000     0.38409    0.00148     0.38557
      H   15    0.09546      0.00000     0.40363    0.00091     0.40454
      H   16    0.11281      0.00000     0.38582    0.00137     0.38719
      H   17    0.11116      0.00000     0.38762    0.00123     0.38884
      H   18    0.09972      0.00000     0.39923    0.00104     0.40028
 =======================================================================
   * Total *   -0.00000     13.99544    26.82260    0.18196    41.00000

 Normal termination of Gaussian 16 at Tue Dec  8 10:53:35 2020.
