 Gaussian 16, Revision A.03,

 -----------------------------------------------------------
 # opt freq B3LYP/6-31G(d) empiricaldispersion=gd3bj scf=xqc
 -----------------------------------------------------------

 -------------------------------
 CID_111118412_JID_8616_neutraal
 -------------------------------
 Symbolic Z-matrix:
 Charge =  0 Multiplicity = 1

 SCF Done:  E(RB3LYP) =  -1149.52355307     A.U. after   14 cycles
 SCF Done:  E(RB3LYP) =  -1149.53111089     A.U. after   12 cycles
 SCF Done:  E(RB3LYP) =  -1149.53213908     A.U. after   12 cycles
 SCF Done:  E(RB3LYP) =  -1149.53158158     A.U. after   12 cycles
 SCF Done:  E(RB3LYP) =  -1149.53276354     A.U. after   12 cycles
 SCF Done:  E(RB3LYP) =  -1149.53304483     A.U. after   12 cycles
 SCF Done:  E(RB3LYP) =  -1149.53323898     A.U. after   11 cycles
 SCF Done:  E(RB3LYP) =  -1149.53331413     A.U. after   11 cycles
 SCF Done:  E(RB3LYP) =  -1149.53335439     A.U. after   10 cycles
 SCF Done:  E(RB3LYP) =  -1149.53336203     A.U. after    9 cycles
 SCF Done:  E(RB3LYP) =  -1149.53338332     A.U. after    9 cycles
 SCF Done:  E(RB3LYP) =  -1149.53338428     A.U. after    9 cycles
 SCF Done:  E(RB3LYP) =  -1149.53338441     A.U. after    7 cycles
 SCF Done:  E(RB3LYP) =  -1149.53338445     A.U. after    7 cycles
 SCF Done:  E(RB3LYP) =  -1149.53338445     A.U. after    6 cycles
 Optimization completed.
    -- Stationary point found.
 Normal termination of Gaussian 16 at Fri Dec 11 21:19:25 2020.

 --------------------------------------------------------------------
 #N Geom=AllCheck Guess=TCheck SCRF=Check GenChk RB3LYP/6-31G(d) Freq
 --------------------------------------------------------------------

 Structure from the checkpoint file:  "JID_8616.chk"
 -------------------------------
 CID_111118412_JID_8616_neutraal
 -------------------------------
 Charge =  0 Multiplicity = 1

 SCF Done:  E(RB3LYP) =  -1149.53338445     A.U. after    1 cycles

  Exact polarizability: 233.603   1.501 175.992 -14.178  -7.639 127.595
 Approx polarizability: 301.247   0.574 272.738 -32.459 -19.844 197.391

                      1                      2                      3
                      A                      A                      A
 Frequencies --     15.3094                17.0815                34.7013
 Red. masses --      4.3960                 4.3580                 4.1233
 Frc consts  --      0.0006                 0.0007                 0.0029
 IR Inten    --      0.4843                 0.4997                 0.3019

                      4                      5                      6
                      A                      A                      A
 Frequencies --     65.4518                73.8064                97.7269
 Red. masses --      3.4585                 2.9994                 4.2305
 Frc consts  --      0.0087                 0.0096                 0.0238
 IR Inten    --      2.0412                 2.1384                 0.3546

                      7                      8                      9
                      A                      A                      A
 Frequencies --    111.3070               130.5054               132.8888
 Red. masses --      3.6298                 2.2407                 2.6563
 Frc consts  --      0.0265                 0.0225                 0.0276
 IR Inten    --      1.9252                 0.7516                 0.6692

                     10                     11                     12
                      A                      A                      A
 Frequencies --    164.5768               183.6105               204.2290
 Red. masses --      1.2434                 4.0591                 2.8212
 Frc consts  --      0.0198                 0.0806                 0.0693
 IR Inten    --      0.5018                 0.4257                 1.1834

                     13                     14                     15
                      A                      A                      A
 Frequencies --    230.6592               243.9912               256.0682
 Red. masses --      3.1530                 2.3519                 3.3173
 Frc consts  --      0.0988                 0.0825                 0.1282
 IR Inten    --      3.2038                 2.8484                 2.6828

                     16                     17                     18
                      A                      A                      A
 Frequencies --    268.5425               272.9176               281.8016
 Red. masses --      1.2891                 1.3806                 2.4470
 Frc consts  --      0.0548                 0.0606                 0.1145
 IR Inten    --     10.3354                61.3830                17.6389

                     19                     20                     21
                      A                      A                      A
 Frequencies --    310.8753               365.3597               388.0245
 Red. masses --      2.2286                 3.2995                 3.1162
 Frc consts  --      0.1269                 0.2595                 0.2764
 IR Inten    --      5.1343                 0.6472                 1.3155

                     22                     23                     24
                      A                      A                      A
 Frequencies --    409.1852               416.3943               433.6839
 Red. masses --      5.3314                 3.8735                 3.0720
 Frc consts  --      0.5259                 0.3957                 0.3404
 IR Inten    --      4.2375                 3.2558                 7.2530

                     25                     26                     27
                      A                      A                      A
 Frequencies --    471.4307               478.8661               549.7977
 Red. masses --      3.6635                 3.7735                 4.1291
 Frc consts  --      0.4797                 0.5098                 0.7354
 IR Inten    --      9.6904                11.7327                 4.7209

                     28                     29                     30
                      A                      A                      A
 Frequencies --    574.1589               612.4050               634.8719
 Red. masses --      3.6362                 2.4415                 4.0425
 Frc consts  --      0.7063                 0.5395                 0.9600
 IR Inten    --      5.0010                10.2851                 1.0212

                     31                     32                     33
                      A                      A                      A
 Frequencies --    698.7906               704.6943               711.7213
 Red. masses --      5.4375                 1.8012                 3.5184
 Frc consts  --      1.5644                 0.5270                 1.0501
 IR Inten    --      9.8839                35.0326                 0.8005

                     34                     35                     36
                      A                      A                      A
 Frequencies --    733.5686               749.3922               762.0304
 Red. masses --      3.1802                 1.8773                 1.6335
 Frc consts  --      1.0083                 0.6212                 0.5589
 IR Inten    --      5.3879                30.0875                 5.8915

                     37                     38                     39
                      A                      A                      A
 Frequencies --    780.4517               824.1469               884.4576
 Red. masses --      2.9982                 1.5139                 1.9969
 Frc consts  --      1.0760                 0.6058                 0.9204
 IR Inten    --     44.6010                30.5116                 2.3339

                     40                     41                     42
                      A                      A                      A
 Frequencies --    888.0523               918.2665               929.3405
 Red. masses --      1.9689                 2.1895                 2.5177
 Frc consts  --      0.9149                 1.0878                 1.2812
 IR Inten    --      1.3137                13.0234                29.5868

                     43                     44                     45
                      A                      A                      A
 Frequencies --    935.5468               940.9109               944.9652
 Red. masses --      1.7582                 2.4420                 1.3981
 Frc consts  --      0.9067                 1.2738                 0.7356
 IR Inten    --      1.5599                 1.0236                 5.6194

                     46                     47                     48
                      A                      A                      A
 Frequencies --    980.9595               992.4827              1006.2047
 Red. masses --      2.7760                 1.1765                 1.9913
 Frc consts  --      1.5739                 0.6828                 1.1878
 IR Inten    --     18.0838                 9.0392                 5.9706

                     49                     50                     51
                      A                      A                      A
 Frequencies --   1011.6598              1030.6397              1066.3123
 Red. masses --      1.3317                 1.4197                 1.9283
 Frc consts  --      0.8030                 0.8885                 1.2918
 IR Inten    --     18.1979                13.6652                29.2481

                     52                     53                     54
                      A                      A                      A
 Frequencies --   1068.9844              1105.4491              1109.6919
 Red. masses --      3.3031                 3.1724                 1.8863
 Frc consts  --      2.2239                 2.2841                 1.3686
 IR Inten    --      5.3548                78.7926                44.3662

                     55                     56                     57
                      A                      A                      A
 Frequencies --   1152.6189              1173.5444              1184.8502
 Red. masses --      2.8133                 2.8193                 1.5930
 Frc consts  --      2.2021                 2.2877                 1.3176
 IR Inten    --     11.9719                43.4626                 9.4339

                     58                     59                     60
                      A                      A                      A
 Frequencies --   1186.7452              1187.9285              1205.0437
 Red. masses --      1.3345                 1.8705                 1.3773
 Frc consts  --      1.1073                 1.5552                 1.1784
 IR Inten    --      4.7572                22.7970                 2.2545

                     61                     62                     63
                      A                      A                      A
 Frequencies --   1220.6384              1237.3216              1239.3832
 Red. masses --      1.3763                 1.6921                 1.4204
 Frc consts  --      1.2082                 1.5263                 1.2855
 IR Inten    --      5.5341                 4.8964                 3.9101

                     64                     65                     66
                      A                      A                      A
 Frequencies --   1264.3192              1276.9370              1279.1148
 Red. masses --      1.3033                 1.2726                 1.6138
 Frc consts  --      1.2275                 1.2226                 1.5556
 IR Inten    --     13.9780                30.7465                 8.7363

                     67                     68                     69
                      A                      A                      A
 Frequencies --   1283.2476              1296.7379              1307.6735
 Red. masses --      1.4650                 3.5939                 1.5467
 Frc consts  --      1.4214                 3.5606                 1.5584
 IR Inten    --     14.7371               117.7769                52.0653

                     70                     71                     72
                      A                      A                      A
 Frequencies --   1325.8732              1355.7871              1376.3671
 Red. masses --      1.4840                 3.8847                 1.1791
 Frc consts  --      1.5371                 4.2072                 1.3161
 IR Inten    --     58.2936                17.8645                 9.7662

                     73                     74                     75
                      A                      A                      A
 Frequencies --   1387.7767              1406.0183              1418.2883
 Red. masses --      1.3916                 1.8101                 1.8046
 Frc consts  --      1.5791                 2.1083                 2.1388
 IR Inten    --      9.8423                47.0796                 7.0575

                     76                     77                     78
                      A                      A                      A
 Frequencies --   1451.2618              1491.8477              1493.6673
 Red. masses --      2.3025                 1.1087                 1.0607
 Frc consts  --      2.8572                 1.4539                 1.3943
 IR Inten    --     23.8330                16.5304                 4.0191

                     79                     80                     81
                      A                      A                      A
 Frequencies --   1498.1998              1506.1253              1514.9441
 Red. masses --      1.2761                 1.1532                 1.0832
 Frc consts  --      1.6876                 1.5412                 1.4647
 IR Inten    --     40.1981                18.2724                 7.2975

                     82                     83                     84
                      A                      A                      A
 Frequencies --   1518.7585              1521.4405              1524.1886
 Red. masses --      1.1947                 1.0482                 1.0552
 Frc consts  --      1.6236                 1.4295                 1.4443
 IR Inten    --     45.3971                 5.4831                 9.8791

                     85                     86                     87
                      A                      A                      A
 Frequencies --   1532.4064              1536.8502              1544.3567
 Red. masses --      1.2770                 1.1279                 1.6881
 Frc consts  --      1.7668                 1.5696                 2.3722
 IR Inten    --     85.7324                 2.8365                33.9248

                     88                     89                     90
                      A                      A                      A
 Frequencies --   1551.8660              1627.5221              1659.5699
 Red. masses --      1.1257                 6.1169                 5.8649
 Frc consts  --      1.5974                 9.5463                 9.5170
 IR Inten    --      2.2291                 7.3852                19.8769

                     91                     92                     93
                      A                      A                      A
 Frequencies --   2963.3050              3025.9644              3028.2377
 Red. masses --      1.0718                 1.0871                 1.0348
 Frc consts  --      5.5452                 5.8645                 5.5908
 IR Inten    --     60.7762                27.5495                60.9671

                     94                     95                     96
                      A                      A                      A
 Frequencies --   3033.4979              3061.2886              3066.9985
 Red. masses --      1.0674                 1.0589                 1.0640
 Frc consts  --      5.7871                 5.8468                 5.8968
 IR Inten    --     53.9826                34.8771                38.3278

                     97                     98                     99
                      A                      A                      A
 Frequencies --   3072.3014              3082.6605              3088.4391
 Red. masses --      1.0300                 1.0603                 1.1066
 Frc consts  --      5.7280                 5.9367                 6.2188
 IR Inten    --     33.5067                18.3221                39.0401

                    100                    101                    102
                      A                      A                      A
 Frequencies --   3094.1915              3110.4694              3122.8414
 Red. masses --      1.0969                 1.1041                 1.1068
 Frc consts  --      6.1875                 6.2936                 6.3592
 IR Inten    --     23.6148                20.9634                26.6335

                    103                    104                    105
                      A                      A                      A
 Frequencies --   3141.8548              3155.1503              3161.7355
 Red. masses --      1.1066                 1.1059                 1.1000
 Frc consts  --      6.4361                 6.4862                 6.4787
 IR Inten    --     49.8628                10.0886                23.2643

                    106                    107                    108
                      A                      A                      A
 Frequencies --   3178.4165              3181.3180              3218.7093
 Red. masses --      1.1059                 1.0892                 1.0904
 Frc consts  --      6.5827                 6.4949                 6.6559
 IR Inten    --      4.7859                14.9050                 0.7361

                    109                    110                    111
                      A                      A                      A
 Frequencies --   3227.1908              3506.8370              3735.2061
 Red. masses --      1.0909                 1.0738                 1.0660
 Frc consts  --      6.6941                 7.7803                 8.7630
 IR Inten    --     13.4741                 0.4451                 3.7888

 - Thermochemistry -
 -------------------
 Temperature   298.150 Kelvin.  Pressure   1.00000 Atm.
 Atom     1 has atomic number  6 and mass  12.00000

 Molecular mass:   267.12930 amu.
 Principal axes and moments of inertia in atomic units:
                           1         2         3
     Eigenvalues --  2274.10198********************
           X            0.99998  -0.00154   0.00669
           Y            0.00141   0.99979   0.02022
           Z           -0.00672  -0.02021   0.99977
 This molecule is an asymmetric top.
 Rotational symmetry number  1.
 Warning -- assumption of classical behavior for rotation
           may cause significant error
 Rotational temperatures (Kelvin)      0.03809     0.00692     0.00636
 Rotational constants (GHZ):           0.79361     0.14409     0.13244
 Zero-point vibrational energy     874498.8 (Joules/Mol)
                                  209.01023 (Kcal/Mol)
 Warning -- explicit consideration of  29 degrees of freedom as
           vibrations may cause significant error
 Vibrational temperatures:     22.03    24.58    49.93    94.17   106.19
          (Kelvin)            140.61   160.15   187.77   191.20   236.79
                              264.17   293.84   331.87   351.05   368.43
                              386.37   392.67   405.45   447.28   525.67
                              558.28   588.73   599.10   623.97   678.28
                              688.98   791.04   826.09   881.11   913.44
                             1005.40  1013.90  1024.01  1055.44  1078.21
                             1096.39  1122.90  1185.76  1272.54  1277.71
                             1321.18  1337.11  1346.04  1353.76  1359.59
                             1411.38  1427.96  1447.70  1455.55  1482.86
                             1534.19  1538.03  1590.49  1596.60  1658.36
                             1688.47  1704.74  1707.46  1709.16  1733.79
                             1756.23  1780.23  1783.20  1819.07  1837.23
                             1840.36  1846.31  1865.72  1881.45  1907.64
                             1950.68  1980.29  1996.70  2022.95  2040.60
                             2088.04  2146.44  2149.05  2155.58  2166.98
                             2179.67  2185.15  2189.01  2192.97  2204.79
                             2211.18  2221.98  2232.79  2341.64  2387.75
                             4263.53  4353.69  4356.96  4364.53  4404.51
                             4412.73  4420.36  4435.26  4443.58  4451.85
                             4475.27  4493.07  4520.43  4539.56  4549.03
                             4573.03  4577.21  4631.00  4643.21  5045.56
                             5374.13

 Zero-point correction=                           0.333079 (Hartree/Particle)
 Thermal correction to Energy=                    0.352433
 Thermal correction to Enthalpy=                  0.353377
 Thermal correction to Gibbs Free Energy=         0.282844
 Sum of electronic and zero-point Energies=          -1149.200305
 Sum of electronic and thermal Energies=             -1149.180951
 Sum of electronic and thermal Enthalpies=           -1149.180007
 Sum of electronic and thermal Free Energies=        -1149.250541

                     E (Thermal)             CV                S
                      KCal/Mol        Cal/Mol-Kelvin    Cal/Mol-Kelvin
 Total                  221.155             72.248            148.451
 Electronic               0.000              0.000              0.000
 Translational            0.889              2.981             42.647
 Rotational               0.889              2.981             34.317
 Vibrational            219.378             66.286             71.487
 Vibration     1          0.593              1.986              7.165
 Vibration     2          0.593              1.986              6.947
 Vibration     3          0.594              1.983              5.541
 Vibration     4          0.597              1.971              4.286
 Vibration     5          0.599              1.966              4.049
 Vibration     6          0.603              1.951              3.499
 Vibration     7          0.607              1.940              3.246
 Vibration     8          0.612              1.923              2.939
 Vibration     9          0.613              1.920              2.904
 Vibration    10          0.623              1.886              2.497
 Vibration    11          0.631              1.862              2.291
 Vibration    12          0.640              1.834              2.095
 Vibration    13          0.652              1.794              1.874
 Vibration    14          0.659              1.773              1.774
 Vibration    15          0.666              1.753              1.688
 Vibration    16          0.673              1.731              1.606
 Vibration    17          0.676              1.723              1.578
 Vibration    18          0.681              1.707              1.523
 Vibration    19          0.700              1.653              1.358
 Vibration    20          0.739              1.544              1.099
 Vibration    21          0.756              1.496              1.008
 Vibration    22          0.774              1.450              0.929
 Vibration    23          0.780              1.435              0.904
 Vibration    24          0.794              1.397              0.847
 Vibration    25          0.828              1.313              0.734
 Vibration    26          0.835              1.297              0.713
 Vibration    27          0.905              1.140              0.545
 Vibration    28          0.930              1.087              0.496
 Vibration    29          0.972              1.006              0.429

 Optimization completed.
    -- Stationary point found.
 Normal termination of Gaussian 16 at Fri Dec 11 21:34:36 2020.

 ----------------------------------------------------------------------
 # B3LYP/6-311++G(d,p) empiricaldispersion=gd3bj scf=xqc pop=npa geom=c
 heck
 ----------------------------------------------------------------------

 ---------------------------------------
 CID_111118412_JID_8616_Energie_neutraal
 ---------------------------------------
 Structure from the checkpoint file:  "JID_8616.chk"
 Charge =  0 Multiplicity = 1

 SCF Done:  E(RB3LYP) =  -1149.77745616     A.U. after   15 cycles
 Normal termination of Gaussian 16 at Fri Dec 11 21:41:11 2020.

 ----------------------------------------------------------------------
 # B3LYP/6-311++G(d,p) empiricaldispersion=gd3bj scf=xqc pop=npa geom=c
 heck
 ----------------------------------------------------------------------

 -------------------------------------
 CID_111118412_JID_8616_Energie_kation
 -------------------------------------
 Structure from the checkpoint file:  "JID_8616.chk"
 Charge =  1 Multiplicity = 2

 SCF Done:  E(UB3LYP) =  -1149.50373160     A.U. after   29 cycles
 Normal termination of Gaussian 16 at Fri Dec 11 21:58:19 2020.
 Gaussian 16:  ES64L-G16RevA.03 25-Dec-2016

 ----------------------------------------------------------------------
 # B3LYP/6-311++G(d,p) empiricaldispersion=gd3bj scf=xqc pop=npa geom=c
 heck
 ----------------------------------------------------------------------

 ------------------------------------
 CID_111118412_JID_8616_Energie_anion
 ------------------------------------
 Structure from the checkpoint file:  "JID_8616.chk"
 Charge = -1 Multiplicity = 2

                         Standard orientation:
 ---------------------------------------------------------------------
 Center     Atomic      Atomic             Coordinates (Angstroms)
 Number     Number       Type             X           Y           Z
 ---------------------------------------------------------------------
      1          6           0       -4.635415    2.375754    0.377503
      2          8           0       -4.134248    1.050616    0.426717
      3          6           0       -2.861887    0.826249   -0.007672
      4          6           0       -2.380327   -0.499172    0.098852
      5          6           0       -1.080205   -0.783497   -0.315870
      6          6           0       -0.235823    0.209181   -0.832182
      7          6           0       -0.731393    1.507056   -0.933975
      8          6           0       -2.033922    1.819124   -0.536580
      9          6           0        1.166732   -0.134538   -1.276937
     10          7           0        1.839539   -0.961680   -0.276726
     11          6           0        3.235715   -1.275359   -0.553609
     12          6           0        4.288027   -0.307262   -0.004601
     13          6           0        4.425231   -0.170488    1.541269
     14          6           0        4.689152    1.348265    1.355534
     15          6           0        4.076013    1.236320   -0.066689
     16          8           0        5.506766   -0.720032   -0.620747
     17         16           0       -3.355609   -1.800656    0.835980
     18          6           0       -4.793949   -1.868922   -0.296241
     19          1           0       -5.643587    2.328118    0.791903
     20          1           0       -4.681902    2.751144   -0.653158
     21          1           0       -4.024383    3.057801    0.982439
     22          1           0       -0.709432   -1.799303   -0.228404
     23          1           0       -0.097303    2.295708   -1.331900
     24          1           0       -2.385806    2.839854   -0.627387
     25          1           0        1.134698   -0.720836   -2.206694
     26          1           0        1.698232    0.800128   -1.528508
     27          1           0        1.721924   -0.557783    0.649559
     28          1           0        3.476640   -2.268285   -0.149423
     29          1           0        3.364831   -1.342047   -1.639558
     30          1           0        3.477450   -0.354498    2.060088
     31          1           0        5.200456   -0.789132    2.005466
     32          1           0        5.757700    1.589825    1.337799
     33          1           0        4.201046    2.029920    2.057404
     34          1           0        4.570118    1.751821   -0.896109
     35          1           0        3.017001    1.506582   -0.057058
     36          1           0        6.234421   -0.216885   -0.222969
     37          1           0       -5.346057   -0.928890   -0.269689
     38          1           0       -4.469701   -2.090487   -1.316033
     39          1           0       -5.431202   -2.681443    0.063068
 ---------------------------------------------------------------------

 SCF Done:  E(UB3LYP) =  -1149.76833329     A.U. after   33 cycles
 SCF Done:  E(UB3LYP) =  -1149.76833329     a.u. after    1 cycles

 The electronic state is 2-A.
 Alpha  occ. eigenvalues --  -88.75876 -19.07217 -19.03888 -14.21650 -10.15575
 Alpha  occ. eigenvalues --  -10.14288 -10.13517 -10.11741 -10.11638 -10.10790
 Alpha  occ. eigenvalues --  -10.10733 -10.09395 -10.09332 -10.09201 -10.09077
 Alpha  occ. eigenvalues --  -10.08498 -10.08478 -10.08136  -7.84461  -5.80877
 Alpha  occ. eigenvalues --   -5.80501  -5.79803  -0.98936  -0.94401  -0.82831
 Alpha  occ. eigenvalues --   -0.77918  -0.74980  -0.71565  -0.68400  -0.65685
 Alpha  occ. eigenvalues --   -0.64206  -0.61464  -0.58360  -0.57006  -0.56442
 Alpha  occ. eigenvalues --   -0.53211  -0.51747  -0.48911  -0.47273  -0.44882
 Alpha  occ. eigenvalues --   -0.42875  -0.41957  -0.40675  -0.39390  -0.38763
 Alpha  occ. eigenvalues --   -0.36737  -0.36445  -0.35895  -0.35287  -0.34726
 Alpha  occ. eigenvalues --   -0.34420  -0.33753  -0.33108  -0.32601  -0.31713
 Alpha  occ. eigenvalues --   -0.30599  -0.30099  -0.29541  -0.27902  -0.27665
 Alpha  occ. eigenvalues --   -0.26358  -0.25816  -0.25148  -0.24176  -0.23752
 Alpha  occ. eigenvalues --   -0.23271  -0.22233  -0.18311  -0.18090  -0.15054
 Alpha  occ. eigenvalues --   -0.14179  -0.13260   0.03593
 Alpha virt. eigenvalues --    0.04690   0.05504   0.06472   0.06723   0.07251
 Alpha virt. eigenvalues --    0.07582   0.07890   0.08213   0.08853   0.09157
 Alpha virt. eigenvalues --    0.09479   0.09819   0.10015   0.10233   0.10462

  Beta  occ. eigenvalues --  -88.75875 -19.07208 -19.03856 -14.21646 -10.15568
  Beta  occ. eigenvalues --  -10.14288 -10.13463 -10.11740 -10.11636 -10.10774
  Beta  occ. eigenvalues --  -10.10731 -10.09391 -10.09320 -10.09199 -10.09065
  Beta  occ. eigenvalues --  -10.08479 -10.08447 -10.08122  -7.84459  -5.80875
  Beta  occ. eigenvalues --   -5.80498  -5.79802  -0.98915  -0.94338  -0.82823
  Beta  occ. eigenvalues --   -0.77904  -0.74954  -0.71547  -0.68380  -0.65661
  Beta  occ. eigenvalues --   -0.64172  -0.61418  -0.58321  -0.56979  -0.56410
  Beta  occ. eigenvalues --   -0.53156  -0.51714  -0.48888  -0.47206  -0.44844
  Beta  occ. eigenvalues --   -0.42845  -0.41927  -0.40649  -0.39366  -0.38726
  Beta  occ. eigenvalues --   -0.36708  -0.36415  -0.35876  -0.35265  -0.34698
  Beta  occ. eigenvalues --   -0.34397  -0.33725  -0.33087  -0.32577  -0.31693
  Beta  occ. eigenvalues --   -0.30578  -0.30067  -0.29517  -0.27875  -0.27648
  Beta  occ. eigenvalues --   -0.26341  -0.25781  -0.25112  -0.24138  -0.23720
  Beta  occ. eigenvalues --   -0.23249  -0.22203  -0.18286  -0.18070  -0.15039
  Beta  occ. eigenvalues --   -0.14170  -0.13239
  Beta virt. eigenvalues --    0.05368   0.05758   0.06200   0.06668   0.07183
  Beta virt. eigenvalues --    0.07595   0.07700   0.07934   0.08764   0.09174
  Beta virt. eigenvalues --    0.09316   0.09730   0.10034   0.10127   0.10388

 Mulliken charges and spin densities:
               1          2
     1  C    0.936899  -1.267154
     2  O   -0.186445   0.061884
     3  C   -1.267191   0.674816
     4  C    1.139309   0.077191
     5  C   -1.146513   0.095214
     6  C    1.451020  -0.563783
     7  C    0.232090  -0.445223
     8  C   -0.260576   0.172394
     9  C   -0.239094  -0.678866
    10  N    0.119584  -0.033760
    11  C    0.046302  -0.386305
    12  C   -0.442575   0.381195
    13  C   -0.197879  -0.185631
    14  C    0.524992  -0.676659
    15  C    0.005554  -0.263657
    16  O   -0.185121  -0.005304
    17  S   -0.301553   0.017061
    18  C   -0.369593  -0.303852
    19  H   -0.510071   0.687879
    20  H   -0.335596   0.503712
    21  H   -0.255414   0.414224
    22  H    0.224039   0.043240
    23  H   -0.461895   0.630564
    24  H   -0.199743   0.395551
    25  H    0.106702   0.034743
    26  H    0.203309  -0.100650
    27  H    0.186482  -0.044541
    28  H    0.177465  -0.011965
    29  H    0.119345   0.032682
    30  H    0.002709   0.117487
    31  H   -0.035508   0.201616
    32  H   -0.301761   0.448946
    33  H   -0.234031   0.393771
    34  H   -0.113742   0.292273
    35  H    0.374575  -0.295010
    36  H   -0.023576   0.298650
    37  H    0.061589   0.132261
    38  H    0.072995   0.088140
    39  H    0.082916   0.066865
 Sum of Mulliken charges =  -1.00000   1.00000

 Dipole moment (field-independent basis, Debye):
    X=             -0.8751    Y=             -5.0868    Z=             -1.1985  Tot=              5.2988
 Quadrupole moment (field-independent basis, Debye-Ang):
   XX=           -262.1625   YY=           -167.3899   ZZ=           -148.2565
   XY=             13.7103   XZ=             -0.5305   YZ=             -0.2700

 Summary of Natural Population Analysis:

                                       Natural Population
                Natural  -----------------------------------------------
    Atom  No    Charge         Core      Valence    Rydberg      Total
 -----------------------------------------------------------------------
      C    1   -0.10095      0.99960     2.09218    0.00917     3.10095
      O    2   -0.27244      0.99986     3.26206    0.01053     4.27244
      C    3    0.16035      0.99931     1.82651    0.01383     2.83965
      C    4   -0.11153      0.99938     2.09888    0.01327     3.11153
      C    5   -0.09172      0.99946     2.08158    0.01067     3.09172
      C    6   -0.03730      0.99950     2.02808    0.00972     3.03730
      C    7   -0.08552      0.99952     2.07595    0.01005     3.08552
      C    8   -0.13823      0.99952     2.12976    0.00894     3.13823
      C    9   -0.08811      0.99959     2.07870    0.00982     3.08811
      N   10   -0.34104      0.99975     2.83109    0.01020     3.84104
      C   11   -0.09191      0.99955     2.08069    0.01167     3.09191
      C   12    0.12804      0.99953     1.85607    0.01636     2.87196
      C   13   -0.20162      0.99960     2.19327    0.00876     3.20162
      C   14   -0.19621      0.99965     2.18687    0.00968     3.19621
      C   15   -0.20203      0.99959     2.19363    0.00881     3.20203
      O   16   -0.37463      0.99988     3.36846    0.00628     4.37463
      S   17    0.10866      4.99957     2.87151    0.02027     7.89134
      C   18   -0.34672      0.99961     2.34150    0.00561     3.34672
      H   19    0.09614      0.00000     0.40244    0.00142     0.40386
      H   20    0.08663      0.00000     0.41120    0.00217     0.41337
      H   21    0.08739      0.00000     0.41069    0.00192     0.41261
      H   22    0.11186      0.00000     0.38675    0.00139     0.38814
      H   23    0.10186      0.00000     0.39697    0.00116     0.39814
      H   24    0.10970      0.00000     0.38870    0.00160     0.39030
      H   25    0.09401      0.00000     0.40486    0.00114     0.40599
      H   26    0.08303      0.00000     0.41479    0.00217     0.41697
      H   27    0.17366      0.00000     0.32349    0.00285     0.32634
      H   28    0.09553      0.00000     0.40342    0.00105     0.40447
      H   29    0.09894      0.00000     0.39997    0.00109     0.40106
      H   30    0.09774      0.00000     0.40106    0.00120     0.40226
      H   31    0.10166      0.00000     0.39726    0.00108     0.39834
      H   32    0.09778      0.00000     0.39944    0.00278     0.40222
      H   33    0.09875      0.00000     0.40010    0.00115     0.40125
      H   34    0.10218      0.00000     0.39664    0.00118     0.39782
      H   35    0.10133      0.00000     0.39708    0.00159     0.39867
      H   36    0.23195      0.00000     0.26430    0.00374     0.26805
      H   37    0.11020      0.00000     0.38759    0.00221     0.38980
      H   38    0.10016      0.00000     0.39820    0.00163     0.39984
      H   39    0.10238      0.00000     0.39656    0.00106     0.39762
 =======================================================================
   * Total *    0.00000     21.99249    49.77828    0.22923    72.00000

 Normal termination of Gaussian 16 at Fri Dec 11 22:18:35 2020.
