 Gaussian 16, Revision A.03,

 -----------------------------------------------------------
 # opt freq B3LYP/6-31G(d) empiricaldispersion=gd3bj scf=xqc
 -----------------------------------------------------------

 ------------------------------
 CID_15731797_JID_4698_neutraal
 ------------------------------
 Symbolic Z-matrix:
 Charge =  0 Multiplicity = 1

 SCF Done:  E(RB3LYP) =  -616.195931685     A.U. after   15 cycles
 SCF Done:  E(RB3LYP) =  -616.197466651     A.U. after   13 cycles
 SCF Done:  E(RB3LYP) =  -616.196769771     A.U. after   13 cycles
 SCF Done:  E(RB3LYP) =  -616.198531951     A.U. after   12 cycles
 SCF Done:  E(RB3LYP) =  -616.198693332     A.U. after   10 cycles
 SCF Done:  E(RB3LYP) =  -616.198636957     A.U. after   11 cycles
 SCF Done:  E(RB3LYP) =  -616.198736954     A.U. after   11 cycles
 SCF Done:  E(RB3LYP) =  -616.198752407     A.U. after   10 cycles
 SCF Done:  E(RB3LYP) =  -616.198755560     A.U. after   10 cycles
 SCF Done:  E(RB3LYP) =  -616.198756007     A.U. after    8 cycles
 SCF Done:  E(RB3LYP) =  -616.198756217     A.U. after    8 cycles
 SCF Done:  E(RB3LYP) =  -616.198756265     A.U. after    8 cycles
 SCF Done:  E(RB3LYP) =  -616.198756260     A.U. after    7 cycles
 SCF Done:  E(RB3LYP) =  -616.198756249     A.U. after    7 cycles
 Optimization completed.
    -- Stationary point found.
 Normal termination of Gaussian 16 at Thu Dec 10 10:25:49 2020.

 --------------------------------------------------------------------
 #N Geom=AllCheck Guess=TCheck SCRF=Check GenChk RB3LYP/6-31G(d) Freq
 --------------------------------------------------------------------

 Structure from the checkpoint file:  "JID_4698.chk"
 ------------------------------
 CID_15731797_JID_4698_neutraal
 ------------------------------
 Charge =  0 Multiplicity = 1

 SCF Done:  E(RB3LYP) =  -616.198756249     A.U. after    1 cycles

  Exact polarizability: 153.968  19.735  91.107  -4.294  -4.159 121.552
 Approx polarizability: 209.174  34.117 131.239 -11.679 -14.038 222.273

                      1                      2                      3
                      A                      A                      A
 Frequencies --     26.0277                46.5783                65.6831
 Red. masses --      4.3150                 7.2818                 4.7388
 Frc consts  --      0.0017                 0.0093                 0.0120
 IR Inten    --      0.1850                 0.4389                 0.4169

                      4                      5                      6
                      A                      A                      A
 Frequencies --     73.2304                82.5355               174.0192
 Red. masses --      2.6619                 4.4977                 4.3913
 Frc consts  --      0.0084                 0.0181                 0.0783
 IR Inten    --      0.1411                 0.0809                 0.4806

                      7                      8                      9
                      A                      A                      A
 Frequencies --    195.2205               212.7465               222.6682
 Red. masses --      3.0691                 2.4436                 1.2771
 Frc consts  --      0.0689                 0.0652                 0.0373
 IR Inten    --      0.1744                 0.5212                 0.0787

                     10                     11                     12
                      A                      A                      A
 Frequencies --    248.6501               284.2640               311.3598
 Red. masses --      2.3753                 3.7760                 3.5878
 Frc consts  --      0.0865                 0.1798                 0.2049
 IR Inten    --      0.1586                 0.5376                 0.0951

                     13                     14                     15
                      A                      A                      A
 Frequencies --    411.6533               415.8397               436.7481
 Red. masses --      4.7430                 3.0046                 3.4716
 Frc consts  --      0.4735                 0.3061                 0.3902
 IR Inten    --      2.9268                 0.0455                 1.2304

                     16                     17                     18
                      A                      A                      A
 Frequencies --    536.0810               555.4159               572.5542
 Red. masses --      2.7573                 2.5683                 2.3911
 Frc consts  --      0.4669                 0.4668                 0.4618
 IR Inten    --      1.0766                 9.7767                14.3633

                     19                     20                     21
                      A                      A                      A
 Frequencies --    597.5666               627.0811               639.1958
 Red. masses --      1.4514                 3.7829                 5.8670
 Frc consts  --      0.3054                 0.8764                 1.4123
 IR Inten    --     73.1596                 3.0969                 1.6451

                     22                     23                     24
                      A                      A                      A
 Frequencies --    681.7673               714.4981               766.3639
 Red. masses --      2.2988                 1.7248                 4.6532
 Frc consts  --      0.6295                 0.5188                 1.6102
 IR Inten    --     69.5086                28.0016                31.3763

                     25                     26                     27
                      A                      A                      A
 Frequencies --    779.2271               804.4856               856.8714
 Red. masses --      1.9929                 3.0328                 1.2508
 Frc consts  --      0.7130                 1.1565                 0.5411
 IR Inten    --     19.8191                 1.5254                 0.1693

                     28                     29                     30
                      A                      A                      A
 Frequencies --    876.1916               922.8065               942.2002
 Red. masses --      2.5761                 1.4434                 2.8676
 Frc consts  --      1.1653                 0.7242                 1.4999
 IR Inten    --      9.2325                 2.1078                 4.2172

                     31                     32                     33
                      A                      A                      A
 Frequencies --    944.5180               964.5802               992.4135
 Red. masses --      1.3657                 1.3549                 1.4477
 Frc consts  --      0.7178                 0.7427                 0.8401
 IR Inten    --     30.4622                 0.0191                 0.2838

                     34                     35                     36
                      A                      A                      A
 Frequencies --    993.5152              1020.4946              1023.7650
 Red. masses --      1.7186                 2.2186                 3.9959
 Frc consts  --      0.9995                 1.3613                 2.4675
 IR Inten    --      0.2207                 5.2645                 3.7840

                     37                     38                     39
                      A                      A                      A
 Frequencies --   1037.9612              1059.8287              1080.4234
 Red. masses --      1.1060                 2.1743                 1.8655
 Frc consts  --      0.7021                 1.4390                 1.2830
 IR Inten    --     13.5589                 4.0443                17.3483

                     40                     41                     42
                      A                      A                      A
 Frequencies --   1097.2613              1123.8247              1165.8937
 Red. masses --      1.6884                 1.6864                 2.2323
 Frc consts  --      1.1977                 1.2549                 1.7878
 IR Inten    --      4.3270                11.3096                41.3121

                     43                     44                     45
                      A                      A                      A
 Frequencies --   1194.1402              1200.5994              1218.4158
 Red. masses --      1.0958                 2.4196                 1.1345
 Frc consts  --      0.9207                 2.0549                 0.9923
 IR Inten    --      0.0334               116.7409                 0.0786

                     46                     47                     48
                      A                      A                      A
 Frequencies --   1241.8318              1291.6130              1307.5873
 Red. masses --      2.1970                 1.5824                 1.4087
 Frc consts  --      1.9962                 1.5553                 1.4191
 IR Inten    --     10.3125                 6.9021                 2.1834

                     49                     50                     51
                      A                      A                      A
 Frequencies --   1334.1037              1348.3517              1368.2433
 Red. masses --      1.7256                 1.2853                 2.2584
 Frc consts  --      1.8095                 1.3768                 2.4910
 IR Inten    --      2.0670                 6.1252                 2.6902

                     52                     53                     54
                      A                      A                      A
 Frequencies --   1377.0664              1385.2247              1412.4260
 Red. masses --      2.3749                 1.4530                 1.3719
 Frc consts  --      2.6534                 1.6427                 1.6125
 IR Inten    --     27.9805                 1.4076                 2.0817

                     55                     56                     57
                      A                      A                      A
 Frequencies --   1437.5441              1471.5060              1507.0049
 Red. masses --      1.2180                 1.1969                 2.1020
 Frc consts  --      1.4830                 1.5270                 2.8127
 IR Inten    --      5.8654                 2.8769                 5.1629

                     58                     59                     60
                      A                      A                      A
 Frequencies --   1525.8242              1533.3135              1549.5641
 Red. masses --      1.0642                 1.0485                 2.1682
 Frc consts  --      1.4598                 1.4524                 3.0673
 IR Inten    --      2.9508                 3.5794                10.3828

                     61                     62                     63
                      A                      A                      A
 Frequencies --   1647.7835              1668.5393              1729.0192
 Red. masses --      5.4285                 5.6023                 4.3455
 Frc consts  --      8.6842                 9.1894                 7.6539
 IR Inten    --      1.2447                 4.0921                17.7985

                     64                     65                     66
                      A                      A                      A
 Frequencies --   1846.8041              3058.9166              3069.8932
 Red. masses --      9.7492                 1.0371                 1.0828
 Frc consts  --     19.5913                 5.7174                 6.0122
 IR Inten    --    265.8813                20.2387                 0.2927

                     67                     68                     69
                      A                      A                      A
 Frequencies --   3083.8153              3124.5892              3143.9425
 Red. masses --      1.0840                 1.1011                 1.1019
 Frc consts  --      6.0740                 6.3336                 6.4173
 IR Inten    --     17.3012                23.7387                26.9796

                     70                     71                     72
                      A                      A                      A
 Frequencies --   3157.3271              3174.8575              3178.6031
 Red. masses --      1.0808                 1.0689                 1.0847
 Frc consts  --      6.3481                 6.3482                 6.4572
 IR Inten    --     16.2027                 7.1591                 6.6343

                     73                     74                     75
                      A                      A                      A
 Frequencies --   3182.9276              3192.0485              3199.8452
 Red. masses --      1.0870                 1.0905                 1.0942
 Frc consts  --      6.4882                 6.5463                 6.6012
 IR Inten    --      0.8247                15.0115                41.6059

                     76                     77                     78
                      A                      A                      A
 Frequencies --   3210.7236              3248.8541              3691.5681
 Red. masses --      1.0981                 1.1159                 1.0640
 Frc consts  --      6.6693                 6.9396                 8.5434
 IR Inten    --     19.9864                18.8532                49.0613

 - Thermochemistry -
 -------------------
 Temperature   298.150 Kelvin.  Pressure   1.00000 Atm.
 Atom     1 has atomic number  6 and mass  12.00000

 Molecular mass:   190.09938 amu.
 Principal axes and moments of inertia in atomic units:
                           1         2         3
     Eigenvalues --  1568.573903644.912684146.07775
           X            0.99971   0.02397  -0.00255
           Y           -0.02389   0.99934   0.02730
           Z            0.00320  -0.02723   0.99962
 This molecule is an asymmetric top.
 Rotational symmetry number  1.
 Warning -- assumption of classical behavior for rotation
           may cause significant error
 Rotational temperatures (Kelvin)      0.05522     0.02376     0.02089
 Rotational constants (GHZ):           1.15056     0.49514     0.43529
 Zero-point vibrational energy     615469.3 (Joules/Mol)
                                  147.10069 (Kcal/Mol)
 Warning -- explicit consideration of  19 degrees of freedom as
           vibrations may cause significant error
 Vibrational temperatures:     37.45    67.02    94.50   105.36   118.75
          (Kelvin)            250.37   280.88   306.09   320.37   357.75
                              408.99   447.98   592.28   598.30   628.38
                              771.30   799.12   823.78   859.76   902.23
                              919.66   980.91  1028.00  1102.63  1121.13
                             1157.48  1232.85  1260.64  1327.71  1355.62
                             1358.95  1387.82  1427.86  1429.45  1468.26
                             1472.97  1493.39  1524.86  1554.49  1578.71
                             1616.93  1677.46  1718.10  1727.39  1753.03
                             1786.72  1858.34  1881.33  1919.48  1939.98
                             1968.60  1981.29  1993.03  2032.17  2068.31
                             2117.17  2168.24  2195.32  2206.10  2229.48
                             2370.79  2400.66  2487.67  2657.14  4401.10
                             4416.89  4436.92  4495.59  4523.43  4542.69
                             4567.91  4573.30  4579.52  4592.65  4603.86
                             4619.52  4674.38  5311.34

 Zero-point correction=                           0.234420 (Hartree/Particle)
 Thermal correction to Energy=                    0.248042
 Thermal correction to Enthalpy=                  0.248987
 Thermal correction to Gibbs Free Energy=         0.192775
 Sum of electronic and zero-point Energies=           -615.964336
 Sum of electronic and thermal Energies=              -615.950714
 Sum of electronic and thermal Enthalpies=            -615.949770
 Sum of electronic and thermal Free Energies=         -616.005981

                     E (Thermal)             CV                S
                      KCal/Mol        Cal/Mol-Kelvin    Cal/Mol-Kelvin
 Total                  155.649             51.058            118.307
 Electronic               0.000              0.000              0.000
 Translational            0.889              2.981             41.633
 Rotational               0.889              2.981             31.539
 Vibrational            153.871             45.096             45.135
 Vibration     1          0.593              1.985              6.111
 Vibration     2          0.595              1.979              4.958
 Vibration     3          0.597              1.971              4.279
 Vibration     4          0.599              1.967              4.065
 Vibration     5          0.600              1.961              3.830
 Vibration     6          0.627              1.874              2.392
 Vibration     7          0.636              1.847              2.178
 Vibration     8          0.644              1.821              2.020
 Vibration     9          0.648              1.807              1.937
 Vibration    10          0.662              1.765              1.740
 Vibration    11          0.683              1.703              1.508
 Vibration    12          0.700              1.652              1.355
 Vibration    13          0.776              1.445              0.921
 Vibration    14          0.779              1.436              0.906
 Vibration    15          0.797              1.390              0.837
 Vibration    16          0.891              1.170              0.574
 Vibration    17          0.911              1.128              0.533
 Vibration    18          0.929              1.091              0.499
 Vibration    19          0.955              1.037              0.454

 Optimization completed.
    -- Stationary point found.
 Normal termination of Gaussian 16 at Thu Dec 10 10:34:51 2020.

 ----------------------------------------------------------------------
 # B3LYP/6-311++G(d,p) empiricaldispersion=gd3bj scf=xqc pop=npa geom=c
 heck
 ----------------------------------------------------------------------

 --------------------------------------
 CID_15731797_JID_4698_Energie_neutraal
 --------------------------------------
 Structure from the checkpoint file:  "JID_4698.chk"
 Charge =  0 Multiplicity = 1

 SCF Done:  E(RB3LYP) =  -616.379181188     A.U. after   14 cycles
 Normal termination of Gaussian 16 at Thu Dec 10 10:38:49 2020.

 ----------------------------------------------------------------------
 # B3LYP/6-311++G(d,p) empiricaldispersion=gd3bj scf=xqc pop=npa geom=c
 heck
 ----------------------------------------------------------------------

 ------------------------------------
 CID_15731797_JID_4698_Energie_kation
 ------------------------------------
 Structure from the checkpoint file:  "JID_4698.chk"
 Charge =  1 Multiplicity = 2

 SCF Done:  E(UB3LYP) =  -616.063560719     A.U. after   27 cycles
 Normal termination of Gaussian 16 at Thu Dec 10 10:49:09 2020.
 Gaussian 16:  ES64L-G16RevA.03 25-Dec-2016

 ----------------------------------------------------------------------
 # B3LYP/6-311++G(d,p) empiricaldispersion=gd3bj scf=xqc pop=npa geom=c
 heck
 ----------------------------------------------------------------------

 -----------------------------------
 CID_15731797_JID_4698_Energie_anion
 -----------------------------------
 Structure from the checkpoint file:  "JID_4698.chk"
 Charge = -1 Multiplicity = 2

                         Standard orientation:
 ---------------------------------------------------------------------
 Center     Atomic      Atomic             Coordinates (Angstroms)
 Number     Number       Type             X           Y           Z
 ---------------------------------------------------------------------
      1          6           0       -0.754538   -2.414238   -0.317321
      2          6           0       -0.559049   -0.981287    0.205014
      3          6           0        0.901653   -0.566519    0.127169
      4          6           0        1.561489   -0.464093   -1.104568
      5          6           0        2.901097   -0.084022   -1.168752
      6          6           0        3.606703    0.198955    0.001751
      7          6           0        2.960484    0.102530    1.234107
      8          6           0        1.618493   -0.274015    1.292110
      9          6           0       -1.460773    0.018027   -0.563338
     10          6           0       -2.955266   -0.154920   -0.362696
     11          6           0       -3.556995   -0.767536    0.655513
     12          6           0       -1.115858    1.465752   -0.226288
     13          8           0       -0.925819    2.345971   -1.033986
     14          8           0       -1.076907    1.679371    1.111918
     15          1           0       -0.458240   -2.488986   -1.369586
     16          1           0       -1.798250   -2.729197   -0.237567
     17          1           0       -0.133230   -3.112589    0.252277
     18          1           0       -0.848254   -0.949033    1.260331
     19          1           0        1.025283   -0.679338   -2.024974
     20          1           0        3.393507   -0.006740   -2.134132
     21          1           0        4.650776    0.494987   -0.047450
     22          1           0        3.499193    0.323712    2.151538
     23          1           0        1.114126   -0.335750    2.252891
     24          1           0       -1.251950   -0.069038   -1.635054
     25          1           0       -3.566085    0.317270   -1.131391
     26          1           0       -4.640344   -0.812757    0.718805
     27          1           0       -3.006597   -1.246415    1.459908
     28          1           0       -0.842765    2.619331    1.224744
 ---------------------------------------------------------------------

 SCF Done:  E(UB3LYP) =  -616.364759733     A.U. after   33 cycles
 SCF Done:  E(UB3LYP) =  -616.364759790     a.u. after    2 cycles

 The electronic state is 2-A.
 Alpha  occ. eigenvalues --  -19.07060 -19.01775 -10.20796 -10.10073 -10.09118
 Alpha  occ. eigenvalues --  -10.08882 -10.08307 -10.07763 -10.07586 -10.07564
 Alpha  occ. eigenvalues --  -10.07512 -10.07398 -10.07360 -10.06516  -1.01215
 Alpha  occ. eigenvalues --   -0.92326  -0.76750  -0.73467  -0.68084  -0.64912
 Alpha  occ. eigenvalues --   -0.63231  -0.62097  -0.53729  -0.52371  -0.50972
 Alpha  occ. eigenvalues --   -0.48557  -0.45520  -0.42460  -0.39498  -0.39223
 Alpha  occ. eigenvalues --   -0.38515  -0.36338  -0.35917  -0.35053  -0.33217
 Alpha  occ. eigenvalues --   -0.32559  -0.32206  -0.31514  -0.30161  -0.29213
 Alpha  occ. eigenvalues --   -0.27784  -0.26939  -0.26030  -0.25402  -0.23709
 Alpha  occ. eigenvalues --   -0.23174  -0.22622  -0.19446  -0.16834  -0.15734
 Alpha  occ. eigenvalues --   -0.15056   0.04393
 Alpha virt. eigenvalues --    0.06278   0.06614   0.07128   0.07612   0.07820
 Alpha virt. eigenvalues --    0.08208   0.08525   0.08646   0.09419   0.10283
 Alpha virt. eigenvalues --    0.10717   0.11360   0.11710   0.12335   0.12952

  Beta  occ. eigenvalues --  -19.07023 -19.01750 -10.20772 -10.10069 -10.09110
  Beta  occ. eigenvalues --  -10.08860 -10.08299 -10.07753 -10.07571 -10.07548
  Beta  occ. eigenvalues --  -10.07489 -10.07362 -10.07345 -10.06486  -1.01152
  Beta  occ. eigenvalues --   -0.92270  -0.76716  -0.73427  -0.68037  -0.64873
  Beta  occ. eigenvalues --   -0.63182  -0.62040  -0.53675  -0.52282  -0.50927
  Beta  occ. eigenvalues --   -0.48504  -0.45444  -0.42411  -0.39453  -0.39181
  Beta  occ. eigenvalues --   -0.38469  -0.36254  -0.35865  -0.35009  -0.33170
  Beta  occ. eigenvalues --   -0.32511  -0.32169  -0.31466  -0.30124  -0.29174
  Beta  occ. eigenvalues --   -0.27746  -0.26891  -0.25992  -0.25362  -0.23675
  Beta  occ. eigenvalues --   -0.23106  -0.22564  -0.19383  -0.16749  -0.15693
  Beta  occ. eigenvalues --   -0.14985
  Beta virt. eigenvalues --    0.06524   0.06889   0.07184   0.07817   0.08081
  Beta virt. eigenvalues --    0.08263   0.08498   0.08751   0.09188   0.09942
  Beta virt. eigenvalues --    0.10729   0.11092   0.11626   0.12084   0.12755

 Mulliken charges and spin densities:
               1          2
     1  C    0.187075  -0.910038
     2  C    0.727151  -1.179694
     3  C    0.605112   0.238495
     4  C   -0.741250   0.504308
     5  C    0.024340  -0.351196
     6  C    0.992560  -1.270635
     7  C   -0.041621  -0.457852
     8  C   -0.763965   0.847189
     9  C    0.595611  -0.109254
    10  C   -0.707690   0.605694
    11  C    0.991704  -1.465499
    12  C    0.006916  -0.482232
    13  O   -0.284000   0.059787
    14  O   -0.171526   0.065053
    15  H   -0.136998   0.294187
    16  H   -0.034036   0.187045
    17  H   -0.053335   0.198232
    18  H    0.256212  -0.054785
    19  H   -0.069526   0.208771
    20  H   -0.234303   0.403323
    21  H   -0.264658   0.419848
    22  H   -0.664390   0.844976
    23  H   -0.335896   0.504274
    24  H    0.053861   0.185754
    25  H   -0.184109   0.377384
    26  H   -0.520233   0.673917
    27  H   -0.141240   0.282396
    28  H   -0.091766   0.380549
 Sum of Mulliken charges =  -1.00000   1.00000

 Dipole moment (field-independent basis, Debye):
    X=             -0.3000    Y=             -0.4612    Z=             -1.4825  Tot=              1.5813
 Quadrupole moment (field-independent basis, Debye-Ang):
   XX=           -157.9324   YY=           -125.0235   ZZ=           -120.5851
   XY=             -5.5144   XZ=             -3.4778   YZ=              0.5475

 Summary of Natural Population Analysis:

                                       Natural Population
                Natural  -----------------------------------------------
    Atom  No    Charge         Core      Valence    Rydberg      Total
 -----------------------------------------------------------------------
      C    1   -0.28255      0.99964     2.27672    0.00618     3.28255
      C    2   -0.11532      0.99956     2.10308    0.01268     3.11532
      C    3   -0.01522      0.99950     2.00274    0.01298     3.01522
      C    4   -0.10030      0.99950     2.09162    0.00918     3.10030
      C    5   -0.09767      0.99956     2.08853    0.00958     3.09767
      C    6   -0.10236      0.99956     2.09257    0.01024     3.10236
      C    7   -0.09824      0.99956     2.08822    0.01047     3.09824
      C    8   -0.09342      0.99950     2.08360    0.01032     3.09342
      C    9   -0.16515      0.99951     2.15229    0.01335     3.16515
      C   10   -0.08122      0.99955     2.07003    0.01164     3.08122
      C   11   -0.18023      0.99955     2.17381    0.00687     3.18023
      C   12    0.41933      0.99968     1.55391    0.02707     2.58067
      O   13   -0.30270      0.99987     3.29687    0.00597     4.30270
      O   14   -0.34386      0.99987     3.33686    0.00712     4.34386
      H   15    0.09721      0.00000     0.40173    0.00106     0.40279
      H   16    0.10576      0.00000     0.39316    0.00108     0.39424
      H   17    0.10260      0.00000     0.39658    0.00081     0.39740
      H   18    0.10474      0.00000     0.39228    0.00298     0.39526
      H   19    0.10015      0.00000     0.39822    0.00162     0.39985
      H   20    0.09955      0.00000     0.39950    0.00095     0.40045
      H   21    0.10064      0.00000     0.39819    0.00117     0.39936
      H   22    0.10214      0.00000     0.39617    0.00169     0.39786
      H   23    0.10298      0.00000     0.39548    0.00154     0.39702
      H   24    0.11388      0.00000     0.38414    0.00199     0.38612
      H   25    0.09753      0.00000     0.40147    0.00100     0.40247
      H   26    0.09719      0.00000     0.40165    0.00117     0.40281
      H   27    0.09275      0.00000     0.40577    0.00148     0.40725
      H   28    0.24180      0.00000     0.25342    0.00478     0.25820
 =======================================================================
   * Total *   -0.00000     13.99442    36.82862    0.17697    51.00000

 Normal termination of Gaussian 16 at Thu Dec 10 11:12:32 2020.
