 Gaussian 16, Revision A.03,

 -----------------------------------------------------------
 # opt freq B3LYP/6-31G(d) empiricaldispersion=gd3bj scf=xqc
 -----------------------------------------------------------

 -------------------------------
 CID_114049826_JID_8741_neutraal
 -------------------------------
 Symbolic Z-matrix:
 Charge =  0 Multiplicity = 1

 SCF Done:  E(RB3LYP) =  -1122.30283290     A.U. after   16 cycles
 SCF Done:  E(RB3LYP) =  -1122.30963156     A.U. after   12 cycles
 SCF Done:  E(RB3LYP) =  -1122.31032836     A.U. after   12 cycles
 SCF Done:  E(RB3LYP) =  -1122.31039794     A.U. after   10 cycles
 SCF Done:  E(RB3LYP) =  -1122.31043358     A.U. after   10 cycles
 SCF Done:  E(RB3LYP) =  -1122.31044447     A.U. after    9 cycles
 SCF Done:  E(RB3LYP) =  -1122.31044987     A.U. after    9 cycles
 SCF Done:  E(RB3LYP) =  -1122.31045292     A.U. after    8 cycles
 SCF Done:  E(RB3LYP) =  -1122.31045412     A.U. after    8 cycles
 Optimization completed.
    -- Stationary point found.
 Normal termination of Gaussian 16 at Fri Dec 11 21:26:07 2020.

 --------------------------------------------------------------------
 #N Geom=AllCheck Guess=TCheck SCRF=Check GenChk RB3LYP/6-31G(d) Freq
 --------------------------------------------------------------------

 Structure from the checkpoint file:  "JID_8741.chk"
 -------------------------------
 CID_114049826_JID_8741_neutraal
 -------------------------------
 Charge =  0 Multiplicity = 1

 SCF Done:  E(RB3LYP) =  -1122.31045412     A.U. after    1 cycles

  Exact polarizability: 307.409  -9.764 181.907  -1.356   1.231  91.311
 Approx polarizability: 396.505 -22.719 319.797  -1.301   2.824 145.377

                      1                      2                      3
                      A                      A                      A
 Frequencies --     26.1729                36.1759                73.1070
 Red. masses --      4.5049                 4.3069                 4.9427
 Frc consts  --      0.0018                 0.0033                 0.0156
 IR Inten    --      0.8966                 1.0454                 0.9266

                      4                      5                      6
                      A                      A                      A
 Frequencies --     86.8461               128.9185               154.2078
 Red. masses --      3.4935                 3.1425                 3.2494
 Frc consts  --      0.0155                 0.0308                 0.0455
 IR Inten    --      0.1625                 0.7655                 0.3769

                      7                      8                      9
                      A                      A                      A
 Frequencies --    170.4859               202.0686               207.7768
 Red. masses --      1.1591                 3.2946                 4.8463
 Frc consts  --      0.0198                 0.0793                 0.1233
 IR Inten    --      2.1024                 2.6466                 5.3831

                     10                     11                     12
                      A                      A                      A
 Frequencies --    227.2005               232.3902               277.4058
 Red. masses --      5.7562                 2.9670                 1.3586
 Frc consts  --      0.1751                 0.0944                 0.0616
 IR Inten    --      1.4967                 9.6351                17.5840

                     13                     14                     15
                      A                      A                      A
 Frequencies --    299.3264               315.0501               320.6863
 Red. masses --      2.2382                 2.3114                 2.4206
 Frc consts  --      0.1182                 0.1352                 0.1467
 IR Inten    --      2.6029                 6.1148                 2.2624

                     16                     17                     18
                      A                      A                      A
 Frequencies --    352.7765               370.9575               427.5414
 Red. masses --      6.4781                 4.4037                 4.0589
 Frc consts  --      0.4750                 0.3570                 0.4371
 IR Inten    --      0.5051                 5.9775                 5.5563

                     19                     20                     21
                      A                      A                      A
 Frequencies --    454.1340               470.0216               475.1896
 Red. masses --      3.6936                 3.8295                 3.0821
 Frc consts  --      0.4488                 0.4985                 0.4100
 IR Inten    --      8.7763                 3.1294                 9.2624

                     22                     23                     24
                      A                      A                      A
 Frequencies --    497.9335               540.2953               565.7524
 Red. masses --      1.4703                 4.7508                 3.3178
 Frc consts  --      0.2148                 0.8171                 0.6257
 IR Inten    --     65.2393                 9.5325                 4.4824

                     25                     26                     27
                      A                      A                      A
 Frequencies --    587.1676               599.6723               610.3921
 Red. masses --      3.7258                 5.3601                 3.1391
 Frc consts  --      0.7568                 1.1357                 0.6891
 IR Inten    --     19.8084                 9.3586                23.0991

                     28                     29                     30
                      A                      A                      A
 Frequencies --    621.5301               642.9886               681.6450
 Red. masses --      4.2728                 5.7132                 1.5904
 Frc consts  --      0.9725                 1.3917                 0.4354
 IR Inten    --      9.7449                 6.1834               395.1571

                     31                     32                     33
                      A                      A                      A
 Frequencies --    709.9650               753.0267               755.7814
 Red. masses --      4.0395                 5.6239                 5.9212
 Frc consts  --      1.1996                 1.8789                 1.9928
 IR Inten    --      6.8437                 1.7162                11.0570

                     34                     35                     36
                      A                      A                      A
 Frequencies --    802.4958               832.5189               844.5799
 Red. masses --      3.6260                 3.5472                 1.5544
 Frc consts  --      1.3758                 1.4485                 0.6533
 IR Inten    --      6.5637                10.1300                 0.3469

                     37                     38                     39
                      A                      A                      A
 Frequencies --    855.1726               860.6032               931.4746
 Red. masses --      1.4824                 2.6808                 1.5022
 Frc consts  --      0.6387                 1.1698                 0.7679
 IR Inten    --     42.9966                 1.2772                 0.0362

                     40                     41                     42
                      A                      A                      A
 Frequencies --    937.5979               965.7300               968.8848
 Red. masses --      3.6455                 1.2721                 2.5281
 Frc consts  --      1.8882                 0.6990                 1.3982
 IR Inten    --      8.1138                 0.1013                11.9349

                     43                     44                     45
                      A                      A                      A
 Frequencies --    974.2279              1025.9243              1041.0728
 Red. masses --      2.3806                 2.3266                 2.9932
 Frc consts  --      1.3313                 1.4428                 1.9114
 IR Inten    --      3.2320                 5.7819                13.5972

                     46                     47                     48
                      A                      A                      A
 Frequencies --   1067.0395              1086.4950              1100.6068
 Red. masses --      1.5103                 1.8908                 1.5995
 Frc consts  --      1.0131                 1.3151                 1.1416
 IR Inten    --      1.5577                 1.8787                 6.0950

                     49                     50                     51
                      A                      A                      A
 Frequencies --   1113.8171              1169.4681              1183.0227
 Red. masses --      1.8359                 1.1647                 1.2002
 Frc consts  --      1.3420                 0.9385                 0.9897
 IR Inten    --      0.5152                 2.6952                15.3644

                     52                     53                     54
                      A                      A                      A
 Frequencies --   1188.1758              1193.1050              1214.4827
 Red. masses --      2.2666                 2.5333                 1.9377
 Frc consts  --      1.8853                 2.1246                 1.6839
 IR Inten    --     21.4207                37.9838                 0.7511

                     55                     56                     57
                      A                      A                      A
 Frequencies --   1244.7388              1277.2402              1286.8805
 Red. masses --      2.6143                 1.2790                 1.4937
 Frc consts  --      2.3865                 1.2294                 1.4574
 IR Inten    --     12.4329                10.7930                10.7461

                     58                     59                     60
                      A                      A                      A
 Frequencies --   1311.6052              1321.9194              1325.5242
 Red. masses --      3.6547                 2.2649                 1.7001
 Frc consts  --      3.7043                 2.3319                 1.7600
 IR Inten    --     29.0086               171.5013                42.5401

                     61                     62                     63
                      A                      A                      A
 Frequencies --   1375.0927              1384.0039              1388.1937
 Red. masses --      4.4395                 1.5483                 1.4357
 Frc consts  --      4.9459                 1.7473                 1.6301
 IR Inten    --     39.4067                21.0126                 4.2462

                     64                     65                     66
                      A                      A                      A
 Frequencies --   1398.4132              1411.9212              1428.1604
 Red. masses --      1.5775                 2.2931                 1.4261
 Frc consts  --      1.8175                 2.6933                 1.7137
 IR Inten    --     29.4907                 6.3062                 7.3339

                     67                     68                     69
                      A                      A                      A
 Frequencies --   1453.3446              1505.7295              1511.9584
 Red. masses --      2.9195                 1.1247                 3.2029
 Frc consts  --      3.6333                 1.5024                 4.3140
 IR Inten    --     52.5505                 9.7276               495.2058

                     70                     71                     72
                      A                      A                      A
 Frequencies --   1512.9601              1516.9552              1518.5610
 Red. masses --      1.0640                 1.0921                 1.0941
 Frc consts  --      1.4349                 1.4807                 1.4866
 IR Inten    --     10.1284                 7.4932                 2.1322

                     73                     74                     75
                      A                      A                      A
 Frequencies --   1518.7189              1530.7945              1564.3999
 Red. masses --      1.1064                 1.1083                 2.1902
 Frc consts  --      1.5035                 1.5302                 3.1581
 IR Inten    --      4.4537                 0.1841               184.8322

                     76                     77                     78
                      A                      A                      A
 Frequencies --   1617.5648              1635.1290              1645.5066
 Red. masses --      9.5565                 6.5014                 5.5045
 Frc consts  --     14.7324                10.2415                 8.7815
 IR Inten    --    765.0965               150.3286                25.2356

                     79                     80                     81
                      A                      A                      A
 Frequencies --   1661.1318              1696.0763              3014.3820
 Red. masses --      4.2455                 1.2366                 1.0686
 Frc consts  --      6.9022                 2.0958                 5.7210
 IR Inten    --     53.3248                55.6217                52.2090

                     82                     83                     84
                      A                      A                      A
 Frequencies --   3022.6314              3023.0950              3038.1312
 Red. masses --      1.0474                 1.0697                 1.0669
 Frc consts  --      5.6379                 5.7599                 5.8023
 IR Inten    --     37.2933                23.1919                22.7544

                     85                     86                     87
                      A                      A                      A
 Frequencies --   3042.9091              3061.9944              3076.7145
 Red. masses --      1.0627                 1.0902                 1.0920
 Frc consts  --      5.7976                 6.0223                 6.0907
 IR Inten    --     19.1695                48.2532                24.5013

                     88                     89                     90
                      A                      A                      A
 Frequencies --   3077.9193              3087.5763              3091.8355
 Red. masses --      1.0928                 1.0976                 1.1057
 Frc consts  --      6.0999                 6.1649                 6.2276
 IR Inten    --     19.7419                73.6438                55.4788

                     91                     92                     93
                      A                      A                      A
 Frequencies --   3160.4271              3177.9481              3266.8079
 Red. masses --      1.0975                 1.0904                 1.0930
 Frc consts  --      6.4587                 6.4884                 6.8728
 IR Inten    --      6.3174                22.9131                 7.0058

                     94                     95                     96
                      A                      A                      A
 Frequencies --   3536.9103              3615.2189              3633.6667
 Red. masses --      1.0481                 1.0763                 1.0972
 Frc consts  --      7.7250                 8.2884                 8.5354
 IR Inten    --      7.8854                56.5877                 6.5329

 - Thermochemistry -
 -------------------
 Temperature   298.150 Kelvin.  Pressure   1.00000 Atm.
 Atom     1 has atomic number  6 and mass  12.00000

 Molecular mass:   260.10957 amu.
 Principal axes and moments of inertia in atomic units:
                           1         2         3
     Eigenvalues --  1590.98312********************
           X            0.99996   0.00913  -0.00090
           Y           -0.00913   0.99996   0.00143
           Z            0.00091  -0.00143   1.00000
 This molecule is an asymmetric top.
 Rotational symmetry number  1.
 Warning -- assumption of classical behavior for rotation
           may cause significant error
 Rotational temperatures (Kelvin)      0.05444     0.00759     0.00671
 Rotational constants (GHZ):           1.13436     0.15819     0.13979
 Zero-point vibrational energy     736910.3 (Joules/Mol)
                                  176.12578 (Kcal/Mol)
 Warning -- explicit consideration of  27 degrees of freedom as
           vibrations may cause significant error
 Vibrational temperatures:     37.66    52.05   105.18   124.95   185.49
          (Kelvin)            221.87   245.29   290.73   298.94   326.89
                              334.36   399.13   430.66   453.29   461.40
                              507.57   533.73   615.14   653.40   676.26
                              683.69   716.42   777.36   813.99   844.80
                              862.79   878.22   894.24   925.12   980.74
                             1021.48  1083.44  1087.40  1154.61  1197.81
                             1215.16  1230.40  1238.22  1340.18  1348.99
                             1389.47  1394.01  1401.70  1476.08  1497.87
                             1535.23  1563.22  1583.53  1602.53  1682.60
                             1702.11  1709.52  1716.61  1747.37  1790.90
                             1837.66  1851.53  1887.11  1901.95  1907.13
                             1978.45  1991.27  1997.30  2012.00  2031.44
                             2054.80  2091.04  2166.41  2175.37  2176.81
                             2182.56  2184.87  2185.10  2202.47  2250.82
                             2327.32  2352.59  2367.52  2390.00  2440.28
                             4337.02  4348.89  4349.56  4371.19  4378.07
                             4405.53  4426.71  4428.44  4442.33  4448.46
                             4547.15  4572.36  4700.21  5088.82  5201.49
                             5228.04

 Zero-point correction=                           0.280674 (Hartree/Particle)
 Thermal correction to Energy=                    0.297032
 Thermal correction to Enthalpy=                  0.297976
 Thermal correction to Gibbs Free Energy=         0.236137
 Sum of electronic and zero-point Energies=          -1122.029780
 Sum of electronic and thermal Energies=             -1122.013422
 Sum of electronic and thermal Enthalpies=           -1122.012478
 Sum of electronic and thermal Free Energies=        -1122.074317

                     E (Thermal)             CV                S
                      KCal/Mol        Cal/Mol-Kelvin    Cal/Mol-Kelvin
 Total                  186.390             64.045            130.151
 Electronic               0.000              0.000              0.000
 Translational            0.889              2.981             42.567
 Rotational               0.889              2.981             33.815
 Vibrational            184.613             58.083             53.768
 Vibration     1          0.593              1.985              6.100
 Vibration     2          0.594              1.982              5.458
 Vibration     3          0.599              1.967              4.068
 Vibration     4          0.601              1.958              3.730
 Vibration     5          0.611              1.924              2.962
 Vibration     6          0.620              1.898              2.620
 Vibration     7          0.626              1.879              2.430
 Vibration     8          0.639              1.837              2.114
 Vibration     9          0.641              1.829              2.063
 Vibration    10          0.651              1.800              1.901
 Vibration    11          0.653              1.791              1.860
 Vibration    12          0.678              1.715              1.550
 Vibration    13          0.692              1.675              1.421
 Vibration    14          0.702              1.645              1.336
 Vibration    15          0.706              1.634              1.307
 Vibration    16          0.729              1.570              1.154
 Vibration    17          0.743              1.532              1.076
 Vibration    18          0.789              1.410              0.867
 Vibration    19          0.813              1.352              0.783
 Vibration    20          0.827              1.317              0.737
 Vibration    21          0.832              1.305              0.723
 Vibration    22          0.853              1.255              0.663
 Vibration    23          0.895              1.161              0.565
 Vibration    24          0.922              1.105              0.512
 Vibration    25          0.944              1.059              0.472
 Vibration    26          0.958              1.032              0.450
 Vibration    27          0.969              1.010              0.432

                           ! Non-Optimized Parameters !
 Normal termination of Gaussian 16 at Fri Dec 11 21:38:05 2020.

 ----------------------------------------------------------------------
 # B3LYP/6-311++G(d,p) empiricaldispersion=gd3bj scf=xqc pop=npa geom=c
 heck
 ----------------------------------------------------------------------

 ---------------------------------------
 CID_114049826_JID_8741_Energie_neutraal
 ---------------------------------------
 Structure from the checkpoint file:  "JID_8741.chk"
 Charge =  0 Multiplicity = 1

 SCF Done:  E(RB3LYP) =  -1122.53215452     A.U. after   16 cycles
 Normal termination of Gaussian 16 at Fri Dec 11 21:43:20 2020.

 ----------------------------------------------------------------------
 # B3LYP/6-311++G(d,p) empiricaldispersion=gd3bj scf=xqc pop=npa geom=c
 heck
 ----------------------------------------------------------------------

 -------------------------------------
 CID_114049826_JID_8741_Energie_kation
 -------------------------------------
 Structure from the checkpoint file:  "JID_8741.chk"
 Charge =  1 Multiplicity = 2

 SCF Done:  E(UB3LYP) =  -1122.29010833     A.U. after   22 cycles
 Normal termination of Gaussian 16 at Fri Dec 11 21:53:09 2020.
 Gaussian 16:  ES64L-G16RevA.03 25-Dec-2016

 ----------------------------------------------------------------------
 # B3LYP/6-311++G(d,p) empiricaldispersion=gd3bj scf=xqc pop=npa geom=c
 heck
 ----------------------------------------------------------------------

 ------------------------------------
 CID_114049826_JID_8741_Energie_anion
 ------------------------------------
 Structure from the checkpoint file:  "JID_8741.chk"
 Charge = -1 Multiplicity = 2

                         Standard orientation:
 ---------------------------------------------------------------------
 Center     Atomic      Atomic             Coordinates (Angstroms)
 Number     Number       Type             X           Y           Z
 ---------------------------------------------------------------------
      1          6           0       -5.339926   -1.363819   -0.030765
      2          6           0       -4.121852   -0.479577   -0.005787
      3          6           0       -4.254968    0.924441    0.017792
      4          6           0       -3.079562    1.682919    0.025076
      5          6           0       -1.836019    1.063780    0.010450
      6          6           0       -1.816450   -0.335449   -0.004604
      7          7           0       -2.928575   -1.080099   -0.011510
      8          7           0       -0.646640   -1.109687   -0.015220
      9          6           0        0.657306   -0.703791   -0.010033
     10          7           0        1.085624    0.526969    0.008326
     11          6           0        2.471069    0.565339    0.003592
     12          6           0        3.118695   -0.632919   -0.010095
     13         16           0        1.938517   -1.939768   -0.031141
     14          6           0        4.605392   -0.829739   -0.011626
     15          6           0        5.294886    0.490239    0.381598
     16          6           0        4.679257    1.687477   -0.356480
     17          6           0        3.200688    1.878756    0.018891
     18          7           0       -5.522696    1.524751   -0.035800
     19          1           0       -5.939515   -1.259776    0.885818
     20          1           0       -5.031088   -2.407104   -0.116087
     21          1           0       -5.994533   -1.112639   -0.875116
     22          1           0       -3.139427    2.769082    0.039110
     23          1           0       -0.910320    1.621520    0.015730
     24          1           0       -0.841084   -2.101901   -0.030569
     25          1           0        4.948757   -1.148432   -1.007297
     26          1           0        4.898118   -1.626961    0.683437
     27          1           0        6.368222    0.419615    0.170884
     28          1           0        5.188652    0.641249    1.464047
     29          1           0        5.241883    2.601476   -0.134565
     30          1           0        4.758359    1.519386   -1.439155
     31          1           0        3.118012    2.330537    1.018449
     32          1           0        2.709958    2.575344   -0.671384
     33          1           0       -5.526207    2.491602    0.268235
     34          1           0       -6.251142    1.003814    0.438092
 ---------------------------------------------------------------------

 SCF Done:  E(UB3LYP) =  -1122.52321467     A.U. after   33 cycles
 SCF Done:  E(UB3LYP) =  -1122.52321467     a.u. after    1 cycles

 The electronic state is 2-A.
 Alpha  occ. eigenvalues --  -88.78583 -14.26716 -14.22202 -14.21295 -14.21086
 Alpha  occ. eigenvalues --  -10.18269 -10.14862 -10.11714 -10.11661 -10.11117
 Alpha  occ. eigenvalues --  -10.10459 -10.09635 -10.08675 -10.08658 -10.08613
 Alpha  occ. eigenvalues --  -10.08437 -10.07817 -10.07719  -7.87223  -5.83529
 Alpha  occ. eigenvalues --   -5.83194  -5.82753  -0.90838  -0.86616  -0.83198
 Alpha  occ. eigenvalues --   -0.80749  -0.74577  -0.70834  -0.69952  -0.67686
 Alpha  occ. eigenvalues --   -0.65485  -0.63501  -0.60611  -0.56204  -0.53848
 Alpha  occ. eigenvalues --   -0.52690  -0.51578  -0.48509  -0.46227  -0.43913
 Alpha  occ. eigenvalues --   -0.41637  -0.41061  -0.40197  -0.38396  -0.37382
 Alpha  occ. eigenvalues --   -0.36106  -0.35630  -0.34974  -0.33971  -0.33450
 Alpha  occ. eigenvalues --   -0.32499  -0.31941  -0.30996  -0.30892  -0.29579
 Alpha  occ. eigenvalues --   -0.28993  -0.28743  -0.28512  -0.25530  -0.25140
 Alpha  occ. eigenvalues --   -0.24727  -0.23539  -0.21439  -0.18677  -0.18603
 Alpha  occ. eigenvalues --   -0.18077  -0.17799  -0.13656  -0.09689   0.03693
 Alpha virt. eigenvalues --    0.04673   0.06204   0.06728   0.06804   0.06904
 Alpha virt. eigenvalues --    0.07418   0.07582   0.07860   0.08911   0.09549
 Alpha virt. eigenvalues --    0.10088   0.10161   0.10575   0.10928   0.11000

  Beta  occ. eigenvalues --  -88.78576 -14.26721 -14.22137 -14.21247 -14.21088
  Beta  occ. eigenvalues --  -10.18231 -10.14850 -10.11707 -10.11649 -10.11115
  Beta  occ. eigenvalues --  -10.10436 -10.09619 -10.08667 -10.08620 -10.08591
  Beta  occ. eigenvalues --  -10.08419 -10.07819 -10.07694  -7.87217  -5.83513
  Beta  occ. eigenvalues --   -5.83190  -5.82742  -0.90808  -0.86570  -0.83153
  Beta  occ. eigenvalues --   -0.80677  -0.74546  -0.70793  -0.69902  -0.67625
  Beta  occ. eigenvalues --   -0.65452  -0.63450  -0.60561  -0.56158  -0.53773
  Beta  occ. eigenvalues --   -0.52652  -0.51517  -0.48469  -0.46186  -0.43874
  Beta  occ. eigenvalues --   -0.41556  -0.41012  -0.40152  -0.38345  -0.37327
  Beta  occ. eigenvalues --   -0.36044  -0.35561  -0.34945  -0.33922  -0.33417
  Beta  occ. eigenvalues --   -0.32460  -0.31907  -0.30948  -0.30851  -0.29541
  Beta  occ. eigenvalues --   -0.28935  -0.28690  -0.28454  -0.25459  -0.25103
  Beta  occ. eigenvalues --   -0.24689  -0.23499  -0.21346  -0.18665  -0.18559
  Beta  occ. eigenvalues --   -0.17954  -0.17737  -0.13555  -0.09613
  Beta virt. eigenvalues --    0.05525   0.06305   0.06500   0.06849   0.07158
  Beta virt. eigenvalues --    0.07193   0.07802   0.07917   0.08137   0.09421
  Beta virt. eigenvalues --    0.09722   0.10204   0.10451   0.10744   0.10957

 Mulliken charges and spin densities:
               1          2
     1  C    1.547321  -1.850774
     2  C   -1.178660   1.303822
     3  C   -0.109818   0.006561
     4  C   -0.235352   0.011950
     5  C    1.460792  -0.955208
     6  C   -0.738243  -0.036553
     7  N   -0.005661   0.041287
     8  N   -0.084336  -0.002994
     9  C    0.332021  -0.151363
    10  N    0.048113   0.022222
    11  C   -0.938852  -0.311051
    12  C    0.842843  -0.207086
    13  S   -0.348758   0.092862
    14  C   -0.011328  -0.338317
    15  C   -0.170254  -0.040401
    16  C   -0.107205  -0.173233
    17  C   -0.167928  -0.241669
    18  N   -0.264245  -0.068896
    19  H   -0.213338   0.387907
    20  H    0.125072   0.023608
    21  H    0.001721   0.167926
    22  H   -0.250626   0.417487
    23  H    0.319292  -0.009859
    24  H    0.297270  -0.002138
    25  H   -0.088764   0.260869
    26  H    0.006561   0.140002
    27  H   -0.527231   0.710689
    28  H    0.150176  -0.025703
    29  H   -0.256849   0.436291
    30  H    0.079381   0.049104
    31  H    0.029349   0.142817
    32  H    0.113763   0.037806
    33  H   -0.343304   0.595399
    34  H   -0.312926   0.566634
 Sum of Mulliken charges =  -1.00000   1.00000

 Dipole moment (field-independent basis, Debye):
    X=              4.6472    Y=             -4.0341    Z=             -0.8040  Tot=              6.2062
 Quadrupole moment (field-independent basis, Debye-Ang):
   XX=           -281.2618   YY=           -149.1926   ZZ=           -138.2772
   XY=             12.8919   XZ=             11.1416   YZ=             -2.3589

 Summary of Natural Population Analysis:

                                       Natural Population
                Natural  -----------------------------------------------
    Atom  No    Charge         Core      Valence    Rydberg      Total
 -----------------------------------------------------------------------
      C    1   -0.30373      0.99964     2.29767    0.00643     3.30373
      C    2    0.09401      0.99952     1.89234    0.01414     2.90599
      C    3    0.05839      0.99943     1.93062    0.01156     2.94161
      C    4   -0.09054      0.99953     2.08155    0.00946     3.09054
      C    5   -0.13423      0.99952     2.12617    0.00854     3.13423
      C    6    0.18289      0.99952     1.80289    0.01470     2.81711
      N    7   -0.24955      0.99965     2.74031    0.00959     3.74955
      N    8   -0.30056      0.99961     2.79155    0.00940     3.80056
      C    9    0.15480      0.99961     1.82749    0.01809     2.84520
      N   10   -0.28013      0.99962     2.76998    0.01053     3.78013
      C   11    0.06934      0.99939     1.91840    0.01287     2.93066
      C   12   -0.11322      0.99938     2.10278    0.01107     3.11322
      S   13    0.15600      4.99944     2.82631    0.01825     7.84400
      C   14   -0.20157      0.99958     2.19148    0.01051     3.20157
      C   15   -0.18516      0.99964     2.17660    0.00892     3.18516
      C   16   -0.18942      0.99964     2.18030    0.00948     3.18942
      C   17   -0.19647      0.99959     2.18882    0.00806     3.19647
      N   18   -0.39807      0.99972     2.88720    0.01114     3.89807
      H   19    0.10405      0.00000     0.39444    0.00151     0.39595
      H   20    0.10850      0.00000     0.39034    0.00116     0.39150
      H   21    0.10538      0.00000     0.39355    0.00107     0.39462
      H   22    0.10109      0.00000     0.39799    0.00092     0.39891
      H   23    0.12429      0.00000     0.37423    0.00148     0.37571
      H   24    0.20192      0.00000     0.29651    0.00157     0.29808
      H   25    0.10200      0.00000     0.39657    0.00143     0.39800
      H   26    0.10286      0.00000     0.39611    0.00103     0.39714
      H   27    0.10203      0.00000     0.39619    0.00178     0.39797
      H   28    0.09405      0.00000     0.40466    0.00129     0.40595
      H   29    0.10019      0.00000     0.39875    0.00106     0.39981
      H   30    0.09501      0.00000     0.40369    0.00131     0.40499
      H   31    0.10177      0.00000     0.39679    0.00145     0.39823
      H   32    0.10645      0.00000     0.39215    0.00139     0.39355
      H   33    0.18772      0.00000     0.30650    0.00578     0.31228
      H   34    0.18993      0.00000     0.30429    0.00578     0.31007
 =======================================================================
   * Total *    0.00000     21.99203    46.77523    0.23274    69.00000

 Normal termination of Gaussian 16 at Fri Dec 11 22:07:43 2020.
