 Gaussian 16, Revision A.03,

 -----------------------------------------------------------
 # opt freq B3LYP/6-31G(d) empiricaldispersion=gd3bj scf=xqc
 -----------------------------------------------------------

 -------------------------------
 CID_150147938_JID_6507_neutraal
 -------------------------------
 Symbolic Z-matrix:
 Charge =  0 Multiplicity = 1

 SCF Done:  E(RB3LYP) =  -1041.10770230     A.U. after   18 cycles
 SCF Done:  E(RB3LYP) =  -1041.11708764     A.U. after   13 cycles
 SCF Done:  E(RB3LYP) =  -1041.11825422     A.U. after   13 cycles
 SCF Done:  E(RB3LYP) =  -1041.11864244     A.U. after   12 cycles
 SCF Done:  E(RB3LYP) =  -1041.11867854     A.U. after   12 cycles
 SCF Done:  E(RB3LYP) =  -1041.11868374     A.U. after    9 cycles
 Optimization completed.
    -- Stationary point found.
 Normal termination of Gaussian 16 at Sun Dec 13 12:20:34 2020.

 --------------------------------------------------------------------
 #N Geom=AllCheck Guess=TCheck SCRF=Check GenChk RB3LYP/6-31G(d) Freq
 --------------------------------------------------------------------

 Structure from the checkpoint file:  "JID_6507.chk"
 -------------------------------
 CID_150147938_JID_6507_neutraal
 -------------------------------
 Charge =  0 Multiplicity = 1

 SCF Done:  E(RB3LYP) =  -1041.11868374     A.U. after    1 cycles

  Exact polarizability: 299.660  15.452 164.833   0.005  -0.004  59.006
 Approx polarizability: 484.496  37.428 312.618   0.009  -0.003  95.358

 ******    2 imaginary frequencies (negative Signs) ******

                      1                      2                      3
                      A                      A                      A
 Frequencies --   -117.2086               -40.6027                34.5723
 Red. masses --      4.2533                 7.0852                 7.0234
 Frc consts  --      0.0344                 0.0069                 0.0049
 IR Inten    --      2.1791                 0.6826                 0.1024

                      4                      5                      6
                      A                      A                      A
 Frequencies --    107.5335               115.4202               144.2444
 Red. masses --      4.6212                 8.6872                 3.4735
 Frc consts  --      0.0315                 0.0682                 0.0426
 IR Inten    --      1.9560                 0.2189                 0.5041

                      7                      8                      9
                      A                      A                      A
 Frequencies --    180.9280               226.6918               275.2720
 Red. masses --      7.5916                 5.9115                 4.8244
 Frc consts  --      0.1464                 0.1790                 0.2154
 IR Inten    --      1.8388                 0.6621                 1.9849

                     10                     11                     12
                      A                      A                      A
 Frequencies --    313.8970               373.5766               416.1699
 Red. masses --      9.5830                 9.2845                 4.2984
 Frc consts  --      0.5563                 0.7634                 0.4386
 IR Inten    --      1.5063                 6.7549                 0.6449

                     13                     14                     15
                      A                      A                      A
 Frequencies --    419.4405               434.0977               465.3885
 Red. masses --      8.5195                 6.7291                 4.4754
 Frc consts  --      0.8831                 0.7471                 0.5711
 IR Inten    --      2.1417                 3.0495                12.6212

                     16                     17                     18
                      A                      A                      A
 Frequencies --    496.2445               510.6873               554.3078
 Red. masses --      6.9924                 7.1351                 4.3257
 Frc consts  --      1.0145                 1.0964                 0.7831
 IR Inten    --      2.3444                 0.9957                 1.8978

                     19                     20                     21
                      A                      A                      A
 Frequencies --    610.9341               628.7966               638.7446
 Red. masses --      6.6153                 7.3736                 3.7910
 Frc consts  --      1.4548                 1.7177                 0.9113
 IR Inten    --      7.7445                10.6314                 3.3473

                     22                     23                     24
                      A                      A                      A
 Frequencies --    678.1194               703.1598               721.2099
 Red. masses --      1.4087                 7.2827                 6.6084
 Frc consts  --      0.3817                 2.1215                 2.0252
 IR Inten    --     23.0449                14.9382                 0.7109

                     25                     26                     27
                      A                      A                      A
 Frequencies --    735.8174               765.5449               779.9069
 Red. masses --      2.4515                 1.6580                 7.9914
 Frc consts  --      0.7820                 0.5725                 2.8639
 IR Inten    --     12.3727                40.8716                38.0683

                     28                     29                     30
                      A                      A                      A
 Frequencies --    848.8969               859.8030               877.8519
 Red. masses --      5.4565                 1.3703                 1.2282
 Frc consts  --      2.3167                 0.5968                 0.5577
 IR Inten    --      0.6822                 0.1885                 0.2102

                     31                     32                     33
                      A                      A                      A
 Frequencies --    929.1647               974.8874              1008.4545
 Red. masses --      1.3423                 1.2516                 4.8043
 Frc consts  --      0.6828                 0.7009                 2.8787
 IR Inten    --      0.8631                 0.0421                80.4780

                     34                     35                     36
                      A                      A                      A
 Frequencies --   1032.7537              1055.0556              1063.8767
 Red. masses --      5.8007                 2.4849                 1.5667
 Frc consts  --      3.6452                 1.6297                 1.0448
 IR Inten    --     17.8919                10.9970                 2.0119

                     37                     38                     39
                      A                      A                      A
 Frequencies --   1082.6595              1119.4124              1160.6668
 Red. masses --      3.4343                 5.4607                 1.5986
 Frc consts  --      2.3718                 4.0316                 1.2688
 IR Inten    --      5.2908                30.5962                 0.9320

                     40                     41                     42
                      A                      A                      A
 Frequencies --   1192.6233              1195.5262              1217.9308
 Red. masses --      1.5109                 1.1929                 2.3293
 Frc consts  --      1.2661                 1.0046                 2.0357
 IR Inten    --     66.8520                 0.3221                72.1258

                     43                     44                     45
                      A                      A                      A
 Frequencies --   1244.2566              1296.2603              1320.3812
 Red. masses --      1.0617                 1.7748                 3.0103
 Frc consts  --      0.9685                 1.7571                 3.0921
 IR Inten    --      0.6674                42.8331               120.4766

                     46                     47                     48
                      A                      A                      A
 Frequencies --   1327.8649              1371.9103              1397.0100
 Red. masses --      4.9362                 6.1197                 2.2524
 Frc consts  --      5.1281                 6.7862                 2.5900
 IR Inten    --     62.1528                 6.5494               106.4816

                     49                     50                     51
                      A                      A                      A
 Frequencies --   1442.7313              1482.3108              1495.6184
 Red. masses --      2.1367                 2.3151                 2.4003
 Frc consts  --      2.6204                 2.9970                 3.1634
 IR Inten    --      1.9353                22.4623                35.6554

                     52                     53                     54
                      A                      A                      A
 Frequencies --   1512.7719              1565.2504              1594.1404
 Red. masses --      2.9867                 1.2478                 4.0696
 Frc consts  --      4.0271                 1.8012                 6.0933
 IR Inten    --     17.8074                21.4343                49.1517

                     55                     56                     57
                      A                      A                      A
 Frequencies --   1617.1541              1652.9036              1665.2545
 Red. masses --      5.7293                 5.8939                 5.0341
 Frc consts  --      8.8279                 9.4875                 8.2249
 IR Inten    --     37.3915                 0.6585               262.2697

                     58                     59                     60
                      A                      A                      A
 Frequencies --   2218.6897              2977.9997              2988.9420
 Red. masses --     13.9576                 1.0552                 1.1084
 Frc consts  --     40.4812                 5.5134                 5.8340
 IR Inten    --    650.1903                52.4647                43.8783

                     61                     62                     63
                      A                      A                      A
 Frequencies --   3184.8846              3193.9504              3203.4644
 Red. masses --      1.0857                 1.0882                 1.0932
 Frc consts  --      6.4885                 6.5406                 6.6099
 IR Inten    --      3.6706                 1.9826                23.9555

                     64                     65                     66
                      A                      A                      A
 Frequencies --   3214.5073              3229.5470              3252.8230
 Red. masses --      1.0972                 1.0881                 1.0959
 Frc consts  --      6.6795                 6.6867                 6.8319
 IR Inten    --     30.9941                 3.5884                 5.2700

 - Thermochemistry -
 -------------------
 Temperature   298.150 Kelvin.  Pressure   1.00000 Atm.
 Atom     1 has atomic number  6 and mass  12.00000

 Molecular mass:   228.04697 amu.
 Principal axes and moments of inertia in atomic units:
                           1         2         3
     Eigenvalues --  1430.148316774.440828193.37950
           X            0.99990   0.01407   0.00000
           Y           -0.01407   0.99990  -0.00001
           Z           -0.00000   0.00001   1.00000
 This molecule is an asymmetric top.
 Rotational symmetry number  1.
 Warning -- assumption of classical behavior for rotation
           may cause significant error
 Rotational temperatures (Kelvin)      0.06056     0.01279     0.01057
 Rotational constants (GHZ):           1.26193     0.26640     0.22027
    2 imaginary frequencies ignored.
 Zero-point vibrational energy     456978.8 (Joules/Mol)
                                  109.22056 (Kcal/Mol)
 Warning -- explicit consideration of  17 degrees of freedom as
           vibrations may cause significant error
 Vibrational temperatures:     49.74   154.72   166.06   207.54   260.32
          (Kelvin)            326.16   396.05   451.63   537.49   598.78
                              603.48   624.57   669.59   713.99   734.77
                              797.53   879.00   904.70   919.01   975.66
                             1011.69  1037.66  1058.68  1101.45  1122.11
                             1221.37  1237.06  1263.03  1336.86  1402.65
                             1450.94  1485.90  1517.99  1530.68  1557.71
                             1610.58  1669.94  1715.92  1720.10  1752.33
                             1790.21  1865.03  1899.73  1910.50  1973.87
                             2009.99  2075.77  2132.71  2151.86  2176.54
                             2252.05  2293.61  2326.72  2378.16  2395.93
                             3192.20  4284.68  4300.42  4582.34  4595.38
                             4609.07  4624.96  4646.60  4680.09

 Zero-point correction=                           0.174054 (Hartree/Particle)
 Thermal correction to Energy=                    0.185548
 Thermal correction to Enthalpy=                  0.186492
 Thermal correction to Gibbs Free Energy=         0.135388
 Sum of electronic and zero-point Energies=          -1040.944630
 Sum of electronic and thermal Energies=             -1040.933136
 Sum of electronic and thermal Enthalpies=           -1040.932192
 Sum of electronic and thermal Free Energies=        -1040.983295

                     E (Thermal)             CV                S
                      KCal/Mol        Cal/Mol-Kelvin    Cal/Mol-Kelvin
 Total                  116.433             45.734            107.557
 Electronic               0.000              0.000              0.000
 Translational            0.889              2.981             42.175
 Rotational               0.889              2.981             32.740
 Vibrational            114.656             39.773             32.642
 Vibration     1          0.594              1.983              5.548
 Vibration     2          0.606              1.943              3.313
 Vibration     3          0.608              1.937              3.176
 Vibration     4          0.616              1.909              2.747
 Vibration     5          0.630              1.866              2.319
 Vibration     6          0.650              1.800              1.905
 Vibration     7          0.677              1.719              1.563
 Vibration     8          0.702              1.647              1.342
 Vibration     9          0.745              1.526              1.065
 Vibration    10          0.779              1.435              0.905
 Vibration    11          0.782              1.428              0.894
 Vibration    12          0.795              1.396              0.845
 Vibration    13          0.823              1.327              0.751
 Vibration    14          0.852              1.258              0.668
 Vibration    15          0.866              1.226              0.632
 Vibration    16          0.910              1.130              0.535
 Vibration    17          0.970              1.009              0.431

 Optimization completed.
    -- Stationary point found.
 Normal termination of Gaussian 16 at Sun Dec 13 12:27:55 2020.

 ----------------------------------------------------------------------
 # B3LYP/6-311++G(d,p) empiricaldispersion=gd3bj scf=xqc pop=npa geom=c
 heck
 ----------------------------------------------------------------------

 ---------------------------------------
 CID_150147938_JID_6507_Energie_neutraal
 ---------------------------------------
 Structure from the checkpoint file:  "JID_6507.chk"
 Charge =  0 Multiplicity = 1

 SCF Done:  E(RB3LYP) =  -1041.30763195     A.U. after   18 cycles
 Normal termination of Gaussian 16 at Sun Dec 13 12:31:46 2020.

 ----------------------------------------------------------------------
 # B3LYP/6-311++G(d,p) empiricaldispersion=gd3bj scf=xqc pop=npa geom=c
 heck
 ----------------------------------------------------------------------

 -------------------------------------
 CID_150147938_JID_6507_Energie_kation
 -------------------------------------
 Structure from the checkpoint file:  "JID_6507.chk"
 Charge =  1 Multiplicity = 2

 SCF Done:  E(UB3LYP) =  -1041.05984707     A.U. after   25 cycles
 Normal termination of Gaussian 16 at Sun Dec 13 12:39:20 2020.
 Gaussian 16:  ES64L-G16RevA.03 25-Dec-2016

 ----------------------------------------------------------------------
 # B3LYP/6-311++G(d,p) empiricaldispersion=gd3bj scf=xqc pop=npa geom=c
 heck
 ----------------------------------------------------------------------

 ------------------------------------
 CID_150147938_JID_6507_Energie_anion
 ------------------------------------
 Structure from the checkpoint file:  "JID_6507.chk"
 Charge = -1 Multiplicity = 2

                         Standard orientation:
 ---------------------------------------------------------------------
 Center     Atomic      Atomic             Coordinates (Angstroms)
 Number     Number       Type             X           Y           Z
 ---------------------------------------------------------------------
      1          6           0        1.018113   -1.108282    0.000799
      2          6           0       -0.147765   -0.156809    0.000319
      3          6           0        0.017869    1.204020    0.000259
      4          6           0        1.311429    1.831792    0.000354
      5          6           0        2.392429    1.012765    0.000112
      6          7           0        2.278622   -0.355648   -0.000175
      7          7           0        3.375929   -1.232364   -0.000390
      8          7           0        4.494539   -0.697895   -0.000310
      9          7           0        5.588281   -0.348572   -0.000349
     10         16           0       -1.514444    2.068115   -0.000096
     11          6           0       -2.404093    0.548376   -0.000120
     12          6           0       -3.788116    0.384498   -0.000337
     13          6           0       -4.303944   -0.909586   -0.000311
     14          6           0       -3.448025   -2.023148   -0.000066
     15          6           0       -2.068407   -1.860932    0.000154
     16          6           0       -1.521620   -0.564823    0.000119
     17          1           0        0.997501   -1.767497    0.883721
     18          1           0        0.997101   -1.768812   -0.881101
     19          1           0        1.435961    2.906133    0.000479
     20          1           0        3.405806    1.396709    0.000007
     21          1           0       -4.449628    1.245623   -0.000523
     22          1           0       -5.379817   -1.056561   -0.000479
     23          1           0       -3.871284   -3.023370   -0.000046
     24          1           0       -1.413359   -2.727932    0.000347
 ---------------------------------------------------------------------

 SCF Done:  E(UB3LYP) =  -1041.31579077     A.U. after   33 cycles
 SCF Done:  E(UB3LYP) =  -1041.31579077     a.u. after    1 cycles

 The electronic state is 2-A.
 Alpha  occ. eigenvalues --  -88.73046 -14.35208 -14.27647 -14.26314 -14.25347
 Alpha  occ. eigenvalues --  -10.09475 -10.07065 -10.06464 -10.05247 -10.04729
 Alpha  occ. eigenvalues --  -10.04720 -10.04654 -10.03852 -10.03822 -10.02732
 Alpha  occ. eigenvalues --  -10.02600  -7.81706  -5.78026  -5.77686  -5.77229
 Alpha  occ. eigenvalues --   -1.02839  -0.90754  -0.79565  -0.75311  -0.69803
 Alpha  occ. eigenvalues --   -0.65451  -0.64375  -0.60820  -0.58878  -0.53365
 Alpha  occ. eigenvalues --   -0.52252  -0.47355  -0.46211  -0.44099  -0.40378
 Alpha  occ. eigenvalues --   -0.40339  -0.37494  -0.36093  -0.35155  -0.34181
 Alpha  occ. eigenvalues --   -0.33957  -0.33315  -0.31440  -0.30863  -0.29239
 Alpha  occ. eigenvalues --   -0.27899  -0.26639  -0.23948  -0.23831  -0.22733
 Alpha  occ. eigenvalues --   -0.21963  -0.21444  -0.21145  -0.20304  -0.16630
 Alpha  occ. eigenvalues --   -0.14937  -0.11394  -0.09459  -0.04582   0.04472
 Alpha virt. eigenvalues --    0.05915   0.08204   0.09407   0.09679   0.10588
 Alpha virt. eigenvalues --    0.10814   0.10974   0.11268   0.12190   0.12699
 Alpha virt. eigenvalues --    0.13594   0.14556   0.14701   0.14871   0.15051

  Beta  occ. eigenvalues --  -88.73018 -14.34963 -14.27732 -14.26043 -14.25313
  Beta  occ. eigenvalues --  -10.09483 -10.07057 -10.06020 -10.04945 -10.04790
  Beta  occ. eigenvalues --  -10.04655 -10.04636 -10.03692 -10.03652 -10.02657
  Beta  occ. eigenvalues --  -10.02617  -7.81681  -5.78016  -5.77677  -5.77133
  Beta  occ. eigenvalues --   -1.02478  -0.90574  -0.79337  -0.75112  -0.69510
  Beta  occ. eigenvalues --   -0.65035  -0.64141  -0.60571  -0.58623  -0.53151
  Beta  occ. eigenvalues --   -0.51952  -0.47085  -0.46044  -0.43919  -0.40180
  Beta  occ. eigenvalues --   -0.39418  -0.37230  -0.35815  -0.34985  -0.33824
  Beta  occ. eigenvalues --   -0.33516  -0.33019  -0.31337  -0.30709  -0.29120
  Beta  occ. eigenvalues --   -0.27834  -0.26105  -0.23778  -0.23017  -0.22620
  Beta  occ. eigenvalues --   -0.21847  -0.21405  -0.20235  -0.20195  -0.15815
  Beta  occ. eigenvalues --   -0.14100  -0.10514  -0.08632  -0.03668
  Beta virt. eigenvalues --    0.06188   0.08181   0.09394   0.09570   0.09664
  Beta virt. eigenvalues --    0.10573   0.11169   0.11260   0.12020   0.12189
  Beta virt. eigenvalues --    0.13051   0.13579   0.14555   0.14915   0.15161

 Mulliken charges and spin densities:
               1          2
     1  C   -0.817204   0.003416
     2  C    0.156654   0.053879
     3  C    0.417001   0.198704
     4  C    0.153086  -0.046904
     5  C   -0.396520   0.333116
     6  N    0.189001  -0.001923
     7  N    0.000804  -0.028261
     8  N    0.286981   0.078614
     9  N   -0.327150   0.141330
    10  S   -0.767346   0.043577
    11  C   -0.098858   0.006908
    12  C   -0.241719   0.043868
    13  C   -0.243755   0.139000
    14  C   -0.583483  -0.046800
    15  C   -0.504407   0.133605
    16  C    0.722087  -0.005152
    17  H    0.175833   0.000064
    18  H    0.175889   0.000131
    19  H    0.113713   0.001549
    20  H    0.148366  -0.027629
    21  H    0.112871  -0.005541
    22  H    0.108312  -0.010041
    23  H    0.116267   0.003315
    24  H    0.103577  -0.008825
 Sum of Mulliken charges =  -1.00000   1.00000

 Dipole moment (field-independent basis, Debye):
    X=             -1.5997    Y=             -0.4750    Z=              0.0006  Tot=              1.6688
 Quadrupole moment (field-independent basis, Debye-Ang):
   XX=           -163.1585   YY=           -112.1931   ZZ=           -111.2080
   XY=             -0.3857   XZ=              0.0026   YZ=             -0.0021

 Summary of Natural Population Analysis:

                                       Natural Population
                Natural  -----------------------------------------------
    Atom  No    Charge         Core      Valence    Rydberg      Total
 -----------------------------------------------------------------------
      C    1   -0.06916      0.99959     2.06086    0.00871     3.06916
      C    2   -0.05381      0.99941     2.04498    0.00942     3.05381
      C    3   -0.02199      0.99929     2.00963    0.01307     3.02199
      C    4   -0.18517      0.99941     2.17324    0.01253     3.18517
      C    5    0.09283      0.99956     1.89644    0.01118     2.90717
      N    6   -0.14019      0.99965     2.62916    0.01139     3.64019
      N    7   -0.11357      0.99970     2.59858    0.01529     3.61357
      N    8    0.12109      0.99972     2.36375    0.01544     3.37891
      N    9   -0.02280      0.99983     2.50909    0.01389     3.52280
      S   10    0.17965      4.99943     2.80211    0.01882     7.82035
      C   11   -0.08660      0.99942     2.07548    0.01170     3.08660
      C   12   -0.10671      0.99950     2.09737    0.00984     3.10671
      C   13   -0.09247      0.99958     2.08245    0.01044     3.09247
      C   14   -0.12484      0.99958     2.11574    0.00951     3.12484
      C   15   -0.08013      0.99955     2.07092    0.00966     3.08013
      C   16   -0.02803      0.99937     2.01921    0.00944     3.02803
      H   17    0.08735      0.00000     0.41035    0.00230     0.41265
      H   18    0.08740      0.00000     0.41030    0.00229     0.41260
      H   19    0.09958      0.00000     0.39909    0.00133     0.40042
      H   20    0.09018      0.00000     0.40860    0.00121     0.40982
      H   21    0.09376      0.00000     0.40462    0.00162     0.40624
      H   22    0.08932      0.00000     0.40965    0.00103     0.41068
      H   23    0.09124      0.00000     0.40769    0.00108     0.40876
      H   24    0.09316      0.00000     0.40548    0.00137     0.40684
 =======================================================================
   * Total *    0.00009     19.99258    38.80477    0.20256    58.99991

 Normal termination of Gaussian 16 at Sun Dec 13 12:49:11 2020.
