 Gaussian 16, Revision A.03,

 -----------------------------------------------------------
 # opt freq B3LYP/6-31G(d) empiricaldispersion=gd3bj scf=xqc
 -----------------------------------------------------------

 ------------------------------
 CID_62680942_JID_1752_neutraal
 ------------------------------
 Symbolic Z-matrix:
 Charge =  0 Multiplicity = 1

 SCF Done:  E(RB3LYP) =  -499.228956240     A.U. after   15 cycles
 SCF Done:  E(RB3LYP) =  -499.232345517     A.U. after   12 cycles
 SCF Done:  E(RB3LYP) =  -499.232794705     A.U. after   12 cycles
 SCF Done:  E(RB3LYP) =  -499.233379288     A.U. after   12 cycles
 SCF Done:  E(RB3LYP) =  -499.233406220     A.U. after   10 cycles
 SCF Done:  E(RB3LYP) =  -499.233524662     A.U. after   11 cycles
 SCF Done:  E(RB3LYP) =  -499.233588418     A.U. after   10 cycles
 SCF Done:  E(RB3LYP) =  -499.233636048     A.U. after   10 cycles
 SCF Done:  E(RB3LYP) =  -499.233662895     A.U. after   10 cycles
 SCF Done:  E(RB3LYP) =  -499.233684939     A.U. after   10 cycles
 SCF Done:  E(RB3LYP) =  -499.233957509     A.U. after   10 cycles
 SCF Done:  E(RB3LYP) =  -499.233962784     A.U. after    9 cycles
 SCF Done:  E(RB3LYP) =  -499.233964318     A.U. after    9 cycles
 SCF Done:  E(RB3LYP) =  -499.233965401     A.U. after    9 cycles
 SCF Done:  E(RB3LYP) =  -499.233965429     A.U. after    8 cycles
 SCF Done:  E(RB3LYP) =  -499.233965515     A.U. after    8 cycles
 Optimization completed.
    -- Stationary point found.
 Normal termination of Gaussian 16 at Tue Dec  8 21:05:33 2020.

 --------------------------------------------------------------------
 #N Geom=AllCheck Guess=TCheck SCRF=Check GenChk RB3LYP/6-31G(d) Freq
 --------------------------------------------------------------------

 Structure from the checkpoint file:  "JID_1752.chk"
 ------------------------------
 CID_62680942_JID_1752_neutraal
 ------------------------------
 Charge =  0 Multiplicity = 1

 SCF Done:  E(RB3LYP) =  -499.233965515     A.U. after    1 cycles

  Exact polarizability: 101.250  -5.907 104.039  -5.796  -6.416  93.657
 Approx polarizability: 126.783  -7.522 160.913  -9.099 -14.330 132.297

                      1                      2                      3
                      A                      A                      A
 Frequencies --     46.0944                54.2304                65.1753
 Red. masses --      3.3393                 4.1965                 2.8397
 Frc consts  --      0.0042                 0.0073                 0.0071
 IR Inten    --      0.6757                 3.3913                 0.3162

                      4                      5                      6
                      A                      A                      A
 Frequencies --     80.2040                97.6020               114.1956
 Red. masses --      2.8807                 1.4299                 2.3140
 Frc consts  --      0.0109                 0.0080                 0.0178
 IR Inten    --      0.7020                 0.3525                 0.6254

                      7                      8                      9
                      A                      A                      A
 Frequencies --    124.9736               192.8598               212.3885
 Red. masses --      2.8666                 2.4754                 2.4069
 Frc consts  --      0.0264                 0.0542                 0.0640
 IR Inten    --      1.1481                 0.9543                 3.7266

                     10                     11                     12
                      A                      A                      A
 Frequencies --    277.0986               308.3836               330.1659
 Red. masses --      1.5507                 2.4107                 2.0666
 Frc consts  --      0.0702                 0.1351                 0.1327
 IR Inten    --     51.7800                14.3058                27.6076

                     13                     14                     15
                      A                      A                      A
 Frequencies --    365.2266               423.5268               445.4782
 Red. masses --      2.4085                 2.1542                 2.3240
 Frc consts  --      0.1893                 0.2277                 0.2717
 IR Inten    --      5.7685                 1.3797                 3.7554

                     16                     17                     18
                      A                      A                      A
 Frequencies --    469.3751               506.7904               590.6449
 Red. masses --      2.4330                 2.3089                 3.5794
 Frc consts  --      0.3158                 0.3494                 0.7357
 IR Inten    --      4.3922                15.4679                10.1574

                     19                     20                     21
                      A                      A                      A
 Frequencies --    653.0585               695.2337               760.2929
 Red. masses --      1.9750                 2.3883                 2.5596
 Frc consts  --      0.4963                 0.6801                 0.8717
 IR Inten    --     13.1882                 1.7452                 1.4843

                     22                     23                     24
                      A                      A                      A
 Frequencies --    851.7743               877.3233               890.5194
 Red. masses --      2.2804                 1.9344                 1.6126
 Frc consts  --      0.9748                 0.8772                 0.7535
 IR Inten    --      6.5721                31.4796                14.4920

                     25                     26                     27
                      A                      A                      A
 Frequencies --    907.4741               925.2041               939.5453
 Red. masses --      1.5325                 1.8842                 1.3541
 Frc consts  --      0.7436                 0.9503                 0.7043
 IR Inten    --     56.9738                 1.5929                38.6077

                     28                     29                     30
                      A                      A                      A
 Frequencies --    989.5531              1027.0999              1037.5326
 Red. masses --      1.9798                 2.1781                 1.2883
 Frc consts  --      1.1422                 1.3538                 0.8171
 IR Inten    --      3.8131                 3.6951                25.9571

                     31                     32                     33
                      A                      A                      A
 Frequencies --   1051.2485              1075.0531              1123.7523
 Red. masses --      1.4801                 2.0326                 1.8894
 Frc consts  --      0.9637                 1.3841                 1.4058
 IR Inten    --      8.1839                16.9905                 6.9988

                     34                     35                     36
                      A                      A                      A
 Frequencies --   1135.0167              1149.0531              1161.4241
 Red. masses --      1.7011                 2.0671                 1.3021
 Frc consts  --      1.2912                 1.6081                 1.0349
 IR Inten    --     56.0845                42.7233                 6.2419

                     37                     38                     39
                      A                      A                      A
 Frequencies --   1193.0186              1214.2425              1261.9023
 Red. masses --      1.3578                 1.4120                 1.6197
 Frc consts  --      1.1386                 1.2265                 1.5196
 IR Inten    --      4.2763                 5.2078                58.9307

                     40                     41                     42
                      A                      A                      A
 Frequencies --   1278.7736              1302.1569              1334.8996
 Red. masses --      1.4654                 2.0717                 1.2216
 Frc consts  --      1.4119                 2.0697                 1.2826
 IR Inten    --      1.9323                15.9217                 1.2600

                     43                     44                     45
                      A                      A                      A
 Frequencies --   1353.8746              1366.8232              1379.7355
 Red. masses --      1.2799                 1.2699                 1.3799
 Frc consts  --      1.3822                 1.3978                 1.5477
 IR Inten    --      4.2460                 9.7495                 2.3931

                     46                     47                     48
                      A                      A                      A
 Frequencies --   1412.0225              1441.3358              1448.8115
 Red. masses --      1.2855                 1.5905                 1.3820
 Frc consts  --      1.5101                 1.9468                 1.7092
 IR Inten    --     13.1693                46.3347                32.8727

                     49                     50                     51
                      A                      A                      A
 Frequencies --   1469.9684              1477.0394              1510.1360
 Red. masses --      1.5032                 1.2138                 1.1226
 Frc consts  --      1.9138                 1.5603                 1.5083
 IR Inten    --     75.4114                10.5296                 9.0825

                     52                     53                     54
                      A                      A                      A
 Frequencies --   1516.6662              1529.1382              1536.2307
 Red. masses --      1.1193                 1.0679                 1.1130
 Frc consts  --      1.5170                 1.4711                 1.5476
 IR Inten    --     15.8179                 4.5409                 7.9749

                     55                     56                     57
                      A                      A                      A
 Frequencies --   1545.8282              1552.1084              1692.0221
 Red. masses --      1.1305                 1.0933                 1.0968
 Frc consts  --      1.5916                 1.5518                 1.8501
 IR Inten    --     20.2893                 9.3003                40.2826

                     58                     59                     60
                      A                      A                      A
 Frequencies --   1733.4521              1751.2737              2959.3991
 Red. masses --      4.4684                 9.0568                 1.0732
 Frc consts  --      7.9109                16.3656                 5.5380
 IR Inten    --      4.4898               292.4717                78.1896

                     61                     62                     63
                      A                      A                      A
 Frequencies --   3033.6830              3047.3247              3048.7021
 Red. masses --      1.0460                 1.0598                 1.0731
 Frc consts  --      5.6716                 5.7985                 5.8768
 IR Inten    --     44.2704                26.9873                40.8368

                     64                     65                     66
                      A                      A                      A
 Frequencies --   3077.3745              3085.4802              3093.6452
 Red. masses --      1.0882                 1.0732                 1.0961
 Frc consts  --      6.0721                 6.0198                 6.1805
 IR Inten    --     41.9362                 8.2353                26.2403

                     67                     68                     69
                      A                      A                      A
 Frequencies --   3093.9358              3143.6047              3149.1110
 Red. masses --      1.0957                 1.0802                 1.0989
 Frc consts  --      6.1794                 6.2893                 6.4210
 IR Inten    --     27.4562                23.2820                 5.9764

                     70                     71                     72
                      A                      A                      A
 Frequencies --   3156.5102              3169.3476              3194.3589
 Red. masses --      1.0703                 1.0912                 1.0965
 Frc consts  --      6.2833                 6.4578                 6.5923
 IR Inten    --      4.1835                10.2964                 1.3159

                     73                     74                     75
                      A                      A                      A
 Frequencies --   3234.4638              3473.2007              3556.5096
 Red. masses --      1.1157                 1.0499                 1.0921
 Frc consts  --      6.8770                 7.4624                 8.1390
 IR Inten    --     19.1901                 0.6611                 0.0284

 - Thermochemistry -
 -------------------
 Temperature   298.150 Kelvin.  Pressure   1.00000 Atm.
 Atom     1 has atomic number  6 and mass  12.00000

 Molecular mass:   156.12626 amu.
 Principal axes and moments of inertia in atomic units:
                           1         2         3
     Eigenvalues --  1449.604692331.282672809.35484
           X            0.99991  -0.00727  -0.01108
           Y            0.00748   0.99980   0.01870
           Z            0.01094  -0.01878   0.99976
 This molecule is an asymmetric top.
 Rotational symmetry number  1.
 Warning -- assumption of classical behavior for rotation
           may cause significant error
 Rotational temperatures (Kelvin)      0.05975     0.03715     0.03083
 Rotational constants (GHZ):           1.24499     0.77414     0.64240
 Zero-point vibrational energy     632661.1 (Joules/Mol)
                                  151.20964 (Kcal/Mol)
 Warning -- explicit consideration of  18 degrees of freedom as
           vibrations may cause significant error
 Vibrational temperatures:     66.32    78.03    93.77   115.40   140.43
          (Kelvin)            164.30   179.81   277.48   305.58   398.68
                              443.70   475.04   525.48   609.36   640.94
                              675.33   729.16   849.81   939.61  1000.29
                             1093.89  1225.51  1262.27  1281.26  1305.65
                             1331.16  1351.80  1423.75  1477.77  1492.78
                             1512.51  1546.76  1616.83  1633.04  1653.23
                             1671.03  1716.49  1747.02  1815.60  1839.87
                             1873.51  1920.62  1947.92  1966.55  1985.13
                             2031.59  2073.76  2084.52  2114.96  2125.13
                             2172.75  2182.14  2200.09  2210.29  2224.10
                             2233.14  2434.44  2494.05  2519.69  4257.92
                             4364.79  4384.42  4386.40  4427.66  4439.32
                             4451.07  4451.48  4522.95  4530.87  4541.51
                             4559.98  4595.97  4653.67  4997.16  5117.02

 Zero-point correction=                           0.240968 (Hartree/Particle)
 Thermal correction to Energy=                    0.254148
 Thermal correction to Enthalpy=                  0.255092
 Thermal correction to Gibbs Free Energy=         0.200432
 Sum of electronic and zero-point Energies=           -498.992998
 Sum of electronic and thermal Energies=              -498.979818
 Sum of electronic and thermal Enthalpies=            -498.978874
 Sum of electronic and thermal Free Energies=         -499.033534

                     E (Thermal)             CV                S
                      KCal/Mol        Cal/Mol-Kelvin    Cal/Mol-Kelvin
 Total                  159.480             46.766            115.042
 Electronic               0.000              0.000              0.000
 Translational            0.889              2.981             41.046
 Rotational               0.889              2.981             30.630
 Vibrational            157.703             40.805             43.366
 Vibration     1          0.595              1.979              4.978
 Vibration     2          0.596              1.976              4.657
 Vibration     3          0.597              1.971              4.294
 Vibration     4          0.600              1.963              3.886
 Vibration     5          0.603              1.951              3.502
 Vibration     6          0.607              1.938              3.196
 Vibration     7          0.610              1.928              3.022
 Vibration     8          0.635              1.850              2.200
 Vibration     9          0.643              1.822              2.023
 Vibration    10          0.678              1.716              1.552
 Vibration    11          0.698              1.658              1.371
 Vibration    12          0.713              1.615              1.259
 Vibration    13          0.738              1.544              1.100
 Vibration    14          0.786              1.419              0.880
 Vibration    15          0.805              1.371              0.810
 Vibration    16          0.826              1.318              0.739
 Vibration    17          0.862              1.235              0.641
 Vibration    18          0.948              1.052              0.466

 Optimization completed.
    -- Stationary point found.
 Normal termination of Gaussian 16 at Tue Dec  8 21:11:51 2020.

 ----------------------------------------------------------------------
 # B3LYP/6-311++G(d,p) empiricaldispersion=gd3bj scf=xqc pop=npa geom=c
 heck
 ----------------------------------------------------------------------

 --------------------------------------
 CID_62680942_JID_1752_Energie_neutraal
 --------------------------------------
 Structure from the checkpoint file:  "JID_1752.chk"
 Charge =  0 Multiplicity = 1

 SCF Done:  E(RB3LYP) =  -499.388469872     A.U. after   14 cycles
 Normal termination of Gaussian 16 at Tue Dec  8 21:14:50 2020.

 ----------------------------------------------------------------------
 # B3LYP/6-311++G(d,p) empiricaldispersion=gd3bj scf=xqc pop=npa geom=c
 heck
 ----------------------------------------------------------------------

 ------------------------------------
 CID_62680942_JID_1752_Energie_kation
 ------------------------------------
 Structure from the checkpoint file:  "JID_1752.chk"
 Charge =  1 Multiplicity = 2

 SCF Done:  E(UB3LYP) =  -499.079439613     A.U. after   24 cycles
 Normal termination of Gaussian 16 at Tue Dec  8 21:21:55 2020.
 Gaussian 16:  ES64L-G16RevA.03 25-Dec-2016

 ----------------------------------------------------------------------
 # B3LYP/6-311++G(d,p) empiricaldispersion=gd3bj scf=xqc pop=npa geom=c
 heck
 ----------------------------------------------------------------------

 -----------------------------------
 CID_62680942_JID_1752_Energie_anion
 -----------------------------------
 Structure from the checkpoint file:  "JID_1752.chk"
 Charge = -1 Multiplicity = 2

                         Standard orientation:
 ---------------------------------------------------------------------
 Center     Atomic      Atomic             Coordinates (Angstroms)
 Number     Number       Type             X           Y           Z
 ---------------------------------------------------------------------
      1          6           0       -1.752896    1.436420    1.311065
      2          7           0       -0.923250    0.570827    0.482540
      3          6           0       -0.986926   -0.857719    0.789540
      4          6           0       -2.174539   -1.560805    0.127748
      5          7           0       -2.048743   -1.493655   -1.328961
      6          6           0       -0.043972    1.164208   -0.398044
      7          8           0        0.049486    2.386625   -0.487177
      8          6           0        0.836440    0.278740   -1.274013
      9          6           0        2.295596    0.268035   -0.761665
     10          6           0        2.438905   -0.327674    0.611036
     11          6           0        3.075846   -1.465781    0.889211
     12          1           0       -1.386982    1.454545    2.346883
     13          1           0       -2.787836    1.077581    1.317268
     14          1           0       -1.712949    2.444884    0.903116
     15          1           0       -0.058575   -1.342941    0.490809
     16          1           0       -1.063531   -0.961831    1.879773
     17          1           0       -2.153757   -2.615265    0.428215
     18          1           0       -3.116620   -1.136490    0.519510
     19          1           0       -2.813151   -2.001830   -1.769293
     20          1           0       -2.144064   -0.522759   -1.623473
     21          1           0        0.451382   -0.735565   -1.386706
     22          1           0        0.822223    0.748732   -2.262363
     23          1           0        2.916850   -0.286710   -1.474233
     24          1           0        2.650446    1.306634   -0.751390
     25          1           0        1.968298    0.229357    1.422546
     26          1           0        3.144793   -1.853144    1.902178
     27          1           0        3.560803   -2.050951    0.110249
 ---------------------------------------------------------------------

 SCF Done:  E(UB3LYP) =  -499.375922086     A.U. after   32 cycles

 The electronic state is 2-A.
 Alpha  occ. eigenvalues --  -18.98075 -14.24012 -14.18701 -10.16631 -10.09844
 Alpha  occ. eigenvalues --  -10.08883 -10.08620 -10.08593 -10.08524 -10.07686
 Alpha  occ. eigenvalues --  -10.07445  -0.93359  -0.83307  -0.77451  -0.71718
 Alpha  occ. eigenvalues --   -0.65490  -0.63519  -0.60011  -0.54648  -0.51696
 Alpha  occ. eigenvalues --   -0.47127  -0.43267  -0.40502  -0.39955  -0.37895
 Alpha  occ. eigenvalues --   -0.37324  -0.35518  -0.34847  -0.33983  -0.32164
 Alpha  occ. eigenvalues --   -0.30739  -0.29688  -0.28456  -0.27870  -0.27538
 Alpha  occ. eigenvalues --   -0.26924  -0.25833  -0.25358  -0.24094  -0.17371
 Alpha  occ. eigenvalues --   -0.15384  -0.14961  -0.13268   0.04538
 Alpha virt. eigenvalues --    0.06836   0.07207   0.07961   0.08735   0.09096
 Alpha virt. eigenvalues --    0.09312   0.10426   0.10532   0.11136   0.11913
 Alpha virt. eigenvalues --    0.12344   0.12612   0.13002   0.13671   0.14294

  Beta  occ. eigenvalues --  -18.98062 -14.24017 -14.18660 -10.16618 -10.09825
  Beta  occ. eigenvalues --  -10.08845 -10.08614 -10.08587 -10.08479 -10.07682
  Beta  occ. eigenvalues --  -10.07428  -0.93336  -0.83294  -0.77381  -0.71705
  Beta  occ. eigenvalues --   -0.65468  -0.63454  -0.59960  -0.54612  -0.51603
  Beta  occ. eigenvalues --   -0.47085  -0.43224  -0.40463  -0.39899  -0.37861
  Beta  occ. eigenvalues --   -0.37276  -0.35479  -0.34780  -0.33949  -0.32141
  Beta  occ. eigenvalues --   -0.30704  -0.29656  -0.28418  -0.27810  -0.27482
  Beta  occ. eigenvalues --   -0.26900  -0.25798  -0.25322  -0.24067  -0.17356
  Beta  occ. eigenvalues --   -0.15367  -0.14922  -0.13229
  Beta virt. eigenvalues --    0.06781   0.07602   0.07948   0.08457   0.09030
  Beta virt. eigenvalues --    0.09683   0.09852   0.10508   0.11191   0.11630
  Beta virt. eigenvalues --    0.12298   0.12628   0.13055   0.13322   0.13865

 Mulliken charges and spin densities:
               1          2
     1  C    0.907770  -1.165123
     2  N   -0.055631   0.130954
     3  C   -1.350905   1.060633
     4  C    2.646351  -3.148948
     5  N   -0.550874   0.163325
     6  C   -0.530997   0.342762
     7  O   -0.335934   0.007936
     8  C    0.065221  -0.200665
     9  C    0.056996  -0.738055
    10  C   -0.472750   0.911064
    11  C    0.383966  -0.956482
    12  H   -0.347603   0.508328
    13  H   -0.234627   0.382133
    14  H    0.063250   0.103580
    15  H    0.249251  -0.012822
    16  H   -0.345438   0.509090
    17  H   -0.732391   0.909993
    18  H   -0.481320   0.626406
    19  H   -0.259588   0.531198
    20  H    0.061448   0.160298
    21  H    0.292269  -0.105477
    22  H    0.089901   0.101701
    23  H    0.017559   0.133931
    24  H    0.185579  -0.018454
    25  H   -0.046647   0.247901
    26  H   -0.229163   0.350807
    27  H   -0.045692   0.163984
 Sum of Mulliken charges =  -1.00000   1.00000

 Dipole moment (field-independent basis, Debye):
    X=              5.9562    Y=              2.8048    Z=             -2.3510  Tot=              6.9907
 Quadrupole moment (field-independent basis, Debye-Ang):
   XX=           -126.6492   YY=           -118.4941   ZZ=           -107.5193
   XY=            -10.2680   XZ=             -2.3746   YZ=              1.4294

 Summary of Natural Population Analysis:

                                       Natural Population
                Natural  -----------------------------------------------
    Atom  No    Charge         Core      Valence    Rydberg      Total
 -----------------------------------------------------------------------
      C    1   -0.18035      0.99963     2.17236    0.00836     3.18035
      N    2   -0.25883      0.99965     2.74740    0.01178     3.75883
      C    3   -0.09004      0.99959     2.07804    0.01240     3.09004
      C    4   -0.09169      0.99963     2.08049    0.01157     3.09169
      N    5   -0.42628      0.99977     2.91523    0.01127     3.92628
      C    6    0.34643      0.99963     1.63091    0.02303     2.65357
      O    7   -0.33539      0.99988     3.32997    0.00554     4.33539
      C    8   -0.23052      0.99957     2.22333    0.00761     3.23052
      C    9   -0.20346      0.99960     2.19560    0.00826     3.20346
      C   10   -0.08704      0.99957     2.07665    0.01082     3.08704
      C   11   -0.19350      0.99956     2.18627    0.00767     3.19350
      H   12    0.09325      0.00000     0.40536    0.00139     0.40675
      H   13    0.09760      0.00000     0.40097    0.00143     0.40240
      H   14    0.11337      0.00000     0.38554    0.00108     0.38663
      H   15    0.10570      0.00000     0.39208    0.00223     0.39430
      H   16    0.10042      0.00000     0.39669    0.00289     0.39958
      H   17    0.09542      0.00000     0.40205    0.00253     0.40458
      H   18    0.08220      0.00000     0.41345    0.00435     0.41780
      H   19    0.18112      0.00000     0.31548    0.00341     0.31888
      H   20    0.17242      0.00000     0.32518    0.00240     0.32758
      H   21    0.11450      0.00000     0.38344    0.00206     0.38550
      H   22    0.10974      0.00000     0.38917    0.00109     0.39026
      H   23    0.09754      0.00000     0.40123    0.00123     0.40246
      H   24    0.10639      0.00000     0.39222    0.00140     0.39361
      H   25    0.09654      0.00000     0.40215    0.00132     0.40346
      H   26    0.09603      0.00000     0.40283    0.00114     0.40397
      H   27    0.08843      0.00000     0.41050    0.00107     0.41157
 =======================================================================
   * Total *   -0.00000     10.99608    31.85459    0.14933    43.00000

 Normal termination of Gaussian 16 at Tue Dec  8 21:33:01 2020.
