 Gaussian 16, Revision A.03,

 -----------------------------------------------------------
 # opt freq B3LYP/6-31G(d) empiricaldispersion=gd3bj scf=xqc
 -----------------------------------------------------------

 -------------------------------
 CID_117197754_JID_4882_neutraal
 -------------------------------
 Symbolic Z-matrix:
 Charge =  0 Multiplicity = 1

 SCF Done:  E(RB3LYP) =  -650.859383922     A.U. after   14 cycles
 SCF Done:  E(RB3LYP) =  -650.861915759     A.U. after   14 cycles
 SCF Done:  E(RB3LYP) =  -650.861026168     A.U. after   14 cycles
 SCF Done:  E(RB3LYP) =  -650.864274470     A.U. after   12 cycles
 SCF Done:  E(RB3LYP) =  -650.864759369     A.U. after   12 cycles
 SCF Done:  E(RB3LYP) =  -650.865479008     A.U. after   15 cycles
 SCF Done:  E(RB3LYP) =  -650.865922780     A.U. after   13 cycles
 SCF Done:  E(RB3LYP) =  -650.866243425     A.U. after   12 cycles
 SCF Done:  E(RB3LYP) =  -650.866350541     A.U. after   12 cycles
 SCF Done:  E(RB3LYP) =  -650.866401426     A.U. after   12 cycles
 SCF Done:  E(RB3LYP) =  -650.866615091     A.U. after    9 cycles
 SCF Done:  E(RB3LYP) =  -650.866615207     A.U. after    9 cycles
 SCF Done:  E(RB3LYP) =  -650.866615245     A.U. after    8 cycles
 SCF Done:  E(RB3LYP) =  -650.866615279     A.U. after    7 cycles
 SCF Done:  E(RB3LYP) =  -650.866615294     A.U. after    7 cycles
 Optimization completed on the basis of negligible forces.
    -- Stationary point found.
 Normal termination of Gaussian 16 at Thu Dec 10 10:53:30 2020.

 --------------------------------------------------------------------
 #N Geom=AllCheck Guess=TCheck SCRF=Check GenChk RB3LYP/6-31G(d) Freq
 --------------------------------------------------------------------

 Structure from the checkpoint file:  "JID_4882.chk"
 -------------------------------
 CID_117197754_JID_4882_neutraal
 -------------------------------
 Charge =  0 Multiplicity = 1

 SCF Done:  E(RB3LYP) =  -650.866615294     A.U. after    1 cycles

  Exact polarizability: 157.919   4.458 136.915  -8.385  -2.725  62.627
 Approx polarizability: 235.071   5.081 238.068 -15.040  -2.947  95.285

                      1                      2                      3
                      A                      A                      A
 Frequencies --     21.9710                35.0588                53.6202
 Red. masses --      3.2229                 6.4366                 5.9020
 Frc consts  --      0.0009                 0.0047                 0.0100
 IR Inten    --      3.8303                 3.1595                 4.0964

                      4                      5                      6
                      A                      A                      A
 Frequencies --     95.7070               166.1679               190.2737
 Red. masses --      3.2937                 2.9184                 3.1230
 Frc consts  --      0.0178                 0.0475                 0.0666
 IR Inten    --      2.5311                 1.0727                 1.5263

                      7                      8                      9
                      A                      A                      A
 Frequencies --    205.9788               224.2508               253.0489
 Red. masses --      3.4286                 1.3611                 3.1906
 Frc consts  --      0.0857                 0.0403                 0.1204
 IR Inten    --      1.4468                 2.6341                 2.6127

                     10                     11                     12
                      A                      A                      A
 Frequencies --    285.3779               370.0602               402.8834
 Red. masses --      3.8281                 4.7089                 5.2708
 Frc consts  --      0.1837                 0.3799                 0.5041
 IR Inten    --      1.3550                 6.3399                 1.8269

                     13                     14                     15
                      A                      A                      A
 Frequencies --    437.6489               486.9820               546.5739
 Red. masses --      3.3299                 5.0755                 4.3256
 Frc consts  --      0.3758                 0.7092                 0.7614
 IR Inten    --     10.2940                 2.5375                 5.6442

                     16                     17                     18
                      A                      A                      A
 Frequencies --    556.0137               578.3396               608.6058
 Red. masses --      5.3766                 4.5338                 4.4637
 Frc consts  --      0.9793                 0.8935                 0.9741
 IR Inten    --      1.7711                 2.3207                 1.9999

                     19                     20                     21
                      A                      A                      A
 Frequencies --    639.9315               675.1486               720.2391
 Red. masses --      4.0396                 4.5623                 3.2292
 Frc consts  --      0.9747                 1.2253                 0.9870
 IR Inten    --      3.9743                 0.8900                 5.9612

                     22                     23                     24
                      A                      A                      A
 Frequencies --    740.0619               784.7545               799.3094
 Red. masses --      2.5471                 1.7274                 1.4604
 Frc consts  --      0.8219                 0.6268                 0.5497
 IR Inten    --      6.3345                48.6715                 8.7879

                     25                     26                     27
                      A                      A                      A
 Frequencies --    815.7089               858.3131               872.4175
 Red. masses --      2.3612                 5.5785                 1.3923
 Frc consts  --      0.9257                 2.4214                 0.6244
 IR Inten    --      4.9815                10.9439                 0.8810

                     28                     29                     30
                      A                      A                      A
 Frequencies --    953.7682               969.9567              1032.2539
 Red. masses --      1.2382                 5.2079                 1.8785
 Frc consts  --      0.6636                 2.8868                 1.1793
 IR Inten    --      0.2255                27.3859                10.4568

                     31                     32                     33
                      A                      A                      A
 Frequencies --   1055.9293              1073.4019              1100.1176
 Red. masses --      3.0743                 3.9609                 2.3484
 Frc consts  --      2.0196                 2.6889                 1.6746
 IR Inten    --     40.8444                22.5763                35.6520

                     34                     35                     36
                      A                      A                      A
 Frequencies --   1148.0887              1171.4022              1182.9804
 Red. masses --      3.1231                 1.9165                 1.2628
 Frc consts  --      2.4254                 1.5495                 1.0412
 IR Inten    --     56.4411                52.5657                 0.8333

                     37                     38                     39
                      A                      A                      A
 Frequencies --   1201.7721              1204.9225              1216.6006
 Red. masses --      1.4120                 1.6453                 1.7911
 Frc consts  --      1.2015                 1.4074                 1.5620
 IR Inten    --     18.1079                 7.2863                12.6212

                     40                     41                     42
                      A                      A                      A
 Frequencies --   1254.1834              1297.6104              1318.3841
 Red. masses --      1.7808                 1.5554                 2.5005
 Frc consts  --      1.6504                 1.5430                 2.5607
 IR Inten    --     30.7684                 8.7265               130.3403

                     43                     44                     45
                      A                      A                      A
 Frequencies --   1326.6591              1386.5587              1406.8818
 Red. masses --      1.8000                 4.5752                 6.4772
 Frc consts  --      1.8666                 5.1824                 7.5536
 IR Inten    --     38.6250                44.5963                42.0782

                     46                     47                     48
                      A                      A                      A
 Frequencies --   1438.7660              1464.6817              1484.6764
 Red. masses --      1.1856                 2.8213                 1.1081
 Frc consts  --      1.4461                 3.5660                 1.4391
 IR Inten    --      6.9681                19.7482                 9.3399

                     49                     50                     51
                      A                      A                      A
 Frequencies --   1500.5969              1521.7477              1527.3962
 Red. masses --      1.2825                 1.0483                 1.0475
 Frc consts  --      1.7016                 1.4302                 1.4398
 IR Inten    --     27.5464                 6.3777                31.3184

                     52                     53                     54
                      A                      A                      A
 Frequencies --   1545.2109              1645.0472              1651.0324
 Red. masses --      2.7663                 6.4955                 6.7792
 Frc consts  --      3.8915                10.3567                10.8878
 IR Inten    --     52.7148                16.4380                36.3667

                     55                     56                     57
                      A                      A                      A
 Frequencies --   1668.3085              1837.2418              2921.6586
 Red. masses --      7.4935                 9.7763                 1.0848
 Frc consts  --     12.2882                19.4427                 5.4559
 IR Inten    --     75.3960               229.8855                83.1751

                     58                     59                     60
                      A                      A                      A
 Frequencies --   3024.6074              3057.9961              3122.5075
 Red. masses --      1.0683                 1.0307                 1.0941
 Frc consts  --      5.7580                 5.6788                 6.2852
 IR Inten    --     13.4812                44.7431                 9.4651

                     61                     62                     63
                      A                      A                      A
 Frequencies --   3129.2275              3163.6350              3193.8207
 Red. masses --      1.1073                 1.1051                 1.0863
 Frc consts  --      6.3885                 6.5165                 6.5285
 IR Inten    --     31.6143                28.7660                 6.5249

                     64                     65                     66
                      A                      A                      A
 Frequencies --   3209.2405              3221.2017              3289.2116
 Red. masses --      1.0925                 1.0942                 1.0987
 Frc consts  --      6.6294                 6.6892                 7.0035
 IR Inten    --     17.1601                 7.9620                 0.2931

 - Thermochemistry -
 -------------------
 Temperature   298.150 Kelvin.  Pressure   1.00000 Atm.
 Atom     1 has atomic number  6 and mass  12.00000

 Molecular mass:   190.06299 amu.
 Principal axes and moments of inertia in atomic units:
                           1         2         3
     Eigenvalues --  1312.155004178.262515171.56276
           X            0.99986  -0.01357  -0.00964
           Y            0.01357   0.99991   0.00025
           Z            0.00964  -0.00039   0.99995
 This molecule is an asymmetric top.
 Rotational symmetry number  1.
 Warning -- assumption of classical behavior for rotation
           may cause significant error
 Rotational temperatures (Kelvin)      0.06601     0.02073     0.01675
 Rotational constants (GHZ):           1.37540     0.43194     0.34897
 Zero-point vibrational energy     492524.9 (Joules/Mol)
                                  117.71627 (Kcal/Mol)
 Warning -- explicit consideration of  18 degrees of freedom as
           vibrations may cause significant error
 Vibrational temperatures:     31.61    50.44    77.15   137.70   239.08
          (Kelvin)            273.76   296.36   322.65   364.08   410.60
                              532.43   579.66   629.68   700.66   786.40
                              799.98   832.10   875.65   920.72   971.39
                             1036.26  1064.78  1129.09  1150.03  1173.62
                             1234.92  1255.21  1372.26  1395.55  1485.18
                             1519.25  1544.39  1582.82  1651.84  1685.39
                             1702.04  1729.08  1733.61  1750.42  1804.49
                             1866.97  1896.86  1908.77  1994.95  2024.19
                             2070.06  2107.35  2136.12  2159.02  2189.46
                             2197.58  2223.21  2366.86  2375.47  2400.32
                             2643.38  4203.62  4351.74  4399.77  4492.59
                             4502.26  4551.77  4595.20  4617.38  4634.59
                             4732.44

 Zero-point correction=                           0.187593 (Hartree/Particle)
 Thermal correction to Energy=                    0.200039
 Thermal correction to Enthalpy=                  0.200983
 Thermal correction to Gibbs Free Energy=         0.146699
 Sum of electronic and zero-point Energies=           -650.679022
 Sum of electronic and thermal Energies=              -650.666577
 Sum of electronic and thermal Enthalpies=            -650.665632
 Sum of electronic and thermal Free Energies=         -650.719916

                     E (Thermal)             CV                S
                      KCal/Mol        Cal/Mol-Kelvin    Cal/Mol-Kelvin
 Total                  125.526             46.008            114.250
 Electronic               0.000              0.000              0.000
 Translational            0.889              2.981             41.632
 Rotational               0.889              2.981             31.717
 Vibrational            123.749             40.046             40.901
 Vibration     1          0.593              1.985              6.448
 Vibration     2          0.594              1.982              5.520
 Vibration     3          0.596              1.976              4.679
 Vibration     4          0.603              1.952              3.540
 Vibration     5          0.624              1.884              2.478
 Vibration     6          0.634              1.853              2.225
 Vibration     7          0.640              1.831              2.079
 Vibration     8          0.649              1.804              1.925
 Vibration     9          0.664              1.758              1.709
 Vibration    10          0.683              1.701              1.501
 Vibration    11          0.742              1.534              1.080
 Vibration    12          0.768              1.464              0.952
 Vibration    13          0.798              1.388              0.834
 Vibration    14          0.843              1.279              0.691
 Vibration    15          0.902              1.147              0.551
 Vibration    16          0.911              1.127              0.532
 Vibration    17          0.935              1.078              0.488
 Vibration    18          0.967              1.014              0.435

 Optimization completed on the basis of negligible forces.
    -- Stationary point found.
 Normal termination of Gaussian 16 at Thu Dec 10 10:59:43 2020.

 ----------------------------------------------------------------------
 # B3LYP/6-311++G(d,p) empiricaldispersion=gd3bj scf=xqc pop=npa geom=c
 heck
 ----------------------------------------------------------------------

 ---------------------------------------
 CID_117197754_JID_4882_Energie_neutraal
 ---------------------------------------
 Structure from the checkpoint file:  "JID_4882.chk"
 Charge =  0 Multiplicity = 1

 SCF Done:  E(RB3LYP) =  -651.046055176     A.U. after   15 cycles
 Normal termination of Gaussian 16 at Thu Dec 10 11:02:25 2020.

 ----------------------------------------------------------------------
 # B3LYP/6-311++G(d,p) empiricaldispersion=gd3bj scf=xqc pop=npa geom=c
 heck
 ----------------------------------------------------------------------

 -------------------------------------
 CID_117197754_JID_4882_Energie_kation
 -------------------------------------
 Structure from the checkpoint file:  "JID_4882.chk"
 Charge =  1 Multiplicity = 2

 SCF Done:  E(UB3LYP) =  -650.760035911     A.U. after   23 cycles
 Normal termination of Gaussian 16 at Thu Dec 10 11:06:52 2020.
 Gaussian 16:  ES64L-G16RevA.03 25-Dec-2016

 ----------------------------------------------------------------------
 # B3LYP/6-311++G(d,p) empiricaldispersion=gd3bj scf=xqc pop=npa geom=c
 heck
 ----------------------------------------------------------------------

 ------------------------------------
 CID_117197754_JID_4882_Energie_anion
 ------------------------------------
 Structure from the checkpoint file:  "JID_4882.chk"
 Charge = -1 Multiplicity = 2

                         Standard orientation:
 ---------------------------------------------------------------------
 Center     Atomic      Atomic             Coordinates (Angstroms)
 Number     Number       Type             X           Y           Z
 ---------------------------------------------------------------------
      1          6           0        3.367111   -1.673685   -0.370174
      2          8           0        3.308883   -0.250112   -0.307458
      3          6           0        2.112373    0.362710   -0.111084
      4          6           0        2.113114    1.762650   -0.135735
      5          6           0        0.944552    2.510109    0.060060
      6          6           0       -0.283374    1.896110    0.286739
      7          6           0       -0.310350    0.496068    0.314552
      8          6           0        0.871243   -0.245577    0.119804
      9          8           0        0.595041   -1.594212    0.199125
     10          6           0       -0.752257   -1.696888    0.437009
     11          6           0       -1.356969   -0.484980    0.525136
     12          6           0       -2.815145   -0.204650    0.730170
     13          6           0       -3.494622    0.156173   -0.584098
     14          8           0       -4.543930   -0.315478   -0.956467
     15          1           0        4.414231   -1.911352   -0.565139
     16          1           0        2.743070   -2.063216   -1.181005
     17          1           0        3.054397   -2.129346    0.574375
     18          1           0        3.063141    2.255236   -0.314167
     19          1           0        1.007989    3.593813    0.030648
     20          1           0       -1.185619    2.480367    0.437640
     21          1           0       -1.127607   -2.705656    0.525577
     22          1           0       -3.344201   -1.057017    1.165507
     23          1           0       -2.935982    0.649620    1.413778
     24          1           0       -2.943425    0.897732   -1.203090
 ---------------------------------------------------------------------

 SCF Done:  E(UB3LYP) =  -651.038137512     A.U. after   33 cycles
 SCF Done:  E(UB3LYP) =  -651.038137512     a.u. after    1 cycles

 The electronic state is 2-A.
 Alpha  occ. eigenvalues --  -19.07111 -19.04930 -18.98368 -10.13031 -10.12039
 Alpha  occ. eigenvalues --  -10.11632 -10.11422 -10.10536 -10.07139 -10.06936
 Alpha  occ. eigenvalues --  -10.06920 -10.06713 -10.06179 -10.06141  -0.99685
 Alpha  occ. eigenvalues --   -0.96302  -0.91752  -0.75017  -0.70516  -0.65016
 Alpha  occ. eigenvalues --   -0.64031  -0.61366  -0.58452  -0.51914  -0.49800
 Alpha  occ. eigenvalues --   -0.47142  -0.45234  -0.41354  -0.40236  -0.38181
 Alpha  occ. eigenvalues --   -0.37035  -0.36932  -0.35172  -0.34369  -0.33342
 Alpha  occ. eigenvalues --   -0.31525  -0.31266  -0.30893  -0.28187  -0.27972
 Alpha  occ. eigenvalues --   -0.26641  -0.25838  -0.25652  -0.24333  -0.22384
 Alpha  occ. eigenvalues --   -0.22016  -0.16947  -0.13550  -0.12688  -0.10087
 Alpha  occ. eigenvalues --    0.04889
 Alpha virt. eigenvalues --    0.06607   0.07800   0.08128   0.08471   0.09404
 Alpha virt. eigenvalues --    0.10077   0.10687   0.11057   0.11188   0.11695
 Alpha virt. eigenvalues --    0.12391   0.13096   0.14301   0.14732   0.15298

  Beta  occ. eigenvalues --  -19.07044 -19.04910 -18.98102 -10.12951 -10.12065
  Beta  occ. eigenvalues --  -10.11388 -10.11364 -10.10328 -10.07113 -10.06959
  Beta  occ. eigenvalues --  -10.06922 -10.06712 -10.06162 -10.06090  -0.99554
  Beta  occ. eigenvalues --   -0.96244  -0.91237  -0.74946  -0.70384  -0.64911
  Beta  occ. eigenvalues --   -0.63937  -0.61136  -0.58343  -0.51741  -0.49690
  Beta  occ. eigenvalues --   -0.46902  -0.44816  -0.41272  -0.40152  -0.38046
  Beta  occ. eigenvalues --   -0.36927  -0.36814  -0.35060  -0.34112  -0.33072
  Beta  occ. eigenvalues --   -0.31241  -0.31023  -0.30782  -0.27914  -0.27883
  Beta  occ. eigenvalues --   -0.26397  -0.25796  -0.25540  -0.23210  -0.22293
  Beta  occ. eigenvalues --   -0.21842  -0.16663  -0.13311  -0.12356  -0.09605
  Beta virt. eigenvalues --    0.07376   0.07894   0.08367   0.08913   0.09724
  Beta virt. eigenvalues --    0.09982   0.10256   0.10914   0.11258   0.11566
  Beta virt. eigenvalues --    0.12011   0.12456   0.13154   0.14444   0.14907

 Mulliken charges and spin densities:
               1          2
     1  C    0.832522  -1.168908
     2  O   -0.241279   0.036979
     3  C   -1.862699   0.974033
     4  C   -0.480495   0.315919
     5  C   -0.502785   0.182101
     6  C   -0.380675  -0.408529
     7  C    1.342670  -0.216739
     8  C    0.197924  -0.120220
     9  O   -0.106931   0.033901
    10  C   -1.083717   1.085613
    11  C    1.591104  -1.185605
    12  C    1.113160  -1.127487
    13  C   -0.264578   0.210909
    14  O   -0.331415   0.084491
    15  H   -0.677145   0.843654
    16  H   -0.039472   0.204095
    17  H   -0.207898   0.386205
    18  H    0.121090   0.031611
    19  H    0.061019   0.079808
    20  H    0.169992  -0.031062
    21  H   -0.363450   0.524860
    22  H    0.178303   0.018044
    23  H   -0.138138   0.261070
    24  H    0.072891  -0.014744
 Sum of Mulliken charges =  -1.00000   1.00000

 Dipole moment (field-independent basis, Debye):
    X=              0.5280    Y=              3.8188    Z=              0.3882  Tot=              3.8746
 Quadrupole moment (field-independent basis, Debye-Ang):
   XX=           -163.4382   YY=           -106.8773   ZZ=           -103.3398
   XY=              8.0905   XZ=             -3.9175   YZ=              0.6859

 Summary of Natural Population Analysis:

                                       Natural Population
                Natural  -----------------------------------------------
    Atom  No    Charge         Core      Valence    Rydberg      Total
 -----------------------------------------------------------------------
      C    1   -0.09856      0.99960     2.08987    0.00908     3.09856
      O    2   -0.27243      0.99986     3.26288    0.00970     4.27243
      C    3    0.15587      0.99933     1.83086    0.01394     2.84413
      C    4   -0.12990      0.99955     2.12105    0.00930     3.12990
      C    5   -0.10482      0.99958     2.09595    0.00929     3.10482
      C    6   -0.10917      0.99953     2.10145    0.00818     3.10917
      C    7   -0.03990      0.99947     2.03038    0.01006     3.03990
      C    8    0.11671      0.99931     1.87141    0.01257     2.88329
      O    9   -0.23922      0.99986     3.23110    0.00825     4.23922
      C   10    0.11912      0.99941     1.86822    0.01326     2.88088
      C   11   -0.06457      0.99948     2.05371    0.01138     3.06457
      C   12   -0.24770      0.99959     2.23761    0.01050     3.24770
      C   13    0.26276      0.99974     1.71751    0.01999     2.73724
      O   14   -0.26533      0.99988     3.25830    0.00715     4.26533
      H   15    0.08998      0.00000     0.40826    0.00176     0.41002
      H   16    0.08618      0.00000     0.41232    0.00149     0.41382
      H   17    0.09006      0.00000     0.40773    0.00220     0.40994
      H   18    0.10258      0.00000     0.39642    0.00099     0.39742
      H   19    0.09596      0.00000     0.40330    0.00074     0.40404
      H   20    0.09970      0.00000     0.39908    0.00123     0.40030
      H   21    0.09262      0.00000     0.40636    0.00102     0.40738
      H   22    0.10929      0.00000     0.38935    0.00136     0.39071
      H   23    0.11199      0.00000     0.38615    0.00186     0.38801
      H   24    0.03878      0.00000     0.45908    0.00214     0.46122
 =======================================================================
   * Total *    0.00000     13.99418    35.83834    0.16747    50.00000

 Normal termination of Gaussian 16 at Thu Dec 10 11:13:23 2020.
