 Gaussian 16, Revision A.03,

 -----------------------------------------------------------
 # opt freq B3LYP/6-31G(d) empiricaldispersion=gd3bj scf=xqc
 -----------------------------------------------------------

 -------------------------------
 CID_115721488_JID_5712_neutraal
 -------------------------------
 Symbolic Z-matrix:
 Charge =  0 Multiplicity = 1

 SCF Done:  E(RB3LYP) =  -993.094400001     A.U. after   14 cycles
 SCF Done:  E(RB3LYP) =  -993.098867608     A.U. after   13 cycles
 SCF Done:  E(RB3LYP) =  -993.099881655     A.U. after   12 cycles
 SCF Done:  E(RB3LYP) =  -993.101122024     A.U. after   12 cycles
 SCF Done:  E(RB3LYP) =  -993.100718426     A.U. after   13 cycles
 SCF Done:  E(RB3LYP) =  -993.101249154     A.U. after   12 cycles
 SCF Done:  E(RB3LYP) =  -993.101789394     A.U. after   12 cycles
 SCF Done:  E(RB3LYP) =  -993.101736574     A.U. after   12 cycles
 SCF Done:  E(RB3LYP) =  -993.101903587     A.U. after   11 cycles
 SCF Done:  E(RB3LYP) =  -993.101913518     A.U. after   10 cycles
 SCF Done:  E(RB3LYP) =  -993.101919430     A.U. after   10 cycles
 SCF Done:  E(RB3LYP) =  -993.101919608     A.U. after    9 cycles
 SCF Done:  E(RB3LYP) =  -993.101919644     A.U. after    9 cycles
 SCF Done:  E(RB3LYP) =  -993.101919642     A.U. after    8 cycles
 SCF Done:  E(RB3LYP) =  -993.101919646     A.U. after    6 cycles
 Optimization completed.
    -- Stationary point found.
 Normal termination of Gaussian 16 at Thu Dec 10 16:42:36 2020.

 --------------------------------------------------------------------
 #N Geom=AllCheck Guess=TCheck SCRF=Check GenChk RB3LYP/6-31G(d) Freq
 --------------------------------------------------------------------

 Structure from the checkpoint file:  "JID_5712.chk"
 -------------------------------
 CID_115721488_JID_5712_neutraal
 -------------------------------
 Charge =  0 Multiplicity = 1

 SCF Done:  E(RB3LYP) =  -993.101919646     A.U. after    1 cycles

  Exact polarizability: 154.231  15.104 153.020  -0.124  -0.108 129.837
 Approx polarizability: 192.867  28.002 236.910  -3.373   2.827 230.006

                      1                      2                      3
                      A                      A                      A
 Frequencies --      9.9081                38.2755                44.3628
 Red. masses --      3.4460                 4.1735                 4.4201
 Frc consts  --      0.0002                 0.0036                 0.0051
 IR Inten    --      0.0216                 0.4714                 0.1724

                      4                      5                      6
                      A                      A                      A
 Frequencies --     56.2472                72.3816                80.3259
 Red. masses --      5.5429                 4.1008                 2.6967
 Frc consts  --      0.0103                 0.0127                 0.0103
 IR Inten    --      0.0489                 0.7335                 2.5166

                      7                      8                      9
                      A                      A                      A
 Frequencies --    118.8145               164.1076               183.9959
 Red. masses --      4.9627                 2.2779                 1.3097
 Frc consts  --      0.0413                 0.0361                 0.0261
 IR Inten    --      0.3475                 1.1008                 1.0566

                     10                     11                     12
                      A                      A                      A
 Frequencies --    199.4603               219.2157               241.1850
 Red. masses --      3.0562                 3.4980                 1.2157
 Frc consts  --      0.0716                 0.0990                 0.0417
 IR Inten    --      0.3783                 1.3595                 0.2071

                     13                     14                     15
                      A                      A                      A
 Frequencies --    275.2007               295.8205               301.6570
 Red. masses --      2.1088                 2.8642                 2.5640
 Frc consts  --      0.0941                 0.1477                 0.1375
 IR Inten    --      0.6782                 0.5847                 0.5958

                     16                     17                     18
                      A                      A                      A
 Frequencies --    319.9918               385.4375               420.7961
 Red. masses --      2.1622                 2.1065                 4.4146
 Frc consts  --      0.1304                 0.1844                 0.4606
 IR Inten    --      2.5786                 3.9988                21.7962

                     19                     20                     21
                      A                      A                      A
 Frequencies --    453.1826               481.4177               530.5776
 Red. masses --      2.3361                 3.1303                 2.6768
 Frc consts  --      0.2827                 0.4274                 0.4440
 IR Inten    --      0.3897                 0.6349                 4.6996

                     22                     23                     24
                      A                      A                      A
 Frequencies --    585.0366               594.5143               642.2280
 Red. masses --      2.3383                 3.4177                 4.0972
 Frc consts  --      0.4715                 0.7117                 0.9957
 IR Inten    --     18.4534                 3.0719                12.7547

                     25                     26                     27
                      A                      A                      A
 Frequencies --    647.3434               697.4828               715.6415
 Red. masses --      3.8468                 2.4433                 3.7166
 Frc consts  --      0.9498                 0.7003                 1.1215
 IR Inten    --      4.9663                83.6727                 2.8156

                     28                     29                     30
                      A                      A                      A
 Frequencies --    750.5065               789.8519               798.0046
 Red. masses --      1.8314                 2.7731                 2.2469
 Frc consts  --      0.6078                 1.0193                 0.8430
 IR Inten    --     13.0778                 5.9951                 8.6439

                     31                     32                     33
                      A                      A                      A
 Frequencies --    829.3401               866.7097               879.6714
 Red. masses --      3.1682                 1.5863                 1.9569
 Frc consts  --      1.2839                 0.7021                 0.8922
 IR Inten    --     17.6413                 7.3262                 9.3433

                     34                     35                     36
                      A                      A                      A
 Frequencies --    917.0206               957.8103               964.1206
 Red. masses --      1.7955                 1.4225                 1.7017
 Frc consts  --      0.8896                 0.7689                 0.9320
 IR Inten    --      1.0423                 0.2756                 1.6801

                     37                     38                     39
                      A                      A                      A
 Frequencies --    975.0317               982.6808               990.4847
 Red. masses --      1.5138                 1.4442                 1.2032
 Frc consts  --      0.8479                 0.8217                 0.6955
 IR Inten    --      4.2698                 0.1701                 7.3377

                     40                     41                     42
                      A                      A                      A
 Frequencies --   1015.4518              1036.7812              1040.3387
 Red. masses --      1.4448                 5.1432                 1.7755
 Frc consts  --      0.8778                 3.2573                 1.1322
 IR Inten    --      7.2903                28.7107                29.7794

                     43                     44                     45
                      A                      A                      A
 Frequencies --   1075.5424              1091.6227              1095.4667
 Red. masses --      1.8556                 2.1403                 2.6741
 Frc consts  --      1.2647                 1.5027                 1.8907
 IR Inten    --      4.1731                12.6521                 1.9635

                     46                     47                     48
                      A                      A                      A
 Frequencies --   1111.4959              1147.7648              1156.8879
 Red. masses --      2.8363                 1.6594                 1.9806
 Frc consts  --      2.0645                 1.2880                 1.5618
 IR Inten    --      9.5375                18.3842                47.3220

                     49                     50                     51
                      A                      A                      A
 Frequencies --   1198.8103              1210.9864              1232.2955
 Red. masses --      1.6300                 1.5764                 1.5101
 Frc consts  --      1.3802                 1.3621                 1.3511
 IR Inten    --      4.3248                 3.0157                 9.0450

                     52                     53                     54
                      A                      A                      A
 Frequencies --   1245.8719              1263.9576              1291.9195
 Red. masses --      5.4876                 2.1309                 1.4529
 Frc consts  --      5.0185                 2.0057                 1.4288
 IR Inten    --      2.8190                 1.0554                 2.2773

                     55                     56                     57
                      A                      A                      A
 Frequencies --   1315.6542              1321.3528              1343.7615
 Red. masses --      1.3775                 1.4075                 1.1702
 Frc consts  --      1.4048                 1.4479                 1.2450
 IR Inten    --      9.3359                 7.7710                11.3410

                     58                     59                     60
                      A                      A                      A
 Frequencies --   1366.3532              1387.2437              1392.3528
 Red. masses --      1.3720                 1.2784                 1.1755
 Frc consts  --      1.5091                 1.4495                 1.3426
 IR Inten    --      7.0168                 1.5942                 2.4360

                     61                     62                     63
                      A                      A                      A
 Frequencies --   1398.4717              1414.4253              1427.5721
 Red. masses --      1.3307                 1.3520                 1.3125
 Frc consts  --      1.5333                 1.5937                 1.5759
 IR Inten    --      9.5670                 1.9527                 2.0192

                     64                     65                     66
                      A                      A                      A
 Frequencies --   1434.1263              1450.6204              1490.2229
 Red. masses --      1.2444                 1.8699                 1.0859
 Frc consts  --      1.5080                 2.3183                 1.4209
 IR Inten    --      6.4178                29.2296                 5.0510

                     67                     68                     69
                      A                      A                      A
 Frequencies --   1497.7424              1506.2013              1514.2391
 Red. masses --      1.0568                 1.1297                 1.0936
 Frc consts  --      1.3968                 1.5100                 1.4774
 IR Inten    --      5.0477                14.0033                 7.4749

                     70                     71                     72
                      A                      A                      A
 Frequencies --   1515.6023              1516.2232              1519.0793
 Red. masses --      1.0748                 1.0652                 1.7309
 Frc consts  --      1.4546                 1.4428                 2.3534
 IR Inten    --      2.9826                19.5660                 7.9696

                     73                     74                     75
                      A                      A                      A
 Frequencies --   1524.8131              1529.0349              1534.3155
 Red. masses --      1.0572                 1.1678                 1.2006
 Frc consts  --      1.4483                 1.6086                 1.6653
 IR Inten    --     10.6766                 6.3505                13.0368

                     76                     77                     78
                      A                      A                      A
 Frequencies --   1590.9393              1631.8006              3037.2212
 Red. masses --      8.3209                 4.8238                 1.0658
 Frc consts  --     12.4087                 7.5678                 5.7924
 IR Inten    --      6.7071                 1.2068                32.7734

                     79                     80                     81
                      A                      A                      A
 Frequencies --   3044.0424              3050.9385              3055.5377
 Red. masses --      1.0607                 1.0389                 1.0640
 Frc consts  --      5.7910                 5.6975                 5.8530
 IR Inten    --     20.7866                18.1782                35.6695

                     82                     83                     84
                      A                      A                      A
 Frequencies --   3061.4390              3063.6230              3076.3041
 Red. masses --      1.0344                 1.0616                 1.0858
 Frc consts  --      5.7118                 5.8705                 6.0540
 IR Inten    --     36.8833                 7.0026                 5.4894

                     85                     86                     87
                      A                      A                      A
 Frequencies --   3082.3092              3086.4186              3111.1816
 Red. masses --      1.1008                 1.0956                 1.1001
 Frc consts  --      6.1619                 6.1489                 6.2737
 IR Inten    --     28.9568                30.1830                30.0370

                     88                     89                     90
                      A                      A                      A
 Frequencies --   3113.5672              3117.5743              3142.1313
 Red. masses --      1.0996                 1.0990                 1.1054
 Frc consts  --      6.2808                 6.2932                 6.4304
 IR Inten    --     32.9784                30.5333                12.1773

                     91                     92                     93
                      A                      A                      A
 Frequencies --   3144.7576              3154.5699              3165.7615
 Red. masses --      1.1030                 1.1048                 1.0899
 Frc consts  --      6.4268                 6.4775                 6.4358
 IR Inten    --     22.7087                10.9648                27.7018

                     94                     95                     96
                      A                      A                      A
 Frequencies --   3177.1431              3197.0109              3508.5936
 Red. masses --      1.0876                 1.0970                 1.0734
 Frc consts  --      6.4681                 6.6060                 7.7855
 IR Inten    --      6.0908                39.5546                 0.7693

 - Thermochemistry -
 -------------------
 Temperature   298.150 Kelvin.  Pressure   1.00000 Atm.
 Atom     1 has atomic number  6 and mass  12.00000

 Molecular mass:   225.12997 amu.
 Principal axes and moments of inertia in atomic units:
                           1         2         3
     Eigenvalues --  2092.872346507.476057517.42203
           X            0.99998   0.00267   0.00504
           Y           -0.00259   0.99988  -0.01509
           Z           -0.00508   0.01508   0.99987
 This molecule is an asymmetric top.
 Rotational symmetry number  1.
 Warning -- assumption of classical behavior for rotation
           may cause significant error
 Rotational temperatures (Kelvin)      0.04139     0.01331     0.01152
 Rotational constants (GHZ):           0.86233     0.27733     0.24007
 Zero-point vibrational energy     775798.1 (Joules/Mol)
                                  185.42019 (Kcal/Mol)
 Warning -- explicit consideration of  23 degrees of freedom as
           vibrations may cause significant error
 Vibrational temperatures:     14.26    55.07    63.83    80.93   104.14
          (Kelvin)            115.57   170.95   236.11   264.73   286.98
                              315.40   347.01   395.95   425.62   434.02
                              460.40   554.56   605.43   652.03   692.65
                              763.38   841.74   855.37   924.02   931.38
                             1003.52  1029.65  1079.81  1136.42  1148.15
                             1193.24  1247.00  1265.65  1319.39  1378.08
                             1387.15  1402.85  1413.86  1425.09  1461.01
                             1491.70  1496.82  1547.47  1570.60  1576.13
                             1599.19  1651.38  1664.50  1724.82  1742.34
                             1773.00  1792.53  1818.55  1858.78  1892.93
                             1901.13  1933.37  1965.88  1995.93  2003.29
                             2012.09  2035.04  2053.96  2063.39  2087.12
                             2144.10  2154.92  2167.09  2178.65  2180.61
                             2181.51  2185.62  2193.87  2199.94  2207.54
                             2289.01  2347.80  4369.88  4379.70  4389.62
                             4396.24  4404.73  4407.87  4426.12  4434.76
                             4440.67  4476.30  4479.73  4485.49  4520.83
                             4524.60  4538.72  4554.82  4571.20  4599.79
                             5048.08

 Zero-point correction=                           0.295486 (Hartree/Particle)
 Thermal correction to Energy=                    0.311825
 Thermal correction to Enthalpy=                  0.312769
 Thermal correction to Gibbs Free Energy=         0.248676
 Sum of electronic and zero-point Energies=           -992.806434
 Sum of electronic and thermal Energies=              -992.790095
 Sum of electronic and thermal Enthalpies=            -992.789151
 Sum of electronic and thermal Free Energies=         -992.853244

                     E (Thermal)             CV                S
                      KCal/Mol        Cal/Mol-Kelvin    Cal/Mol-Kelvin
 Total                  195.673             60.035            134.895
 Electronic               0.000              0.000              0.000
 Translational            0.889              2.981             42.137
 Rotational               0.889              2.981             32.993
 Vibrational            193.896             54.073             59.765
 Vibration     1          0.593              1.987              8.029
 Vibration     2          0.594              1.982              5.346
 Vibration     3          0.595              1.980              5.054
 Vibration     4          0.596              1.975              4.585
 Vibration     5          0.598              1.967              4.088
 Vibration     6          0.600              1.963              3.883
 Vibration     7          0.609              1.934              3.120
 Vibration     8          0.623              1.887              2.502
 Vibration     9          0.631              1.862              2.287
 Vibration    10          0.638              1.841              2.138
 Vibration    11          0.647              1.812              1.966
 Vibration    12          0.658              1.777              1.794
 Vibration    13          0.677              1.719              1.563
 Vibration    14          0.690              1.682              1.440
 Vibration    15          0.694              1.671              1.408
 Vibration    16          0.706              1.635              1.310
 Vibration    17          0.754              1.501              1.018
 Vibration    18          0.783              1.425              0.889
 Vibration    19          0.812              1.354              0.786
 Vibration    20          0.838              1.291              0.706
 Vibration    21          0.886              1.182              0.586
 Vibration    22          0.942              1.064              0.476
 Vibration    23          0.952              1.043              0.459

 Optimization completed.
    -- Stationary point found.
 Normal termination of Gaussian 16 at Thu Dec 10 16:54:04 2020.

 ----------------------------------------------------------------------
 # B3LYP/6-311++G(d,p) empiricaldispersion=gd3bj scf=xqc pop=npa geom=c
 heck
 ----------------------------------------------------------------------

 ---------------------------------------
 CID_115721488_JID_5712_Energie_neutraal
 ---------------------------------------
 Structure from the checkpoint file:  "JID_5712.chk"
 Charge =  0 Multiplicity = 1

 SCF Done:  E(RB3LYP) =  -993.292564368     A.U. after   15 cycles
 Normal termination of Gaussian 16 at Thu Dec 10 16:59:46 2020.

 ----------------------------------------------------------------------
 # B3LYP/6-311++G(d,p) empiricaldispersion=gd3bj scf=xqc pop=npa geom=c
 heck
 ----------------------------------------------------------------------

 -------------------------------------
 CID_115721488_JID_5712_Energie_kation
 -------------------------------------
 Structure from the checkpoint file:  "JID_5712.chk"
 Charge =  1 Multiplicity = 2

 SCF Done:  E(UB3LYP) =  -993.006291297     A.U. after   27 cycles
 Normal termination of Gaussian 16 at Thu Dec 10 17:18:07 2020.
 Gaussian 16:  ES64L-G16RevA.03 25-Dec-2016

 ----------------------------------------------------------------------
 # B3LYP/6-311++G(d,p) empiricaldispersion=gd3bj scf=xqc pop=npa geom=c
 heck
 ----------------------------------------------------------------------

 ------------------------------------
 CID_115721488_JID_5712_Energie_anion
 ------------------------------------
 Structure from the checkpoint file:  "JID_5712.chk"
 Charge = -1 Multiplicity = 2

                         Standard orientation:
 ---------------------------------------------------------------------
 Center     Atomic      Atomic             Coordinates (Angstroms)
 Number     Number       Type             X           Y           Z
 ---------------------------------------------------------------------
      1          6           0       -2.556790    2.638443   -0.734891
      2          6           0       -1.691766    1.720188    0.137829
      3          6           0       -2.225866    0.292639    0.118819
      4          7           0       -2.619316   -0.243405    1.283170
      5          6           0       -3.049567   -1.510708    1.250537
      6          6           0       -3.091989   -2.248803    0.069196
      7          7           0       -2.718293   -1.720625   -1.103785
      8          6           0       -2.293874   -0.456641   -1.066193
      9          7           0       -0.289457    1.871260   -0.254456
     10          6           0        0.733191    1.397902    0.677615
     11          6           0        0.905159   -0.120890    0.875064
     12          6           0        1.218669   -0.904898   -0.403461
     13          6           0        2.530731   -0.538521   -1.106514
     14         16           0        4.064822   -0.908143   -0.158667
     15          6           0        4.385994    0.685576    0.675278
     16          1           0       -2.490749    2.355624   -1.792717
     17          1           0       -2.208239    3.670298   -0.639562
     18          1           0       -3.609823    2.583514   -0.439492
     19          1           0       -1.765289    2.049364    1.180077
     20          1           0       -3.366320   -1.947331    2.195482
     21          1           0       -3.435254   -3.280741    0.061427
     22          1           0       -1.992922   -0.019778   -2.017043
     23          1           0       -0.132557    1.510659   -1.192750
     24          1           0        1.683951    1.832185    0.344620
     25          1           0        0.515000    1.857042    1.649693
     26          1           0        1.712803   -0.285288    1.600106
     27          1           0        0.000862   -0.533940    1.332528
     28          1           0        1.237584   -1.975103   -0.167873
     29          1           0        0.402860   -0.771772   -1.127790
     30          1           0        2.621605   -1.119734   -2.029710
     31          1           0        2.561229    0.518065   -1.395786
     32          1           0        4.417831    1.504524   -0.049816
     33          1           0        3.646855    0.907723    1.448480
     34          1           0        5.369532    0.598645    1.144617
 ---------------------------------------------------------------------

 SCF Done:  E(UB3LYP) =  -993.294641381     A.U. after   33 cycles
 SCF Done:  E(UB3LYP) =  -993.294641381     a.u. after    1 cycles

 The electronic state is 2-A.
 Alpha  occ. eigenvalues --  -88.74176 -14.18767 -14.15084 -14.14986 -10.10232
 Alpha  occ. eigenvalues --  -10.09756 -10.08571 -10.08554 -10.06461 -10.06297
 Alpha  occ. eigenvalues --  -10.05850 -10.05683 -10.05533 -10.05484 -10.05243
 Alpha  occ. eigenvalues --   -7.82771  -5.79178  -5.78806  -5.78133  -0.82568
 Alpha  occ. eigenvalues --   -0.79662  -0.74983  -0.71607  -0.67253  -0.65083
 Alpha  occ. eigenvalues --   -0.61673  -0.60255  -0.55275  -0.52798  -0.51019
 Alpha  occ. eigenvalues --   -0.50482  -0.47120  -0.45567  -0.38873  -0.37469
 Alpha  occ. eigenvalues --   -0.37065  -0.36426  -0.35399  -0.34463  -0.33442
 Alpha  occ. eigenvalues --   -0.32793  -0.32152  -0.30863  -0.30647  -0.29467
 Alpha  occ. eigenvalues --   -0.28345  -0.27551  -0.26959  -0.26044  -0.25278
 Alpha  occ. eigenvalues --   -0.23870  -0.23280  -0.22715  -0.22410  -0.20875
 Alpha  occ. eigenvalues --   -0.18263  -0.15369  -0.13481  -0.12771  -0.11381
 Alpha  occ. eigenvalues --   -0.09390   0.04686
 Alpha virt. eigenvalues --    0.05939   0.07766   0.08538   0.08854   0.09261
 Alpha virt. eigenvalues --    0.09788   0.10513   0.11273   0.11359   0.11532
 Alpha virt. eigenvalues --    0.11624   0.12304   0.12654   0.12672   0.13199

  Beta  occ. eigenvalues --  -88.74172 -14.18755 -14.14520 -14.14366 -10.10230
  Beta  occ. eigenvalues --  -10.09711 -10.08567 -10.08559 -10.06455 -10.06272
  Beta  occ. eigenvalues --  -10.05851 -10.05605 -10.05480 -10.05451 -10.05242
  Beta  occ. eigenvalues --   -7.82767  -5.79171  -5.78798  -5.78130  -0.81906
  Beta  occ. eigenvalues --   -0.79536  -0.73979  -0.71585  -0.67197  -0.64979
  Beta  occ. eigenvalues --   -0.61485  -0.60158  -0.55240  -0.52700  -0.50755
  Beta  occ. eigenvalues --   -0.49946  -0.46990  -0.45547  -0.38779  -0.37378
  Beta  occ. eigenvalues --   -0.36870  -0.36320  -0.35286  -0.34389  -0.33398
  Beta  occ. eigenvalues --   -0.32689  -0.32096  -0.30791  -0.30575  -0.29448
  Beta  occ. eigenvalues --   -0.27719  -0.27533  -0.26633  -0.25551  -0.25143
  Beta  occ. eigenvalues --   -0.23785  -0.23154  -0.22481  -0.22374  -0.20832
  Beta  occ. eigenvalues --   -0.15541  -0.14591  -0.13145  -0.12485  -0.10819
  Beta  occ. eigenvalues --   -0.08834
  Beta virt. eigenvalues --    0.06770   0.07773   0.08455   0.08894   0.09441
  Beta virt. eigenvalues --    0.09811   0.10598   0.10995   0.11250   0.11515
  Beta virt. eigenvalues --    0.11531   0.11755   0.12307   0.12646   0.12733

 Mulliken charges and spin densities:
               1          2
     1  C   -0.478501  -0.071989
     2  C   -0.788779   0.040651
     3  C    0.362270  -0.028164
     4  N   -0.032684   0.264743
     5  C    0.011371   0.110326
     6  C   -0.189335   0.019616
     7  N   -0.030890   0.270239
     8  C   -0.849602   0.077032
     9  N    0.086594   0.033369
    10  C   -0.481607  -0.195613
    11  C    0.108667   0.084998
    12  C   -0.612007  -0.025369
    13  C   -0.110046  -0.029941
    14  S   -0.101303   0.273107
    15  C    0.221881  -1.006332
    16  H    0.132260   0.004568
    17  H    0.102627   0.042045
    18  H    0.147764   0.000704
    19  H    0.165443   0.000317
    20  H    0.133316  -0.007014
    21  H    0.119149  -0.004016
    22  H    0.109866  -0.013219
    23  H    0.243363  -0.003482
    24  H    0.188786  -0.011266
    25  H    0.055045   0.077278
    26  H    0.211102  -0.016331
    27  H    0.144615   0.021966
    28  H    0.135918   0.002293
    29  H    0.208515  -0.001277
    30  H    0.237400   0.000555
    31  H    0.154381  -0.014557
    32  H   -0.095750   0.270431
    33  H   -0.114865   0.268005
    34  H   -0.394966   0.566329
 Sum of Mulliken charges =  -1.00000   1.00000

 Dipole moment (field-independent basis, Debye):
    X=              0.5402    Y=              1.2268    Z=             -1.7371  Tot=              2.1942
 Quadrupole moment (field-independent basis, Debye-Ang):
   XX=           -182.0069   YY=           -127.5591   ZZ=           -119.7583
   XY=            -10.3571   XZ=             -7.9013   YZ=             -5.4802

 Summary of Natural Population Analysis:

                                       Natural Population
                Natural  -----------------------------------------------
    Atom  No    Charge         Core      Valence    Rydberg      Total
 -----------------------------------------------------------------------
      C    1   -0.28013      0.99965     2.27593    0.00455     3.28013
      C    2   -0.02682      0.99956     2.01230    0.01495     3.02682
      C    3    0.07692      0.99951     1.90661    0.01697     2.92308
      N    4   -0.16858      0.99968     2.65465    0.01425     3.66858
      C    5    0.01063      0.99960     1.97641    0.01337     2.98937
      C    6   -0.01073      0.99960     1.99692    0.01421     3.01073
      N    7   -0.14601      0.99971     2.63271    0.01360     3.64601
      C    8    0.00588      0.99953     1.98112    0.01347     2.99412
      N    9   -0.34251      0.99974     2.83096    0.01180     3.84251
      C   10   -0.08912      0.99963     2.07596    0.01353     3.08912
      C   11   -0.21065      0.99962     2.20127    0.00976     3.21065
      C   12   -0.19963      0.99961     2.19179    0.00822     3.19963
      C   13   -0.24938      0.99959     2.23937    0.01043     3.24938
      S   14    0.07468      4.99964     2.90504    0.02064     7.92532
      C   15   -0.35044      0.99962     2.34354    0.00727     3.35044
      H   16    0.09413      0.00000     0.40489    0.00099     0.40587
      H   17    0.09694      0.00000     0.40169    0.00137     0.40306
      H   18    0.10001      0.00000     0.39922    0.00078     0.39999
      H   19    0.09733      0.00000     0.40038    0.00229     0.40267
      H   20    0.08068      0.00000     0.41795    0.00137     0.41932
      H   21    0.08092      0.00000     0.41768    0.00141     0.41908
      H   22    0.07770      0.00000     0.42024    0.00205     0.42230
      H   23    0.16980      0.00000     0.32808    0.00212     0.33020
      H   24    0.08712      0.00000     0.41142    0.00146     0.41288
      H   25    0.09334      0.00000     0.40545    0.00121     0.40666
      H   26    0.09604      0.00000     0.40270    0.00127     0.40396
      H   27    0.11345      0.00000     0.38462    0.00194     0.38655
      H   28    0.10133      0.00000     0.39773    0.00094     0.39867
      H   29    0.10572      0.00000     0.39292    0.00136     0.39428
      H   30    0.10316      0.00000     0.39598    0.00086     0.39684
      H   31    0.09890      0.00000     0.39991    0.00119     0.40110
      H   32    0.10003      0.00000     0.39843    0.00154     0.39997
      H   33    0.10132      0.00000     0.39693    0.00175     0.39868
      H   34    0.10799      0.00000     0.39045    0.00156     0.39201
 =======================================================================
   * Total *    0.00000     18.99429    41.79124    0.21447    61.00000

 Normal termination of Gaussian 16 at Thu Dec 10 17:34:27 2020.
