 Gaussian 16, Revision A.03,

 -----------------------------------------------------------
 # opt freq B3LYP/6-31G(d) empiricaldispersion=gd3bj scf=xqc
 -----------------------------------------------------------

 -------------------------------
 CID_122459472_JID_2077_neutraal
 -------------------------------
 Symbolic Z-matrix:
 Charge =  0 Multiplicity = 1

 SCF Done:  E(RB3LYP) =  -590.683124118     A.U. after   15 cycles
 SCF Done:  E(RB3LYP) =  -590.692058615     A.U. after   12 cycles
 SCF Done:  E(RB3LYP) =  -590.692588871     A.U. after   12 cycles
 SCF Done:  E(RB3LYP) =  -590.692694755     A.U. after   11 cycles
 SCF Done:  E(RB3LYP) =  -590.692754824     A.U. after   11 cycles
 SCF Done:  E(RB3LYP) =  -590.692787305     A.U. after   10 cycles
 SCF Done:  E(RB3LYP) =  -590.692808948     A.U. after   11 cycles
 SCF Done:  E(RB3LYP) =  -590.692823932     A.U. after   11 cycles
 SCF Done:  E(RB3LYP) =  -590.692834287     A.U. after   12 cycles
 SCF Done:  E(RB3LYP) =  -590.692840943     A.U. after   10 cycles
 SCF Done:  E(RB3LYP) =  -590.692906146     A.U. after   12 cycles
 SCF Done:  E(RB3LYP) =  -590.692912115     A.U. after   10 cycles
 SCF Done:  E(RB3LYP) =  -590.692914297     A.U. after   12 cycles
 SCF Done:  E(RB3LYP) =  -590.692916828     A.U. after   11 cycles
 SCF Done:  E(RB3LYP) =  -590.692917209     A.U. after    8 cycles
 SCF Done:  E(RB3LYP) =  -590.692917337     A.U. after    8 cycles
 Optimization completed.
    -- Stationary point found.
 Normal termination of Gaussian 16 at Wed Dec  9 16:48:40 2020.

 --------------------------------------------------------------------
 #N Geom=AllCheck Guess=TCheck SCRF=Check GenChk RB3LYP/6-31G(d) Freq
 --------------------------------------------------------------------

 Structure from the checkpoint file:  "JID_2077.chk"
 -------------------------------
 CID_122459472_JID_2077_neutraal
 -------------------------------
 Charge =  0 Multiplicity = 1

 SCF Done:  E(RB3LYP) =  -590.692917337     A.U. after    1 cycles

  Exact polarizability: 102.140   4.716 105.996 -10.342   0.517  61.222
 Approx polarizability: 128.170  13.472 210.433 -14.980   9.824  93.134

                      1                      2                      3
                      A                      A                      A
 Frequencies --     23.8924                62.2725                86.4343
 Red. masses --      4.1587                 5.7407                 4.5164
 Frc consts  --      0.0014                 0.0131                 0.0199
 IR Inten    --      1.6084                 2.8878                 2.3476

                      4                      5                      6
                      A                      A                      A
 Frequencies --    146.9324               198.0557               224.4374
 Red. masses --     10.1280                 1.3417                 2.8486
 Frc consts  --      0.1288                 0.0310                 0.0845
 IR Inten    --      8.1774                 1.2253                 1.2440

                      7                      8                      9
                      A                      A                      A
 Frequencies --    255.7320               297.1875               313.2101
 Red. masses --      4.6694                 4.2082                 3.4766
 Frc consts  --      0.1799                 0.2190                 0.2009
 IR Inten    --      0.2930                 0.0204                 8.7803

                     10                     11                     12
                      A                      A                      A
 Frequencies --    376.2198               383.1349               410.5469
 Red. masses --      2.0232                 2.8353                 3.3675
 Frc consts  --      0.1687                 0.2452                 0.3344
 IR Inten    --      1.5018                 8.9736                13.4803

                     13                     14                     15
                      A                      A                      A
 Frequencies --    502.4530               568.4259               620.7249
 Red. masses --      3.9970                 3.9568                 2.9393
 Frc consts  --      0.5945                 0.7533                 0.6673
 IR Inten    --      6.9391                 0.2346                 4.1422

                     16                     17                     18
                      A                      A                      A
 Frequencies --    644.8042               708.0412               739.6528
 Red. masses --      4.3298                 7.6425                 4.6589
 Frc consts  --      1.0606                 2.2574                 1.5017
 IR Inten    --      6.6286                33.8509                 7.4765

                     19                     20                     21
                      A                      A                      A
 Frequencies --    764.8966               776.9061               835.8624
 Red. masses --      8.4936                 4.9758                 2.2971
 Frc consts  --      2.9278                 1.7695                 0.9456
 IR Inten    --      0.2237                 2.6027                67.6958

                     22                     23                     24
                      A                      A                      A
 Frequencies --    846.2453               901.2019               924.6116
 Red. masses --      2.9093                 1.9185                 1.7613
 Frc consts  --      1.2275                 0.9180                 0.8872
 IR Inten    --      5.2930                13.8529                19.0593

                     25                     26                     27
                      A                      A                      A
 Frequencies --    939.4674               965.8804              1025.4201
 Red. masses --      2.3336                 1.2750                 1.7441
 Frc consts  --      1.2135                 0.7008                 1.0805
 IR Inten    --      8.2766                 0.0190                 4.5551

                     28                     29                     30
                      A                      A                      A
 Frequencies --   1061.3474              1084.9571              1117.6736
 Red. masses --      1.5811                 2.2844                 1.6868
 Frc consts  --      1.0493                 1.5843                 1.2415
 IR Inten    --     12.4318                 6.2883                18.6789

                     31                     32                     33
                      A                      A                      A
 Frequencies --   1143.3443              1150.6975              1157.7792
 Red. masses --      1.4519                 2.0628                 1.9689
 Frc consts  --      1.1183                 1.6093                 1.5550
 IR Inten    --      5.3146                 3.9907                13.9581

                     34                     35                     36
                      A                      A                      A
 Frequencies --   1188.3414              1297.3286              1336.2456
 Red. masses --      1.9426                 2.8643                 1.7909
 Frc consts  --      1.6163                 2.8403                 1.8841
 IR Inten    --     17.6111                16.0921                 1.2430

                     37                     38                     39
                      A                      A                      A
 Frequencies --   1361.8120              1392.8384              1424.6511
 Red. masses --      1.7924                 1.5534                 3.8007
 Frc consts  --      1.9585                 1.7756                 4.5450
 IR Inten    --     13.5695                51.9836               191.3881

                     40                     41                     42
                      A                      A                      A
 Frequencies --   1441.1001              1459.2554              1483.8866
 Red. masses --      1.5208                 1.6898                 1.1319
 Frc consts  --      1.8608                 2.1201                 1.4685
 IR Inten    --     52.0290                38.9084                31.6339

                     43                     44                     45
                      A                      A                      A
 Frequencies --   1511.4357              1527.7411              1559.2437
 Red. masses --      1.0695                 1.0619                 1.3628
 Frc consts  --      1.4395                 1.4603                 1.9521
 IR Inten    --     13.6226                 6.3433                 3.5169

                     46                     47                     48
                      A                      A                      A
 Frequencies --   1658.8212              1807.3064              1863.1271
 Red. masses --      6.7263                12.2816                11.8426
 Frc consts  --     10.9050                23.6357                24.2205
 IR Inten    --      2.2257               520.6576                10.8964

                     49                     50                     51
                      A                      A                      A
 Frequencies --   3066.7722              3087.4944              3103.0706
 Red. masses --      1.0352                 1.0599                 1.0506
 Frc consts  --      5.7364                 5.9531                 5.9603
 IR Inten    --     11.8114                10.1975                28.8176

                     52                     53                     54
                      A                      A                      A
 Frequencies --   3134.1737              3145.8620              3148.4558
 Red. masses --      1.1014                 1.1042                 1.1055
 Frc consts  --      6.3744                 6.4384                 6.4568
 IR Inten    --     18.5998                11.3288                 8.8910

                     55                     56                     57
                      A                      A                      A
 Frequencies --   3185.3076              3257.3228              3277.7500
 Red. masses --      1.1209                 1.0889                 1.1079
 Frc consts  --      6.7008                 6.8072                 7.0132
 IR Inten    --     28.2448                 0.2364                 0.4763

 - Thermochemistry -
 -------------------
 Temperature   298.150 Kelvin.  Pressure   1.00000 Atm.
 Atom     1 has atomic number  6 and mass  12.00000

 Molecular mass:   167.05824 amu.
 Principal axes and moments of inertia in atomic units:
                           1         2         3
     Eigenvalues --  1159.959372286.996233058.28126
           X            0.99969  -0.02243  -0.01058
           Y            0.02217   0.99945  -0.02471
           Z            0.01113   0.02447   0.99964
 This molecule is an asymmetric top.
 Rotational symmetry number  1.
 Warning -- assumption of classical behavior for rotation
           may cause significant error
 Rotational temperatures (Kelvin)      0.07467     0.03787     0.02832
 Rotational constants (GHZ):           1.55587     0.78913     0.59012
 Zero-point vibrational energy     430522.8 (Joules/Mol)
                                  102.89742 (Kcal/Mol)
 Warning -- explicit consideration of  15 degrees of freedom as
           vibrations may cause significant error
 Vibrational temperatures:     34.38    89.60   124.36   211.40   284.96
          (Kelvin)            322.92   367.94   427.59   450.64   541.30
                              551.25   590.69   722.92   817.84   893.08
                              927.73  1018.71  1064.20  1100.52  1117.79
                             1202.62  1217.56  1296.63  1330.31  1351.68
                             1389.69  1475.35  1527.04  1561.01  1608.08
                             1645.02  1655.60  1665.79  1709.76  1866.57
                             1922.56  1959.34  2003.98  2049.76  2073.42
                             2099.54  2134.98  2174.62  2198.08  2243.40
                             2386.67  2600.31  2680.62  4412.40  4442.22
                             4464.63  4509.38  4526.19  4529.93  4582.95
                             4686.56  4715.95

 Zero-point correction=                           0.163977 (Hartree/Particle)
 Thermal correction to Energy=                    0.174936
 Thermal correction to Enthalpy=                  0.175880
 Thermal correction to Gibbs Free Energy=         0.126050
 Sum of electronic and zero-point Energies=           -590.528940
 Sum of electronic and thermal Energies=              -590.517981
 Sum of electronic and thermal Enthalpies=            -590.517037
 Sum of electronic and thermal Free Energies=         -590.566867

                     E (Thermal)             CV                S
                      KCal/Mol        Cal/Mol-Kelvin    Cal/Mol-Kelvin
 Total                  109.774             40.533            104.876
 Electronic               0.000              0.000              0.000
 Translational            0.889              2.981             41.248
 Rotational               0.889              2.981             30.474
 Vibrational            107.997             34.572             33.155
 Vibration     1          0.593              1.985              6.281
 Vibration     2          0.597              1.972              4.384
 Vibration     3          0.601              1.959              3.739
 Vibration     4          0.617              1.906              2.712
 Vibration     5          0.637              1.843              2.151
 Vibration     6          0.649              1.804              1.923
 Vibration     7          0.666              1.753              1.691
 Vibration     8          0.691              1.679              1.433
 Vibration     9          0.701              1.648              1.345
 Vibration    10          0.747              1.521              1.054
 Vibration    11          0.752              1.506              1.027
 Vibration    12          0.775              1.447              0.925
 Vibration    13          0.858              1.245              0.652
 Vibration    14          0.924              1.100              0.507
 Vibration    15          0.981              0.988              0.415

 Optimization completed.
    -- Stationary point found.
 Normal termination of Gaussian 16 at Wed Dec  9 16:52:57 2020.

 ----------------------------------------------------------------------
 # B3LYP/6-311++G(d,p) empiricaldispersion=gd3bj scf=xqc pop=npa geom=c
 heck
 ----------------------------------------------------------------------

 ---------------------------------------
 CID_122459472_JID_2077_Energie_neutraal
 ---------------------------------------
 Structure from the checkpoint file:  "JID_2077.chk"
 Charge =  0 Multiplicity = 1

 SCF Done:  E(RB3LYP) =  -590.863022584     A.U. after   14 cycles
 Normal termination of Gaussian 16 at Wed Dec  9 16:54:17 2020.

 ----------------------------------------------------------------------
 # B3LYP/6-311++G(d,p) empiricaldispersion=gd3bj scf=xqc pop=npa geom=c
 heck
 ----------------------------------------------------------------------

 -------------------------------------
 CID_122459472_JID_2077_Energie_kation
 -------------------------------------
 Structure from the checkpoint file:  "JID_2077.chk"
 Charge =  1 Multiplicity = 2

 SCF Done:  E(UB3LYP) =  -590.517172064     A.U. after   30 cycles
 Normal termination of Gaussian 16 at Wed Dec  9 16:58:02 2020.
 Gaussian 16:  ES64L-G16RevA.03 25-Dec-2016

 ----------------------------------------------------------------------
 # B3LYP/6-311++G(d,p) empiricaldispersion=gd3bj scf=xqc pop=npa geom=c
 heck
 ----------------------------------------------------------------------

 ------------------------------------
 CID_122459472_JID_2077_Energie_anion
 ------------------------------------
 Structure from the checkpoint file:  "JID_2077.chk"
 Charge = -1 Multiplicity = 2

                         Standard orientation:
 ---------------------------------------------------------------------
 Center     Atomic      Atomic             Coordinates (Angstroms)
 Number     Number       Type             X           Y           Z
 ---------------------------------------------------------------------
      1          6           0       -1.743886    1.507314   -0.808415
      2          6           0       -1.807321    0.238964    0.010863
      3          6           0       -3.093664   -0.433189    0.252248
      4          8           0       -2.177414   -0.938666   -0.726493
      5          6           0       -0.693873    0.014452    1.021597
      6          7           0        0.624438   -0.047030    0.412259
      7          6           0        1.454441    1.054216    0.195973
      8          8           0        1.191576    2.206374    0.477831
      9          6           0        2.707201    0.511870   -0.431045
     10          6           0        2.592399   -0.815107   -0.539971
     11          6           0        1.261338   -1.233267    0.019713
     12          8           0        0.821009   -2.353606    0.151322
     13          1           0       -2.624169    1.585399   -1.452097
     14          1           0       -0.854874    1.505831   -1.446833
     15          1           0       -1.686669    2.389978   -0.163861
     16          1           0       -3.226811   -1.060439    1.134444
     17          1           0       -4.008299    0.008657   -0.143297
     18          1           0       -0.681671    0.829388    1.751905
     19          1           0       -0.852067   -0.935185    1.537156
     20          1           0        3.527193    1.158286   -0.715324
     21          1           0        3.295114   -1.537033   -0.934953
 ---------------------------------------------------------------------

 SCF Done:  E(UB3LYP) =  -590.900026195     A.U. after   20 cycles

 The electronic state is 2-A.
 Alpha  occ. eigenvalues --  -19.02008 -18.92069 -18.91750 -14.18280 -10.12024
 Alpha  occ. eigenvalues --  -10.11498 -10.08886 -10.08749 -10.08047 -10.05164
 Alpha  occ. eigenvalues --   -9.99437  -9.99340  -0.96390  -0.88536  -0.86504
 Alpha  occ. eigenvalues --   -0.78240  -0.66478  -0.62345  -0.56916  -0.55210
 Alpha  occ. eigenvalues --   -0.48457  -0.46193  -0.42281  -0.40306  -0.37394
 Alpha  occ. eigenvalues --   -0.36654  -0.32607  -0.30859  -0.29881  -0.29281
 Alpha  occ. eigenvalues --   -0.27864  -0.27607  -0.26738  -0.25267  -0.24999
 Alpha  occ. eigenvalues --   -0.24266  -0.23084  -0.21909  -0.19245  -0.16390
 Alpha  occ. eigenvalues --   -0.12671  -0.11026  -0.10140  -0.08450   0.03703
 Alpha virt. eigenvalues --    0.07969   0.10039   0.10806   0.11220   0.12091
 Alpha virt. eigenvalues --    0.12752   0.13463   0.14020   0.15300   0.15806
 Alpha virt. eigenvalues --    0.16933   0.18477   0.19149   0.19334   0.19911

  Beta  occ. eigenvalues --  -19.02008 -18.91595 -18.91259 -14.18379 -10.12028
  Beta  occ. eigenvalues --  -10.11498 -10.08666 -10.08554 -10.08045 -10.05163
  Beta  occ. eigenvalues --   -9.99140  -9.99023  -0.96391  -0.87893  -0.85667
  Beta  occ. eigenvalues --   -0.77929  -0.66190  -0.62068  -0.56767  -0.55114
  Beta  occ. eigenvalues --   -0.47341  -0.46140  -0.41744  -0.40211  -0.37314
  Beta  occ. eigenvalues --   -0.36604  -0.32510  -0.30315  -0.29556  -0.29094
  Beta  occ. eigenvalues --   -0.27536  -0.27261  -0.26539  -0.24822  -0.24353
  Beta  occ. eigenvalues --   -0.23984  -0.22619  -0.19583  -0.19149  -0.16320
  Beta  occ. eigenvalues --   -0.10575  -0.09983  -0.09044  -0.07963
  Beta virt. eigenvalues --    0.07966   0.10034   0.10803   0.11203   0.11338
  Beta virt. eigenvalues --    0.12084   0.12765   0.13464   0.14025   0.15304
  Beta virt. eigenvalues --    0.15814   0.16967   0.18559   0.19254   0.19338

 Mulliken charges and spin densities:
               1          2
     1  C   -0.572678   0.003759
     2  C    0.582170   0.004553
     3  C   -0.346410  -0.000105
     4  O   -0.112747  -0.000148
     5  C   -0.616162  -0.013843
     6  N    0.195448  -0.056313
     7  C   -0.199367   0.154325
     8  O   -0.439399   0.158366
     9  C   -0.067101   0.230485
    10  C   -0.120124   0.272357
    11  C   -0.165999   0.119830
    12  O   -0.427121   0.167105
    13  H    0.111689  -0.000355
    14  H    0.203161  -0.000887
    15  H    0.161792   0.000114
    16  H    0.118152   0.000159
    17  H    0.112937   0.000031
    18  H    0.174806  -0.001449
    19  H    0.182425  -0.001020
    20  H    0.112813  -0.017967
    21  H    0.111714  -0.019000
 Sum of Mulliken charges =  -1.00000   1.00000

 Dipole moment (field-independent basis, Debye):
    X=             -6.0089    Y=              1.6829    Z=              0.8448  Tot=              6.2970
 Quadrupole moment (field-independent basis, Debye-Ang):
   XX=            -85.2962   YY=           -102.3127   ZZ=            -76.1359
   XY=             -4.0949   XZ=             -4.4030   YZ=             -3.9968

 Summary of Natural Population Analysis:

                                       Natural Population
                Natural  -----------------------------------------------
    Atom  No    Charge         Core      Valence    Rydberg      Total
 -----------------------------------------------------------------------
      C    1   -0.29561      0.99963     2.29047    0.00551     3.29561
      C    2    0.11107      0.99955     1.87757    0.01180     2.88893
      C    3   -0.03709      0.99951     2.02797    0.00960     3.03709
      O    4   -0.27819      0.99991     3.26881    0.00947     4.27819
      C    5   -0.09395      0.99957     2.08273    0.01164     3.09395
      N    6   -0.29663      0.99960     2.78543    0.01161     3.79663
      C    7    0.36132      0.99967     1.61653    0.02247     2.63868
      O    8   -0.27995      0.99987     3.27326    0.00683     4.27995
      C    9   -0.08179      0.99950     2.07311    0.00917     3.08179
      C   10   -0.07115      0.99950     2.06256    0.00908     3.07115
      C   11    0.35896      0.99968     1.61868    0.02268     2.64104
      O   12   -0.26399      0.99987     3.25715    0.00697     4.26399
      H   13    0.09343      0.00000     0.40563    0.00094     0.40657
      H   14    0.11453      0.00000     0.38465    0.00081     0.38547
      H   15    0.10743      0.00000     0.39165    0.00092     0.39257
      H   16    0.08353      0.00000     0.41520    0.00128     0.41647
      H   17    0.07924      0.00000     0.41935    0.00142     0.42076
      H   18    0.10368      0.00000     0.39499    0.00133     0.39632
      H   19    0.10803      0.00000     0.39058    0.00139     0.39197
      H   20    0.08860      0.00000     0.41020    0.00120     0.41140
      H   21    0.08852      0.00000     0.41028    0.00120     0.41148
 =======================================================================
   * Total *   -0.00000     11.99588    31.85680    0.14732    44.00000

 Normal termination of Gaussian 16 at Wed Dec  9 17:00:33 2020.
