 Gaussian 16, Revision A.03,

 -----------------------------------------------------------
 # opt freq B3LYP/6-31G(d) empiricaldispersion=gd3bj scf=xqc
 -----------------------------------------------------------

 -------------------------------
 CID_115881462_JID_8416_neutraal
 -------------------------------
 Symbolic Z-matrix:
 Charge =  0 Multiplicity = 1

 SCF Done:  E(RB3LYP) =  -754.801559519     A.U. after   14 cycles
 SCF Done:  E(RB3LYP) =  -754.806776750     A.U. after   11 cycles
 SCF Done:  E(RB3LYP) =  -754.807489333     A.U. after   11 cycles
 SCF Done:  E(RB3LYP) =  -754.807734587     A.U. after   11 cycles
 SCF Done:  E(RB3LYP) =  -754.807810138     A.U. after   10 cycles
 SCF Done:  E(RB3LYP) =  -754.807850970     A.U. after   10 cycles
 SCF Done:  E(RB3LYP) =  -754.807862791     A.U. after   10 cycles
 SCF Done:  E(RB3LYP) =  -754.807866139     A.U. after    9 cycles
 SCF Done:  E(RB3LYP) =  -754.807866891     A.U. after    7 cycles
 SCF Done:  E(RB3LYP) =  -754.807867718     A.U. after    7 cycles
 SCF Done:  E(RB3LYP) =  -754.807875750     A.U. after    9 cycles
 SCF Done:  E(RB3LYP) =  -754.807877377     A.U. after    8 cycles
 SCF Done:  E(RB3LYP) =  -754.807877913     A.U. after    8 cycles
 SCF Done:  E(RB3LYP) =  -754.807878064     A.U. after    7 cycles
 SCF Done:  E(RB3LYP) =  -754.807878072     A.U. after    6 cycles
 Optimization completed.
    -- Stationary point found.
 Normal termination of Gaussian 16 at Fri Dec 11 20:43:51 2020.

 --------------------------------------------------------------------
 #N Geom=AllCheck Guess=TCheck SCRF=Check GenChk RB3LYP/6-31G(d) Freq
 --------------------------------------------------------------------

 Structure from the checkpoint file:  "JID_8416.chk"
 -------------------------------
 CID_115881462_JID_8416_neutraal
 -------------------------------
 Charge =  0 Multiplicity = 1

 SCF Done:  E(RB3LYP) =  -754.807878072     A.U. after    1 cycles

  Exact polarizability: 209.958   3.176 193.828 -12.587  -2.612 126.159
 Approx polarizability: 271.552   2.816 290.053 -26.868  -8.017 190.599

                      1                      2                      3
                      A                      A                      A
 Frequencies --     22.4880                26.4036                39.2465
 Red. masses --      3.4002                 3.2344                 1.0665
 Frc consts  --      0.0010                 0.0013                 0.0010
 IR Inten    --      0.0148                 0.1358                 0.1596

                      4                      5                      6
                      A                      A                      A
 Frequencies --     48.8772                68.9443                84.1295
 Red. masses --      3.0035                 3.5525                 2.9684
 Frc consts  --      0.0042                 0.0099                 0.0124
 IR Inten    --      0.4614                 0.8017                 2.5202

                      7                      8                      9
                      A                      A                      A
 Frequencies --    134.9275               155.3474               166.3775
 Red. masses --      3.2674                 3.1676                 2.8183
 Frc consts  --      0.0350                 0.0450                 0.0460
 IR Inten    --      0.2462                 1.9861                 0.4471

                     10                     11                     12
                      A                      A                      A
 Frequencies --    187.7621               205.5892               214.9865
 Red. masses --      3.6246                 2.5515                 1.4883
 Frc consts  --      0.0753                 0.0635                 0.0405
 IR Inten    --      0.9290                 2.4515                 0.4687

                     13                     14                     15
                      A                      A                      A
 Frequencies --    239.8614               258.2342               261.7890
 Red. masses --      1.1912                 1.6733                 1.1917
 Frc consts  --      0.0404                 0.0657                 0.0481
 IR Inten    --      0.1155                 0.0383                 0.0616

                     16                     17                     18
                      A                      A                      A
 Frequencies --    273.0382               297.6647               348.6856
 Red. masses --      3.0633                 1.5095                 2.3367
 Frc consts  --      0.1346                 0.0788                 0.1674
 IR Inten    --      0.8538                 0.0899                 0.1800

                     19                     20                     21
                      A                      A                      A
 Frequencies --    354.0782               364.6037               393.1066
 Red. masses --      2.9104                 3.7579                 2.2440
 Frc consts  --      0.2150                 0.2943                 0.2043
 IR Inten    --      1.0142                 1.3184                 0.0198

                     22                     23                     24
                      A                      A                      A
 Frequencies --    402.2441               432.0128               447.7430
 Red. masses --      2.4069                 3.0585                 2.2854
 Frc consts  --      0.2295                 0.3363                 0.2699
 IR Inten    --      0.8055                 2.0869                 2.7890

                     25                     26                     27
                      A                      A                      A
 Frequencies --    458.8230               486.2479               564.7878
 Red. masses --      3.0085                 4.3147                 3.1894
 Frc consts  --      0.3732                 0.6011                 0.5994
 IR Inten    --      1.5083                 6.4076                 1.7927

                     28                     29                     30
                      A                      A                      A
 Frequencies --    572.8944               590.4948               598.1558
 Red. masses --      3.0582                 3.0193                 4.4431
 Frc consts  --      0.5914                 0.6203                 0.9366
 IR Inten    --      1.0632                 3.1862                 1.8049

                     31                     32                     33
                      A                      A                      A
 Frequencies --    644.8675               723.4502               727.1611
 Red. masses --      2.9914                 4.0508                 3.9533
 Frc consts  --      0.7329                 1.2491                 1.2316
 IR Inten    --      5.9641                 6.5138                 1.8241

                     34                     35                     36
                      A                      A                      A
 Frequencies --    763.1655               789.5851               803.4008
 Red. masses --      2.9067                 3.1570                 2.0410
 Frc consts  --      0.9974                 1.1596                 0.7762
 IR Inten    --      5.1781                24.5306                19.8919

                     37                     38                     39
                      A                      A                      A
 Frequencies --    816.7580               837.4122               876.3712
 Red. masses --      1.4909                 1.7974                 2.0179
 Frc consts  --      0.5860                 0.7426                 0.9131
 IR Inten    --     25.9117                11.7380                 9.9739

                     40                     41                     42
                      A                      A                      A
 Frequencies --    917.7492               921.7863               932.7426
 Red. masses --      2.1442                 1.2667                 1.7440
 Frc consts  --      1.0640                 0.6341                 0.8940
 IR Inten    --      0.1759                 0.6848                 0.3766

                     43                     44                     45
                      A                      A                      A
 Frequencies --    941.5325               956.2693               962.8954
 Red. masses --      1.3343                 1.9083                 1.7390
 Frc consts  --      0.6969                 1.0281                 0.9500
 IR Inten    --      6.7106                 1.0366                 4.1150

                     46                     47                     48
                      A                      A                      A
 Frequencies --    966.7740               996.6959              1002.3694
 Red. masses --      1.9902                 1.7742                 1.7918
 Frc consts  --      1.0960                 1.0384                 1.0607
 IR Inten    --      0.6948                 2.0171                 7.0473

                     49                     50                     51
                      A                      A                      A
 Frequencies --   1020.1522              1036.8076              1043.7809
 Red. masses --      1.9904                 1.6568                 1.5419
 Frc consts  --      1.2205                 1.0493                 0.9897
 IR Inten    --      8.7570                 8.1510                 2.1574

                     52                     53                     54
                      A                      A                      A
 Frequencies --   1077.6048              1081.9242              1083.4231
 Red. masses --      1.4971                 3.3200                 2.2598
 Frc consts  --      1.0243                 2.2897                 1.5629
 IR Inten    --      4.4698                24.6871                 8.8393

                     55                     56                     57
                      A                      A                      A
 Frequencies --   1106.6082              1119.9479              1142.3080
 Red. masses --      1.5332                 1.9478                 2.5957
 Frc consts  --      1.1062                 1.4394                 1.9956
 IR Inten    --      2.2990                16.4388                67.0171

                     58                     59                     60
                      A                      A                      A
 Frequencies --   1167.9245              1187.1640              1190.0310
 Red. masses --      2.4673                 1.2746                 1.4645
 Frc consts  --      1.9829                 1.0584                 1.2219
 IR Inten    --     21.0364                 1.1303                 7.1648

                     61                     62                     63
                      A                      A                      A
 Frequencies --   1204.8683              1215.8436              1220.5339
 Red. masses --      1.6305                 1.5310                 1.3970
 Frc consts  --      1.3946                 1.3335                 1.2262
 IR Inten    --      4.4722                20.9490                 9.4223

                     64                     65                     66
                      A                      A                      A
 Frequencies --   1241.8743              1257.1228              1277.1404
 Red. masses --      1.5658                 1.8885                 1.8021
 Frc consts  --      1.4228                 1.7584                 1.7318
 IR Inten    --      1.4637                23.6884                 5.4028

                     67                     68                     69
                      A                      A                      A
 Frequencies --   1282.7895              1294.6949              1310.1945
 Red. masses --      1.5626                 5.2409                 1.5965
 Frc consts  --      1.5150                 5.1760                 1.6147
 IR Inten    --      6.5703               197.4822                 8.5811

                     70                     71                     72
                      A                      A                      A
 Frequencies --   1321.2180              1322.9369              1333.0420
 Red. masses --      1.5302                 1.5356                 1.4350
 Frc consts  --      1.5737                 1.5835                 1.5025
 IR Inten    --     11.2596                10.8272                 4.9947

                     73                     74                     75
                      A                      A                      A
 Frequencies --   1352.7475              1360.7114              1378.1120
 Red. masses --      1.5879                 2.4714                 1.5649
 Frc consts  --      1.7120                 2.6960                 1.7511
 IR Inten    --      3.4037                23.5306                 0.8407

                     76                     77                     78
                      A                      A                      A
 Frequencies --   1387.9158              1426.4998              1429.3705
 Red. masses --      1.6453                 1.5713                 1.2695
 Frc consts  --      1.8674                 1.8838                 1.5281
 IR Inten    --     19.3493                16.8258                 5.2689

                     79                     80                     81
                      A                      A                      A
 Frequencies --   1444.0641              1448.5359              1467.9527
 Red. masses --      1.2600                 1.2286                 2.8457
 Frc consts  --      1.5481                 1.5188                 3.6130
 IR Inten    --      0.0817                 3.6548                 1.1321

                     82                     83                     84
                      A                      A                      A
 Frequencies --   1499.6005              1509.7286              1511.3728
 Red. masses --      1.2215                 1.1026                 1.1482
 Frc consts  --      1.6184                 1.4807                 1.5453
 IR Inten    --     15.7905                17.7870                31.8446

                     85                     86                     87
                      A                      A                      A
 Frequencies --   1513.5365              1515.2256              1516.6649
 Red. masses --      1.0945                 1.0448                 1.0617
 Frc consts  --      1.4772                 1.4134                 1.4388
 IR Inten    --      2.6449                 5.3394                 6.8140

                     88                     89                     90
                      A                      A                      A
 Frequencies --   1520.0072              1528.5371              1529.5267
 Red. masses --      1.0482                 1.0998                 1.0700
 Frc consts  --      1.4268                 1.5139                 1.4748
 IR Inten    --      4.7263                 6.0095                 8.1924

                     91                     92                     93
                      A                      A                      A
 Frequencies --   1533.6975              1536.0116              1536.9976
 Red. masses --      1.1220                 1.0973                 1.0767
 Frc consts  --      1.5549                 1.5253                 1.4986
 IR Inten    --     26.1556                34.3184                14.5987

                     94                     95                     96
                      A                      A                      A
 Frequencies --   1538.7286              1541.8554              1556.3763
 Red. masses --      1.0707                 1.0714                 2.3606
 Frc consts  --      1.4936                 1.5007                 3.3691
 IR Inten    --      8.3749                 2.8965                77.3146

                     97                     98                     99
                      A                      A                      A
 Frequencies --   1648.1956              1673.4447              2983.9902
 Red. masses --      6.3423                 6.0562                 1.0692
 Frc consts  --     10.1511                 9.9925                 5.6091
 IR Inten    --      5.3142                15.8255                32.1381

                    100                    101                    102
                      A                      A                      A
 Frequencies --   3023.1220              3027.4766              3033.2756
 Red. masses --      1.0347                 1.0894                 1.0429
 Frc consts  --      5.5718                 5.8832                 5.6534
 IR Inten    --     66.0796                20.9197                12.7977

                    103                    104                    105
                      A                      A                      A
 Frequencies --   3035.7091              3039.3513              3039.5360
 Red. masses --      1.0585                 1.0572                 1.0377
 Frc consts  --      5.7472                 5.7540                 5.6487
 IR Inten    --     44.7197                17.8246                47.2073

                    106                    107                    108
                      A                      A                      A
 Frequencies --   3045.0056              3056.2343              3061.3268
 Red. masses --      1.0504                 1.0751                 1.0673
 Frc consts  --      5.7384                 5.9165                 5.8935
 IR Inten    --     39.4226                31.3704                15.6504

                    109                    110                    111
                      A                      A                      A
 Frequencies --   3080.6347              3086.8165              3088.5405
 Red. masses --      1.1064                 1.0998                 1.0988
 Frc consts  --      6.1867                 6.1742                 6.1755
 IR Inten    --     43.0583                27.3953                21.9931

                    112                    113                    114
                      A                      A                      A
 Frequencies --   3089.8008              3098.5885              3104.7405
 Red. masses --      1.1007                 1.1022                 1.1018
 Frc consts  --      6.1912                 6.2352                 6.2577
 IR Inten    --     24.7392                 9.7252                26.4488

                    115                    116                    117
                      A                      A                      A
 Frequencies --   3107.1499              3110.2298              3115.8977
 Red. masses --      1.1016                 1.1003                 1.1011
 Frc consts  --      6.2664                 6.2711                 6.2984
 IR Inten    --     65.3839                89.0147                36.6159

                    118                    119                    120
                      A                      A                      A
 Frequencies --   3120.1135              3154.7221              3179.9335
 Red. masses --      1.1008                 1.0997                 1.0892
 Frc consts  --      6.3140                 6.4483                 6.4890
 IR Inten    --     20.5627                26.8248                21.6464

                    121                    122                    123
                      A                      A                      A
 Frequencies --   3200.5094              3224.8447              3470.2628
 Red. masses --      1.0893                 1.0911                 1.0733
 Frc consts  --      6.5744                 6.6855                 7.6158
 IR Inten    --      4.4679                16.0457                 1.1865

 - Thermochemistry -
 -------------------
 Temperature   298.150 Kelvin.  Pressure   1.00000 Atm.
 Atom     1 has atomic number  6 and mass  12.00000

 Molecular mass:   247.19361 amu.
 Principal axes and moments of inertia in atomic units:
                           1         2         3
     Eigenvalues --  2655.749509537.85442**********
           X            0.99999   0.00329   0.00168
           Y           -0.00329   0.99999  -0.00067
           Z           -0.00168   0.00067   1.00000
 This molecule is an asymmetric top.
 Rotational symmetry number  1.
 Warning -- assumption of classical behavior for rotation
           may cause significant error
 Rotational temperatures (Kelvin)      0.03261     0.00908     0.00772
 Rotational constants (GHZ):           0.67956     0.18922     0.16090
 Zero-point vibrational energy    1012661.0 (Joules/Mol)
                                  242.03178 (Kcal/Mol)
 Warning -- explicit consideration of  30 degrees of freedom as
           vibrations may cause significant error
 Vibrational temperatures:     32.36    37.99    56.47    70.32    99.20
          (Kelvin)            121.04   194.13   223.51   239.38   270.15
                              295.80   309.32   345.11   371.54   376.66
                              392.84   428.27   501.68   509.44   524.58
                              565.59   578.74   621.57   644.20   660.14
                              699.60   812.60   824.27   849.59   860.61
                              927.82  1040.88  1046.22  1098.02  1136.04
                             1155.91  1175.13  1204.85  1260.90  1320.44
                             1326.24  1342.01  1354.66  1375.86  1385.39
                             1390.97  1434.02  1442.19  1467.77  1491.73
                             1501.77  1550.43  1556.65  1558.80  1592.16
                             1611.36  1643.53  1680.38  1708.06  1712.19
                             1733.54  1749.33  1756.08  1786.78  1808.72
                             1837.52  1845.65  1862.78  1885.08  1900.94
                             1903.41  1917.95  1946.30  1957.76  1982.80
                             1996.90  2052.42  2056.55  2077.69  2084.12
                             2112.06  2157.59  2172.16  2174.53  2177.64
                             2180.07  2182.14  2186.95  2199.22  2200.65
                             2206.65  2209.98  2211.40  2213.89  2218.39
                             2239.28  2371.39  2407.71  4293.30  4349.60
                             4355.86  4364.21  4367.71  4372.95  4373.21
                             4381.08  4397.24  4404.57  4432.35  4441.24
                             4443.72  4445.53  4458.18  4467.03  4470.50
                             4474.93  4483.08  4489.15  4538.94  4575.22
                             4604.82  4639.83  4992.93

 Zero-point correction=                           0.385702 (Hartree/Particle)
 Thermal correction to Energy=                    0.404666
 Thermal correction to Enthalpy=                  0.405610
 Thermal correction to Gibbs Free Energy=         0.336971
 Sum of electronic and zero-point Energies=           -754.422176
 Sum of electronic and thermal Energies=              -754.403212
 Sum of electronic and thermal Enthalpies=            -754.402268
 Sum of electronic and thermal Free Energies=         -754.470907

                     E (Thermal)             CV                S
                      KCal/Mol        Cal/Mol-Kelvin    Cal/Mol-Kelvin
 Total                  253.932             72.503            144.464
 Electronic               0.000              0.000              0.000
 Translational            0.889              2.981             42.416
 Rotational               0.889              2.981             34.007
 Vibrational            252.154             66.541             68.042
 Vibration     1          0.593              1.985              6.401
 Vibration     2          0.593              1.985              6.083
 Vibration     3          0.594              1.981              5.297
 Vibration     4          0.595              1.978              4.862
 Vibration     5          0.598              1.969              4.183
 Vibration     6          0.601              1.960              3.792
 Vibration     7          0.613              1.918              2.875
 Vibration     8          0.620              1.897              2.606
 Vibration     9          0.624              1.884              2.476
 Vibration    10          0.632              1.857              2.250
 Vibration    11          0.640              1.832              2.082
 Vibration    12          0.645              1.818              2.001
 Vibration    13          0.657              1.779              1.804
 Vibration    14          0.667              1.749              1.674
 Vibration    15          0.669              1.743              1.650
 Vibration    16          0.676              1.723              1.577
 Vibration    17          0.691              1.678              1.430
 Vibration    18          0.726              1.578              1.172
 Vibration    19          0.730              1.567              1.148
 Vibration    20          0.738              1.545              1.102
 Vibration    21          0.760              1.485              0.988
 Vibration    22          0.768              1.465              0.954
 Vibration    23          0.793              1.400              0.852
 Vibration    24          0.807              1.366              0.803
 Vibration    25          0.817              1.341              0.770
 Vibration    26          0.842              1.281              0.693
 Vibration    27          0.921              1.107              0.514
 Vibration    28          0.929              1.090              0.499
 Vibration    29          0.948              1.052              0.466
 Vibration    30          0.956              1.036              0.453

 Optimization completed.
    -- Stationary point found.
 Normal termination of Gaussian 16 at Fri Dec 11 21:01:27 2020.

 ----------------------------------------------------------------------
 # B3LYP/6-311++G(d,p) empiricaldispersion=gd3bj scf=xqc pop=npa geom=c
 heck
 ----------------------------------------------------------------------

 ---------------------------------------
 CID_115881462_JID_8416_Energie_neutraal
 ---------------------------------------
 Structure from the checkpoint file:  "JID_8416.chk"
 Charge =  0 Multiplicity = 1

 SCF Done:  E(RB3LYP) =  -755.012833716     A.U. after   14 cycles
 Normal termination of Gaussian 16 at Fri Dec 11 21:08:45 2020.

 ----------------------------------------------------------------------
 # B3LYP/6-311++G(d,p) empiricaldispersion=gd3bj scf=xqc pop=npa geom=c
 heck
 ----------------------------------------------------------------------

 -------------------------------------
 CID_115881462_JID_8416_Energie_kation
 -------------------------------------
 Structure from the checkpoint file:  "JID_8416.chk"
 Charge =  1 Multiplicity = 2

 SCF Done:  E(UB3LYP) =  -754.739618997     A.U. after   22 cycles
 Normal termination of Gaussian 16 at Fri Dec 11 21:25:08 2020.
 Gaussian 16:  ES64L-G16RevA.03 25-Dec-2016

 ----------------------------------------------------------------------
 # B3LYP/6-311++G(d,p) empiricaldispersion=gd3bj scf=xqc pop=npa geom=c
 heck
 ----------------------------------------------------------------------

 ------------------------------------
 CID_115881462_JID_8416_Energie_anion
 ------------------------------------
 Structure from the checkpoint file:  "JID_8416.chk"
 Charge = -1 Multiplicity = 2

                         Standard orientation:
 ---------------------------------------------------------------------
 Center     Atomic      Atomic             Coordinates (Angstroms)
 Number     Number       Type             X           Y           Z
 ---------------------------------------------------------------------
      1          6           0       -3.595191   -3.208455    0.383122
      2          6           0       -3.289022   -1.737355    0.237658
      3          6           0       -2.014522   -1.311445   -0.167990
      4          6           0       -1.690317    0.033906   -0.308310
      5          6           0       -2.686759    0.996424   -0.046873
      6          6           0       -3.959921    0.598459    0.358773
      7          6           0       -4.249345   -0.762937    0.498718
      8          8           0       -2.308085    2.302073   -0.225702
      9          6           0       -3.261916    3.312381    0.044836
     10          6           0       -0.312046    0.485200   -0.741033
     11          7           0        0.680589   -0.573489   -0.593230
     12          6           0        2.017797   -0.213816   -1.062388
     13          6           0        2.955566   -1.449627   -1.012480
     14          6           0        4.306679   -0.924529   -0.508879
     15          6           0        3.945686    0.215568    0.471764
     16          6           0        2.770681    0.902139   -0.265809
     17          6           0        5.120001    1.168917    0.710776
     18          6           0        3.477594   -0.359310    1.820726
     19          1           0       -3.408368   -3.751779   -0.551354
     20          1           0       -2.970217   -3.675613    1.154881
     21          1           0       -4.641623   -3.371638    0.660241
     22          1           0       -1.241914   -2.041572   -0.390629
     23          1           0       -4.732210    1.330108    0.565094
     24          1           0       -5.246403   -1.059736    0.815154
     25          1           0       -4.137400    3.226399   -0.612501
     26          1           0       -3.596075    3.282150    1.090589
     27          1           0       -2.758222    4.261653   -0.146778
     28          1           0       -0.335935    0.769802   -1.803404
     29          1           0       -0.056147    1.410166   -0.198348
     30          1           0        0.729622   -0.844675    0.388824
     31          1           0        1.890671    0.115910   -2.100341
     32          1           0        3.022944   -1.953266   -1.981325
     33          1           0        2.538764   -2.182493   -0.311769
     34          1           0        4.883584   -0.506509   -1.345101
     35          1           0        4.925884   -1.701015   -0.044561
     36          1           0        2.104853    1.436582    0.421844
     37          1           0        3.168680    1.650586   -0.962528
     38          1           0        5.481449    1.591516   -0.234292
     39          1           0        4.828880    2.002131    1.362182
     40          1           0        5.959244    0.649846    1.190373
     41          1           0        3.154812    0.444321    2.493193
     42          1           0        2.636359   -1.051805    1.707920
     43          1           0        4.289525   -0.906340    2.315201
 ---------------------------------------------------------------------

 SCF Done:  E(UB3LYP) =  -754.999717916     A.U. after   33 cycles
 SCF Done:  E(UB3LYP) =  -754.999717916     a.u. after    1 cycles

 The electronic state is 2-A.
 Alpha  occ. eigenvalues --  -19.06240 -14.20634 -10.14018 -10.12896 -10.10658
 Alpha  occ. eigenvalues --  -10.10307 -10.09173 -10.08757 -10.08715 -10.08402
 Alpha  occ. eigenvalues --  -10.08190 -10.08064 -10.07610 -10.07372 -10.07331
 Alpha  occ. eigenvalues --  -10.07041 -10.06904 -10.06876  -0.97775  -0.82367
 Alpha  occ. eigenvalues --   -0.76813  -0.74982  -0.69281  -0.67323  -0.65651
 Alpha  occ. eigenvalues --   -0.62842  -0.61408  -0.59920  -0.58751  -0.57524
 Alpha  occ. eigenvalues --   -0.54974  -0.50485  -0.49132  -0.47803  -0.44580
 Alpha  occ. eigenvalues --   -0.44075  -0.41133  -0.39942  -0.38511  -0.37944
 Alpha  occ. eigenvalues --   -0.37087  -0.35777  -0.35469  -0.35139  -0.34491
 Alpha  occ. eigenvalues --   -0.33659  -0.33565  -0.33211  -0.31919  -0.31441
 Alpha  occ. eigenvalues --   -0.30415  -0.29744  -0.29117  -0.28094  -0.27446
 Alpha  occ. eigenvalues --   -0.26922  -0.26596  -0.25853  -0.25310  -0.24616
 Alpha  occ. eigenvalues --   -0.23374  -0.23316  -0.22690  -0.22593  -0.22057
 Alpha  occ. eigenvalues --   -0.16017  -0.13574  -0.12738   0.03912
 Alpha virt. eigenvalues --    0.05244   0.05989   0.06664   0.07278   0.07460
 Alpha virt. eigenvalues --    0.07626   0.08122   0.08591   0.08855   0.09132
 Alpha virt. eigenvalues --    0.09614   0.09670   0.09919   0.10177   0.10438

  Beta  occ. eigenvalues --  -19.06232 -14.20628 -10.14019 -10.12848 -10.10653
  Beta  occ. eigenvalues --  -10.10303 -10.09173 -10.08757 -10.08715 -10.08392
  Beta  occ. eigenvalues --  -10.08181 -10.08050 -10.07604 -10.07362 -10.07314
  Beta  occ. eigenvalues --  -10.07015 -10.06879 -10.06863  -0.97759  -0.82354
  Beta  occ. eigenvalues --   -0.76803  -0.74969  -0.69268  -0.67305  -0.65629
  Beta  occ. eigenvalues --   -0.62799  -0.61382  -0.59873  -0.58721  -0.57490
  Beta  occ. eigenvalues --   -0.54938  -0.50455  -0.49107  -0.47779  -0.44536
  Beta  occ. eigenvalues --   -0.44041  -0.41113  -0.39911  -0.38488  -0.37915
  Beta  occ. eigenvalues --   -0.37057  -0.35755  -0.35443  -0.35114  -0.34467
  Beta  occ. eigenvalues --   -0.33646  -0.33535  -0.33195  -0.31896  -0.31419
  Beta  occ. eigenvalues --   -0.30393  -0.29722  -0.29093  -0.28072  -0.27425
  Beta  occ. eigenvalues --   -0.26897  -0.26580  -0.25833  -0.25285  -0.24592
  Beta  occ. eigenvalues --   -0.23347  -0.23292  -0.22669  -0.22574  -0.22036
  Beta  occ. eigenvalues --   -0.16005  -0.13564  -0.12729
  Beta virt. eigenvalues --    0.05638   0.06034   0.06571   0.06929   0.07527
  Beta virt. eigenvalues --    0.07747   0.07899   0.08352   0.08724   0.09162
  Beta virt. eigenvalues --    0.09425   0.09792   0.09957   0.10234   0.10414

 Mulliken charges and spin densities:
               1          2
     1  C    0.517478  -1.129501
     2  C    0.415779   0.033228
     3  C   -0.453049   0.368422
     4  C    0.692016  -0.037504
     5  C   -0.431104  -0.003248
     6  C   -0.547923   0.498976
     7  C    0.255811  -1.277324
     8  O   -0.164920   0.053793
     9  C    0.890919  -1.166402
    10  C   -0.986868   0.454276
    11  N    0.244432  -0.085539
    12  C   -0.816388   0.543366
    13  C    0.028455  -0.348266
    14  C    0.075469  -0.565998
    15  C   -1.067918   1.875272
    16  C    0.678691  -1.267530
    17  C    0.472211  -0.954774
    18  C    0.326387  -1.018764
    19  H    0.084547   0.064747
    20  H    0.047460   0.106208
    21  H    0.045469   0.101423
    22  H    0.129577   0.057788
    23  H   -0.329514   0.518055
    24  H   -0.295590   0.415094
    25  H   -0.270022   0.416900
    26  H   -0.241595   0.394536
    27  H   -0.519123   0.694706
    28  H    0.068348   0.113596
    29  H    0.375028  -0.164994
    30  H    0.301408  -0.146071
    31  H    0.013380   0.167659
    32  H   -0.007978   0.173585
    33  H    0.112246   0.023793
    34  H   -0.050286   0.188739
    35  H   -0.084735   0.247180
    36  H    0.011170   0.130770
    37  H   -0.043652   0.211733
    38  H   -0.107799   0.243768
    39  H   -0.011148   0.149079
    40  H   -0.127169   0.265925
    41  H   -0.027439   0.171569
    42  H   -0.081402   0.205525
    43  H   -0.120661   0.276204
 Sum of Mulliken charges =  -1.00000   1.00000

 Dipole moment (field-independent basis, Debye):
    X=              0.8920    Y=             -4.2561    Z=             -1.1145  Tot=              4.4891
 Quadrupole moment (field-independent basis, Debye-Ang):
   XX=           -227.0528   YY=           -169.4206   ZZ=           -147.7364
   XY=             14.9758   XZ=             -0.3796   YZ=             -0.7867

 Summary of Natural Population Analysis:

                                       Natural Population
                Natural  -----------------------------------------------
    Atom  No    Charge         Core      Valence    Rydberg      Total
 -----------------------------------------------------------------------
      C    1   -0.28968      0.99964     2.28520    0.00484     3.28968
      C    2   -0.03098      0.99952     2.02328    0.00819     3.03098
      C    3   -0.09732      0.99948     2.08981    0.00802     3.09732
      C    4   -0.03075      0.99948     2.02214    0.00914     3.03075
      C    5    0.16102      0.99933     1.82679    0.01285     2.83898
      C    6   -0.13914      0.99952     2.13046    0.00916     3.13914
      C    7   -0.09675      0.99952     2.08738    0.00985     3.09675
      O    8   -0.27481      0.99986     3.26508    0.00987     4.27481
      C    9   -0.10022      0.99960     2.09139    0.00923     3.10022
      C   10   -0.09381      0.99959     2.08437    0.00985     3.09381
      N   11   -0.33746      0.99973     2.82752    0.01021     3.83746
      C   12   -0.00624      0.99960     1.99428    0.01236     3.00624
      C   13   -0.19127      0.99962     2.18341    0.00824     3.19127
      C   14   -0.18914      0.99959     2.18046    0.00909     3.18914
      C   15   -0.04953      0.99958     2.03716    0.01279     3.04953
      C   16   -0.19961      0.99958     2.19055    0.00948     3.19961
      C   17   -0.28014      0.99962     2.27454    0.00598     3.28014
      C   18   -0.28503      0.99962     2.27794    0.00746     3.28503
      H   19    0.10099      0.00000     0.39779    0.00122     0.39901
      H   20    0.10150      0.00000     0.39726    0.00125     0.39850
      H   21    0.09987      0.00000     0.39925    0.00089     0.40013
      H   22    0.10836      0.00000     0.39029    0.00135     0.39164
      H   23    0.10720      0.00000     0.39129    0.00151     0.39280
      H   24    0.09793      0.00000     0.40106    0.00101     0.40207
      H   25    0.08498      0.00000     0.41309    0.00193     0.41502
      H   26    0.08557      0.00000     0.41252    0.00192     0.41443
      H   27    0.09525      0.00000     0.40347    0.00128     0.40475
      H   28    0.09869      0.00000     0.39984    0.00146     0.40131
      H   29    0.09395      0.00000     0.40379    0.00226     0.40605
      H   30    0.16987      0.00000     0.32692    0.00322     0.33013
      H   31    0.09223      0.00000     0.40658    0.00119     0.40777
      H   32    0.10140      0.00000     0.39762    0.00098     0.39860
      H   33    0.09741      0.00000     0.40119    0.00140     0.40259
      H   34    0.09682      0.00000     0.40199    0.00119     0.40318
      H   35    0.10066      0.00000     0.39842    0.00092     0.39934
      H   36    0.10289      0.00000     0.39593    0.00118     0.39711
      H   37    0.10086      0.00000     0.39795    0.00120     0.39914
      H   38    0.09935      0.00000     0.39956    0.00109     0.40065
      H   39    0.09956      0.00000     0.39945    0.00098     0.40044
      H   40    0.09887      0.00000     0.40009    0.00105     0.40113
      H   41    0.10082      0.00000     0.39833    0.00084     0.39918
      H   42    0.09619      0.00000     0.40259    0.00122     0.40381
      H   43    0.09965      0.00000     0.39947    0.00088     0.40035
 =======================================================================
   * Total *    0.00000     17.99248    49.80748    0.20004    68.00000

 Normal termination of Gaussian 16 at Fri Dec 11 21:48:32 2020.
