 Gaussian 16, Revision A.03,

 -----------------------------------------------------------
 # opt freq B3LYP/6-31G(d) empiricaldispersion=gd3bj scf=xqc
 -----------------------------------------------------------

 ------------------------------
 CID_62018273_JID_2746_neutraal
 ------------------------------
 Symbolic Z-matrix:
 Charge =  0 Multiplicity = 1

 SCF Done:  E(RB3LYP) =  -557.251808302     A.U. after   15 cycles
 SCF Done:  E(RB3LYP) =  -557.256093746     A.U. after   13 cycles
 SCF Done:  E(RB3LYP) =  -557.256969105     A.U. after   13 cycles
 SCF Done:  E(RB3LYP) =  -557.257358111     A.U. after   15 cycles
 SCF Done:  E(RB3LYP) =  -557.258032467     A.U. after   12 cycles
 SCF Done:  E(RB3LYP) =  -557.258164747     A.U. after   13 cycles
 SCF Done:  E(RB3LYP) =  -557.258438589     A.U. after   12 cycles
 SCF Done:  E(RB3LYP) =  -557.258457859     A.U. after   12 cycles
 SCF Done:  E(RB3LYP) =  -557.258462602     A.U. after   10 cycles
 SCF Done:  E(RB3LYP) =  -557.258464333     A.U. after    9 cycles
 SCF Done:  E(RB3LYP) =  -557.258466798     A.U. after    9 cycles
 SCF Done:  E(RB3LYP) =  -557.258467280     A.U. after    9 cycles
 SCF Done:  E(RB3LYP) =  -557.258467606     A.U. after    9 cycles
 SCF Done:  E(RB3LYP) =  -557.258467753     A.U. after    8 cycles
 SCF Done:  E(RB3LYP) =  -557.258467786     A.U. after    7 cycles
 Optimization completed.
    -- Stationary point found.
 Normal termination of Gaussian 16 at Wed Dec  9 18:14:04 2020.

 --------------------------------------------------------------------
 #N Geom=AllCheck Guess=TCheck SCRF=Check GenChk RB3LYP/6-31G(d) Freq
 --------------------------------------------------------------------

 Structure from the checkpoint file:  "JID_2746.chk"
 ------------------------------
 CID_62018273_JID_2746_neutraal
 ------------------------------
 Charge =  0 Multiplicity = 1

 SCF Done:  E(RB3LYP) =  -557.258467786     A.U. after    1 cycles

  Exact polarizability: 107.724  -2.460 101.550   5.430   0.166  90.905
 Approx polarizability: 138.021  -8.877 145.014  15.223  -2.870 147.315

                      1                      2                      3
                      A                      A                      A
 Frequencies --     26.7132                36.3417                45.7625
 Red. masses --      4.2271                 2.8852                 4.1826
 Frc consts  --      0.0018                 0.0022                 0.0052
 IR Inten    --      3.2140                 2.8464                 3.9723

                      4                      5                      6
                      A                      A                      A
 Frequencies --     93.6242               102.7649               143.2931
 Red. masses --      2.3497                 1.3660                 5.0588
 Frc consts  --      0.0121                 0.0085                 0.0612
 IR Inten    --      1.4746                 0.5348                 0.7150

                      7                      8                      9
                      A                      A                      A
 Frequencies --    159.3346               185.3463               227.4734
 Red. masses --      2.5151                 1.9635                 2.5250
 Frc consts  --      0.0376                 0.0397                 0.0770
 IR Inten    --      2.9089                 0.0092                 2.9939

                     10                     11                     12
                      A                      A                      A
 Frequencies --    268.5167               324.5935               386.9167
 Red. masses --      3.2689                 2.2676                 2.7448
 Frc consts  --      0.1389                 0.1408                 0.2421
 IR Inten    --     10.6033                 4.2050                 4.3860

                     13                     14                     15
                      A                      A                      A
 Frequencies --    436.2176               473.6721               490.1296
 Red. masses --      2.7742                 2.3480                 3.0131
 Frc consts  --      0.3110                 0.3104                 0.4265
 IR Inten    --      3.4248                 1.1795                 3.6158

                     16                     17                     18
                      A                      A                      A
 Frequencies --    566.8495               595.1980               633.7759
 Red. masses --      2.4251                 3.4601                 3.0524
 Frc consts  --      0.4591                 0.7222                 0.7224
 IR Inten    --      6.1807                 5.1932                 0.7041

                     19                     20                     21
                      A                      A                      A
 Frequencies --    677.6881               728.9605               761.2912
 Red. masses --      4.0296                 2.1364                 2.3080
 Frc consts  --      1.0904                 0.6689                 0.7881
 IR Inten    --     17.6292                 6.0506                 5.0302

                     22                     23                     24
                      A                      A                      A
 Frequencies --    805.2539               869.1865               883.1624
 Red. masses --      2.1544                 1.9637                 2.3349
 Frc consts  --      0.8231                 0.8741                 1.0730
 IR Inten    --      4.4121                 5.8908                 4.8910

                     25                     26                     27
                      A                      A                      A
 Frequencies --    914.9186               926.9067               941.0982
 Red. masses --      1.5110                 1.7942                 2.0875
 Frc consts  --      0.7452                 0.9082                 1.0893
 IR Inten    --      2.3226                 4.1806                 0.9767

                     28                     29                     30
                      A                      A                      A
 Frequencies --    965.2384              1001.1290              1033.9183
 Red. masses --      1.8206                 2.3026                 1.9640
 Frc consts  --      0.9994                 1.3597                 1.2370
 IR Inten    --     14.0581                 6.0066                 3.2353

                     31                     32                     33
                      A                      A                      A
 Frequencies --   1068.1788              1087.6876              1104.6097
 Red. masses --      1.8881                 2.1855                 1.7685
 Frc consts  --      1.2693                 1.5234                 1.2713
 IR Inten    --      7.5589                 1.3771                 0.3333

                     34                     35                     36
                      A                      A                      A
 Frequencies --   1119.9531              1186.5640              1197.9028
 Red. masses --      2.4741                 1.6306                 1.5866
 Frc consts  --      1.8284                 1.3526                 1.3414
 IR Inten    --      3.3193                17.7910                25.8345

                     37                     38                     39
                      A                      A                      A
 Frequencies --   1222.0020              1226.2799              1234.2705
 Red. masses --      1.4305                 1.7947                 1.4467
 Frc consts  --      1.2585                 1.5901                 1.2986
 IR Inten    --      6.5439                45.2313                 3.6607

                     40                     41                     42
                      A                      A                      A
 Frequencies --   1256.0805              1299.6945              1320.4767
 Red. masses --      1.2508                 1.5917                 1.3163
 Frc consts  --      1.1627                 1.5841                 1.3523
 IR Inten    --     10.8827                38.2676                 1.9872

                     43                     44                     45
                      A                      A                      A
 Frequencies --   1329.1655              1355.6088              1371.7644
 Red. masses --      1.7449                 1.4160                 1.6324
 Frc consts  --      1.8163                 1.5332                 1.8098
 IR Inten    --     55.2322                13.8129                13.8641

                     46                     47                     48
                      A                      A                      A
 Frequencies --   1391.8774              1411.2626              1412.3460
 Red. masses --      1.5118                 1.3065                 1.4143
 Frc consts  --      1.7257                 1.5331                 1.6622
 IR Inten    --     14.6741                27.1109                20.0948

                     49                     50                     51
                      A                      A                      A
 Frequencies --   1424.0869              1464.3380              1478.9716
 Red. masses --      1.5494                 2.0364                 1.0788
 Frc consts  --      1.8514                 2.5728                 1.3904
 IR Inten    --     46.9431                84.1482                 9.4151

                     52                     53                     54
                      A                      A                      A
 Frequencies --   1494.9726              1501.8558              1504.9575
 Red. masses --      1.0595                 1.0846                 1.0499
 Frc consts  --      1.3951                 1.4414                 1.4011
 IR Inten    --     17.1913                 3.9634                11.3069

                     55                     56                     57
                      A                      A                      A
 Frequencies --   1511.0704              1518.5964              1528.9571
 Red. masses --      1.0978                 1.1321                 1.1249
 Frc consts  --      1.4769                 1.5382                 1.5493
 IR Inten    --     10.5476                13.1600                 9.6141

                     58                     59                     60
                      A                      A                      A
 Frequencies --   1560.6868              1803.8061              1810.8610
 Red. masses --      1.1149                10.9205                 9.9683
 Frc consts  --      1.6000                20.9350                19.2593
 IR Inten    --      5.0870               309.9379               123.1240

                     61                     62                     63
                      A                      A                      A
 Frequencies --   2998.0273              3032.0862              3049.5666
 Red. masses --      1.0727                 1.0615                 1.0415
 Frc consts  --      5.6804                 5.7499                 5.7067
 IR Inten    --     76.2194                14.2884                 6.2360

                     64                     65                     66
                      A                      A                      A
 Frequencies --   3057.4668              3058.6351              3073.1927
 Red. masses --      1.0706                 1.0892                 1.0679
 Frc consts  --      5.8966                 6.0034                 5.9423
 IR Inten    --     14.1596                 4.4507                21.1763

                     67                     68                     69
                      A                      A                      A
 Frequencies --   3075.0528              3081.7885              3089.3836
 Red. masses --      1.0685                 1.0648                 1.0849
 Frc consts  --      5.9529                 5.9581                 6.1007
 IR Inten    --     13.9288                36.2521                41.6986

                     70                     71                     72
                      A                      A                      A
 Frequencies --   3107.4484              3119.1026              3126.1456
 Red. masses --      1.0984                 1.1031                 1.1012
 Frc consts  --      6.2491                 6.3232                 6.3405
 IR Inten    --     14.5985                10.4638                21.8438

                     73                     74                     75
                      A                      A                      A
 Frequencies --   3137.7441              3153.2406              3167.2654
 Red. masses --      1.0980                 1.1006                 1.1020
 Frc consts  --      6.3692                 6.4477                 6.5132
 IR Inten    --     20.7532                10.2367                10.4495

 - Thermochemistry -
 -------------------
 Temperature   298.150 Kelvin.  Pressure   1.00000 Atm.
 Atom     1 has atomic number  6 and mass  12.00000

 Molecular mass:   169.11028 amu.
 Principal axes and moments of inertia in atomic units:
                           1         2         3
     Eigenvalues --  1203.703753008.752883512.25678
           X            0.99970   0.01617  -0.01825
           Y           -0.01569   0.99954   0.02603
           Z            0.01866  -0.02574   0.99949
 This molecule is an asymmetric top.
 Rotational symmetry number  1.
 Warning -- assumption of classical behavior for rotation
           may cause significant error
 Rotational temperatures (Kelvin)      0.07196     0.02879     0.02466
 Rotational constants (GHZ):           1.49932     0.59983     0.51384
 Zero-point vibrational energy     617454.4 (Joules/Mol)
                                  147.57513 (Kcal/Mol)
 Warning -- explicit consideration of  17 degrees of freedom as
           vibrations may cause significant error
 Vibrational temperatures:     38.43    52.29    65.84   134.70   147.86
          (Kelvin)            206.17   229.25   266.67   327.28   386.34
                              467.02   556.69   627.62   681.51   705.19
                              815.57   856.36   911.86   975.04  1048.81
                             1095.33  1158.58  1250.57  1270.67  1316.36
                             1333.61  1354.03  1388.76  1440.40  1487.58
                             1536.87  1564.94  1589.29  1611.36  1707.20
                             1723.51  1758.19  1764.34  1775.84  1807.22
                             1869.97  1899.87  1912.37  1950.42  1973.66
                             2002.60  2030.49  2032.05  2048.94  2106.86
                             2127.91  2150.93  2160.84  2165.30  2174.09
                             2184.92  2199.83  2245.48  2595.27  2605.43
                             4313.49  4362.50  4387.65  4399.01  4400.69
                             4421.64  4424.32  4434.01  4444.93  4470.93
                             4487.69  4497.83  4514.51  4536.81  4556.99

 Zero-point correction=                           0.235176 (Hartree/Particle)
 Thermal correction to Energy=                    0.247956
 Thermal correction to Enthalpy=                  0.248900
 Thermal correction to Gibbs Free Energy=         0.194025
 Sum of electronic and zero-point Energies=           -557.023292
 Sum of electronic and thermal Energies=              -557.010512
 Sum of electronic and thermal Enthalpies=            -557.009568
 Sum of electronic and thermal Free Energies=         -557.064443

                     E (Thermal)             CV                S
                      KCal/Mol        Cal/Mol-Kelvin    Cal/Mol-Kelvin
 Total                  155.595             45.874            115.495
 Electronic               0.000              0.000              0.000
 Translational            0.889              2.981             41.284
 Rotational               0.889              2.981             30.920
 Vibrational            153.817             39.912             43.290
 Vibration     1          0.593              1.984              6.060
 Vibration     2          0.594              1.982              5.449
 Vibration     3          0.595              1.979              4.993
 Vibration     4          0.603              1.954              3.583
 Vibration     5          0.605              1.947              3.401
 Vibration     6          0.616              1.910              2.759
 Vibration     7          0.621              1.892              2.558
 Vibration     8          0.631              1.860              2.274
 Vibration     9          0.651              1.799              1.899
 Vibration    10          0.673              1.731              1.606
 Vibration    11          0.709              1.626              1.287
 Vibration    12          0.755              1.498              1.012
 Vibration    13          0.797              1.391              0.839
 Vibration    14          0.830              1.308              0.727
 Vibration    15          0.846              1.272              0.683
 Vibration    16          0.923              1.103              0.510
 Vibration    17          0.953              1.042              0.458

 Optimization completed.
    -- Stationary point found.
 Normal termination of Gaussian 16 at Wed Dec  9 18:21:04 2020.

 ----------------------------------------------------------------------
 # B3LYP/6-311++G(d,p) empiricaldispersion=gd3bj scf=xqc pop=npa geom=c
 heck
 ----------------------------------------------------------------------

 --------------------------------------
 CID_62018273_JID_2746_Energie_neutraal
 --------------------------------------
 Structure from the checkpoint file:  "JID_2746.chk"
 Charge =  0 Multiplicity = 1

 SCF Done:  E(RB3LYP) =  -557.420129528     A.U. after   13 cycles
 Normal termination of Gaussian 16 at Wed Dec  9 18:24:29 2020.

 ----------------------------------------------------------------------
 # B3LYP/6-311++G(d,p) empiricaldispersion=gd3bj scf=xqc pop=npa geom=c
 heck
 ----------------------------------------------------------------------

 ------------------------------------
 CID_62018273_JID_2746_Energie_kation
 ------------------------------------
 Structure from the checkpoint file:  "JID_2746.chk"
 Charge =  1 Multiplicity = 2

 SCF Done:  E(UB3LYP) =  -557.106206692     A.U. after   25 cycles
 Normal termination of Gaussian 16 at Wed Dec  9 18:31:13 2020.
 Gaussian 16:  ES64L-G16RevA.03 25-Dec-2016

 ----------------------------------------------------------------------
 # B3LYP/6-311++G(d,p) empiricaldispersion=gd3bj scf=xqc pop=npa geom=c
 heck
 ----------------------------------------------------------------------

 -----------------------------------
 CID_62018273_JID_2746_Energie_anion
 -----------------------------------
 Structure from the checkpoint file:  "JID_2746.chk"
 Charge = -1 Multiplicity = 2

                         Standard orientation:
 ---------------------------------------------------------------------
 Center     Atomic      Atomic             Coordinates (Angstroms)
 Number     Number       Type             X           Y           Z
 ---------------------------------------------------------------------
      1          6           0       -3.171882    1.325759    0.878812
      2          6           0       -2.520460    0.200053    0.094449
      3          8           0       -2.744076    0.041003   -1.092238
      4          6           0       -1.576108   -0.703826    0.873096
      5          6           0       -0.845029   -1.753442    0.036239
      6          6           0        0.086350   -1.171115   -1.038400
      7          7           0        1.007440   -0.164032   -0.531182
      8          6           0        0.826750    1.269190   -0.717599
      9          6           0        2.194840    1.850865   -0.304569
     10          6           0        2.744856    0.816720    0.689588
     11          6           0        2.061102   -0.489541    0.280239
     12          8           0        2.364799   -1.624463    0.619668
     13          1           0       -3.899272    1.844076    0.251304
     14          1           0       -2.407226    2.039068    1.212564
     15          1           0       -3.662759    0.941838    1.780944
     16          1           0       -0.858491   -0.070685    1.413536
     17          1           0       -2.167535   -1.191886    1.661724
     18          1           0       -0.248048   -2.379117    0.706284
     19          1           0       -1.574907   -2.400257   -0.463628
     20          1           0        0.681790   -1.984851   -1.465041
     21          1           0       -0.500795   -0.713980   -1.836216
     22          1           0        0.016184    1.658272   -0.081434
     23          1           0        0.561409    1.494327   -1.755926
     24          1           0        2.106908    2.858244    0.110560
     25          1           0        2.846067    1.905040   -1.183182
     26          1           0        2.455108    1.043939    1.723875
     27          1           0        3.831193    0.703893    0.672329
 ---------------------------------------------------------------------

 SCF Done:  E(UB3LYP) =  -557.411133277     A.U. after   33 cycles
 SCF Done:  E(UB3LYP) =  -557.411133277     a.u. after    1 cycles

 The electronic state is 2-A.
 Alpha  occ. eigenvalues --  -19.00777 -18.98338 -14.23577 -10.16181 -10.15486
 Alpha  occ. eigenvalues --  -10.10405 -10.10116 -10.07578 -10.07361 -10.07320
 Alpha  occ. eigenvalues --  -10.07072 -10.06389  -0.94101  -0.93379  -0.84439
 Alpha  occ. eigenvalues --   -0.71348  -0.67892  -0.64031  -0.61260  -0.59375
 Alpha  occ. eigenvalues --   -0.52171  -0.50774  -0.43727  -0.41228  -0.40794
 Alpha  occ. eigenvalues --   -0.38919  -0.37407  -0.36898  -0.35007  -0.33568
 Alpha  occ. eigenvalues --   -0.32864  -0.31885  -0.31424  -0.29799  -0.29362
 Alpha  occ. eigenvalues --   -0.28707  -0.28300  -0.26543  -0.25683  -0.25472
 Alpha  occ. eigenvalues --   -0.24877  -0.24158  -0.23040  -0.15235  -0.14955
 Alpha  occ. eigenvalues --   -0.13949   0.04461
 Alpha virt. eigenvalues --    0.06747   0.07474   0.08309   0.08614   0.09407
 Alpha virt. eigenvalues --    0.09986   0.10313   0.11071   0.11655   0.11837
 Alpha virt. eigenvalues --    0.12367   0.12860   0.13269   0.13822   0.14895

  Beta  occ. eigenvalues --  -19.00717 -18.98336 -14.23575 -10.16180 -10.15424
  Beta  occ. eigenvalues --  -10.10376 -10.10112 -10.07555 -10.07337 -10.07284
  Beta  occ. eigenvalues --  -10.07069 -10.06338  -0.93983  -0.93373  -0.84428
  Beta  occ. eigenvalues --   -0.71318  -0.67824  -0.63942  -0.61205  -0.59318
  Beta  occ. eigenvalues --   -0.52124  -0.50690  -0.43647  -0.41128  -0.40742
  Beta  occ. eigenvalues --   -0.38866  -0.37344  -0.36821  -0.34940  -0.33499
  Beta  occ. eigenvalues --   -0.32776  -0.31835  -0.31378  -0.29760  -0.29322
  Beta  occ. eigenvalues --   -0.28663  -0.28250  -0.26468  -0.25636  -0.25415
  Beta  occ. eigenvalues --   -0.24730  -0.24075  -0.23007  -0.15217  -0.14902
  Beta  occ. eigenvalues --   -0.13933
  Beta virt. eigenvalues --    0.07022   0.07366   0.08389   0.08653   0.09067
  Beta virt. eigenvalues --    0.10154   0.10242   0.10669   0.11410   0.11747
  Beta virt. eigenvalues --    0.12119   0.13051   0.13202   0.13540   0.14158

 Mulliken charges and spin densities:
               1          2
     1  C    1.564853  -2.147247
     2  C   -1.274322   1.422177
     3  O   -0.232897  -0.001681
     4  C    0.798267  -0.968907
     5  C   -0.441266   0.093729
     6  C   -0.423310   0.173372
     7  N    0.045167   0.114876
     8  C   -0.533821   0.255814
     9  C    0.933352  -1.266056
    10  C    0.084396  -0.460150
    11  C    0.145937  -0.125955
    12  O   -0.399882   0.021013
    13  H   -0.056103   0.209876
    14  H   -1.072535   1.256540
    15  H   -0.338356   0.484473
    16  H   -0.058436   0.292879
    17  H   -0.043049   0.230146
    18  H    0.211292  -0.016827
    19  H    0.071291   0.069346
    20  H    0.115276   0.066042
    21  H    0.140357   0.058418
    22  H    1.245274  -1.087370
    23  H   -0.400169   0.560238
    24  H   -0.833436   1.025724
    25  H   -0.091876   0.239801
    26  H   -0.130667   0.300759
    27  H   -0.025336   0.198967
 Sum of Mulliken charges =  -1.00000   1.00000

 Dipole moment (field-independent basis, Debye):
    X=              0.2982    Y=             -5.4579    Z=             -2.8672  Tot=              6.1723
 Quadrupole moment (field-independent basis, Debye-Ang):
   XX=           -127.8042   YY=           -121.9874   ZZ=           -107.9802
   XY=              6.6451   XZ=             -0.3227   YZ=             -5.7867

 Summary of Natural Population Analysis:

                                       Natural Population
                Natural  -----------------------------------------------
    Atom  No    Charge         Core      Valence    Rydberg      Total
 -----------------------------------------------------------------------
      C    1   -0.33540      0.99962     2.32982    0.00596     3.33540
      C    2    0.30175      0.99968     1.67753    0.02104     2.69825
      O    3   -0.29146      0.99987     3.28479    0.00679     4.29146
      C    4   -0.24399      0.99958     2.23588    0.00854     3.24399
      C    5   -0.19588      0.99962     2.18814    0.00812     3.19588
      C    6   -0.08573      0.99961     2.07581    0.01031     3.08573
      N    7   -0.25832      0.99963     2.74780    0.01089     3.75832
      C    8   -0.07468      0.99962     2.06503    0.01003     3.07468
      C    9   -0.19271      0.99964     2.18473    0.00833     3.19271
      C   10   -0.22993      0.99961     2.22184    0.00849     3.22993
      C   11    0.34799      0.99964     1.62819    0.02419     2.65201
      O   12   -0.33099      0.99987     3.32563    0.00549     4.33099
      H   13    0.10765      0.00000     0.39135    0.00100     0.39235
      H   14    0.12038      0.00000     0.37368    0.00593     0.37962
      H   15    0.10715      0.00000     0.39161    0.00123     0.39285
      H   16    0.11519      0.00000     0.38269    0.00213     0.38481
      H   17    0.11116      0.00000     0.38792    0.00092     0.38884
      H   18    0.10686      0.00000     0.39197    0.00117     0.39314
      H   19    0.10006      0.00000     0.39895    0.00099     0.39994
      H   20    0.10106      0.00000     0.39794    0.00101     0.39894
      H   21    0.10697      0.00000     0.39169    0.00134     0.39303
      H   22    0.09291      0.00000     0.40413    0.00296     0.40709
      H   23    0.09633      0.00000     0.40227    0.00141     0.40367
      H   24    0.10814      0.00000     0.38868    0.00318     0.39186
      H   25    0.09627      0.00000     0.40229    0.00144     0.40373
      H   26    0.11186      0.00000     0.38666    0.00148     0.38814
      H   27    0.10739      0.00000     0.39160    0.00101     0.39261
 =======================================================================
   * Total *   -0.00000     11.99601    33.84862    0.15538    46.00000

 Normal termination of Gaussian 16 at Wed Dec  9 18:39:39 2020.
