 Gaussian 16, Revision A.03,

 -----------------------------------------------------------
 # opt freq B3LYP/6-31G(d) empiricaldispersion=gd3bj scf=xqc
 -----------------------------------------------------------

 -------------------------------
 CID_113816930_JID_9913_neutraal
 -------------------------------
 Symbolic Z-matrix:
 Charge =  0 Multiplicity = 1

 SCF Done:  E(RB3LYP) =  -848.685333974     A.U. after   15 cycles
 SCF Done:  E(RB3LYP) =  -848.690436002     A.U. after   13 cycles
 SCF Done:  E(RB3LYP) =  -848.690340217     A.U. after   13 cycles
 SCF Done:  E(RB3LYP) =  -848.690702517     A.U. after   12 cycles
 SCF Done:  E(RB3LYP) =  -848.691456163     A.U. after   12 cycles
 SCF Done:  E(RB3LYP) =  -848.691652614     A.U. after   12 cycles
 SCF Done:  E(RB3LYP) =  -848.691759387     A.U. after   11 cycles
 SCF Done:  E(RB3LYP) =  -848.691789504     A.U. after   11 cycles
 SCF Done:  E(RB3LYP) =  -848.691800367     A.U. after   10 cycles
 SCF Done:  E(RB3LYP) =  -848.691805131     A.U. after    8 cycles
 SCF Done:  E(RB3LYP) =  -848.693075622     A.U. after   11 cycles
 SCF Done:  E(RB3LYP) =  -848.693092264     A.U. after   10 cycles
 SCF Done:  E(RB3LYP) =  -848.693095616     A.U. after    9 cycles
 SCF Done:  E(RB3LYP) =  -848.693095821     A.U. after    8 cycles
 SCF Done:  E(RB3LYP) =  -848.693096336     A.U. after    8 cycles
 SCF Done:  E(RB3LYP) =  -848.693096432     A.U. after    8 cycles
 Optimization completed.
    -- Stationary point found.
 Normal termination of Gaussian 16 at Sat Dec 12 10:49:34 2020.

 --------------------------------------------------------------------
 #N Geom=AllCheck Guess=TCheck SCRF=Check GenChk RB3LYP/6-31G(d) Freq
 --------------------------------------------------------------------

 Structure from the checkpoint file:  "JID_9913.chk"
 -------------------------------
 CID_113816930_JID_9913_neutraal
 -------------------------------
 Charge =  0 Multiplicity = 1

 SCF Done:  E(RB3LYP) =  -848.693096432     A.U. after    1 cycles

  Exact polarizability: 210.328  13.053 184.988  15.259  -1.148 127.069
 Approx polarizability: 277.852  14.814 300.093  33.611   2.629 197.834

                      1                      2                      3
                      A                      A                      A
 Frequencies --     32.7972                38.9215                54.9197
 Red. masses --      4.1484                 3.7578                 1.0625
 Frc consts  --      0.0026                 0.0034                 0.0019
 IR Inten    --      0.6310                 0.3863                 0.1675

                      4                      5                      6
                      A                      A                      A
 Frequencies --     78.0263                80.3718                99.7319
 Red. masses --      3.2110                 3.9806                 3.4767
 Frc consts  --      0.0115                 0.0151                 0.0204
 IR Inten    --      1.4676                 1.5833                 2.3742

                      7                      8                      9
                      A                      A                      A
 Frequencies --    125.0362               169.4860               188.3699
 Red. masses --      4.0132                 3.3998                 1.9388
 Frc consts  --      0.0370                 0.0575                 0.0405
 IR Inten    --      1.2024                 1.9821                 1.4026

                     10                     11                     12
                      A                      A                      A
 Frequencies --    197.4381               206.4062               226.5808
 Red. masses --      3.7978                 3.1736                 1.4507
 Frc consts  --      0.0872                 0.0797                 0.0439
 IR Inten    --      0.0896                 0.3638                 1.4468

                     13                     14                     15
                      A                      A                      A
 Frequencies --    229.8841               237.9311               254.1151
 Red. masses --      2.9910                 2.0482                 2.3515
 Frc consts  --      0.0931                 0.0683                 0.0895
 IR Inten    --      0.4061                 2.5481                 1.8199

                     16                     17                     18
                      A                      A                      A
 Frequencies --    292.1338               312.3909               358.9759
 Red. masses --      2.3625                 4.1348                 2.8824
 Frc consts  --      0.1188                 0.2377                 0.2188
 IR Inten    --      3.0122                 4.0348                35.3320

                     19                     20                     21
                      A                      A                      A
 Frequencies --    370.4830               372.6333               378.4096
 Red. masses --      2.2227                 2.2973                 1.5934
 Frc consts  --      0.1797                 0.1879                 0.1344
 IR Inten    --     29.6974                 4.0597                74.0785

                     22                     23                     24
                      A                      A                      A
 Frequencies --    397.8101               408.2359               415.0964
 Red. masses --      2.0028                 2.4861                 2.2331
 Frc consts  --      0.1867                 0.2441                 0.2267
 IR Inten    --      0.8336                 2.4421                 5.8658

                     25                     26                     27
                      A                      A                      A
 Frequencies --    445.3399               455.8591               499.6972
 Red. masses --      4.7316                 3.6199                 4.0812
 Frc consts  --      0.5529                 0.4432                 0.6004
 IR Inten    --      4.9449                 1.6793                 2.8593

                     28                     29                     30
                      A                      A                      A
 Frequencies --    510.4333               570.2556               579.7466
 Red. masses --      3.8007                 3.4258                 4.6490
 Frc consts  --      0.5834                 0.6564                 0.9206
 IR Inten    --     17.7411                 5.3895                 5.6744

                     31                     32                     33
                      A                      A                      A
 Frequencies --    613.8856               679.6840               703.6761
 Red. masses --      2.7324                 4.8905                 3.3999
 Frc consts  --      0.6067                 1.3311                 0.9919
 IR Inten    --     16.7512                10.3268                 1.4245

                     34                     35                     36
                      A                      A                      A
 Frequencies --    723.0960               766.7205               770.9488
 Red. masses --      4.0075                 4.7361                 3.6377
 Frc consts  --      1.2346                 1.6404                 1.2739
 IR Inten    --      5.6036                 4.7745                 8.9877

                     37                     38                     39
                      A                      A                      A
 Frequencies --    791.5635               799.5309               837.4878
 Red. masses --      1.5706                 4.3425                 5.4800
 Frc consts  --      0.5798                 1.6355                 2.2646
 IR Inten    --      0.4713                 5.8501                40.3719

                     40                     41                     42
                      A                      A                      A
 Frequencies --    846.3136               905.2948               929.7500
 Red. masses --      1.4771                 2.1713                 2.4247
 Frc consts  --      0.6233                 1.0485                 1.2349
 IR Inten    --     27.0258                 2.1157                15.6490

                     43                     44                     45
                      A                      A                      A
 Frequencies --    931.5302               951.3191               971.8892
 Red. masses --      3.0763                 1.2998                 1.6215
 Frc consts  --      1.5728                 0.6931                 0.9024
 IR Inten    --      2.7353                 4.3448                 8.6849

                     46                     47                     48
                      A                      A                      A
 Frequencies --    978.4860               979.4824              1010.2165
 Red. masses --      1.4253                 1.5898                 2.2315
 Frc consts  --      0.8040                 0.8986                 1.3418
 IR Inten    --      1.1279                 1.0533                27.4936

                     49                     50                     51
                      A                      A                      A
 Frequencies --   1019.6699              1025.3966              1036.9665
 Red. masses --      1.9030                 1.8784                 1.6461
 Frc consts  --      1.1658                 1.1637                 1.0429
 IR Inten    --     21.3835                 6.0672                 6.3465

                     52                     53                     54
                      A                      A                      A
 Frequencies --   1064.1607              1072.6446              1080.8876
 Red. masses --      6.8111                 1.7443                 1.4960
 Frc consts  --      4.5445                 1.1824                 1.0298
 IR Inten    --     28.8683                12.1228                 5.1889

                     55                     56                     57
                      A                      A                      A
 Frequencies --   1091.9652              1115.0189              1150.8702
 Red. masses --      1.7627                 2.1908                 1.5597
 Frc consts  --      1.2383                 1.6048                 1.2171
 IR Inten    --      8.7835                27.6853                23.1803

                     58                     59                     60
                      A                      A                      A
 Frequencies --   1169.4065              1181.2436              1187.1803
 Red. masses --      1.3877                 1.2474                 2.4254
 Frc consts  --      1.1181                 1.0255                 2.0140
 IR Inten    --     12.5719                 1.6067                14.8721

                     61                     62                     63
                      A                      A                      A
 Frequencies --   1200.3524              1209.5089              1214.5570
 Red. masses --      1.2832                 1.3899                 1.3929
 Frc consts  --      1.0894                 1.1980                 1.2106
 IR Inten    --     16.8651                 7.7944                 6.5167

                     64                     65                     66
                      A                      A                      A
 Frequencies --   1237.7612              1274.0011              1281.9296
 Red. masses --      2.0566                 5.4648                 1.3824
 Frc consts  --      1.8564                 5.2259                 1.3385
 IR Inten    --     29.8923                63.5180                 1.4610

                     67                     68                     69
                      A                      A                      A
 Frequencies --   1305.4214              1315.6757              1329.2220
 Red. masses --      2.5393                 1.4600                 1.5625
 Frc consts  --      2.5495                 1.4890                 1.6266
 IR Inten    --    111.7332                86.7052                43.8097

                     70                     71                     72
                      A                      A                      A
 Frequencies --   1348.8657              1369.7657              1372.6291
 Red. masses --      1.3366                 1.6077                 6.2559
 Frc consts  --      1.4328                 1.7773                 6.9446
 IR Inten    --     17.0363                 0.8627                18.3583

                     73                     74                     75
                      A                      A                      A
 Frequencies --   1380.2832              1396.4953              1400.1946
 Red. masses --      1.6906                 1.3878                 1.6645
 Frc consts  --      1.8977                 1.5946                 1.9227
 IR Inten    --      2.0919                 0.6269                21.6279

                     76                     77                     78
                      A                      A                      A
 Frequencies --   1409.4855              1424.9543              1439.1258
 Red. masses --      1.3858                 1.5440                 2.3996
 Frc consts  --      1.6221                 1.8471                 2.9281
 IR Inten    --      3.4806                 6.1687                35.9793

                     79                     80                     81
                      A                      A                      A
 Frequencies --   1443.5013              1445.7664              1492.5213
 Red. masses --      1.2760                 1.3596                 1.3549
 Frc consts  --      1.5665                 1.6744                 1.7783
 IR Inten    --      9.4110                 4.5401                14.9360

                     82                     83                     84
                      A                      A                      A
 Frequencies --   1504.1735              1512.5998              1512.8646
 Red. masses --      1.0810                 1.0839                 1.0712
 Frc consts  --      1.4410                 1.4611                 1.4445
 IR Inten    --      1.2647                 3.3940                 7.4171

                     85                     86                     87
                      A                      A                      A
 Frequencies --   1513.8238              1516.1182              1527.2749
 Red. masses --      1.0652                 1.0445                 1.1123
 Frc consts  --      1.4383                 1.4146                 1.5287
 IR Inten    --      3.0845                 4.4803                 8.6304

                     88                     89                     90
                      A                      A                      A
 Frequencies --   1529.4673              1535.1995              1536.6150
 Red. masses --      1.1019                 1.0624                 1.0637
 Frc consts  --      1.5187                 1.4753                 1.4798
 IR Inten    --      0.4672                 5.8698                16.8698

                     91                     92                     93
                      A                      A                      A
 Frequencies --   1537.9379              1549.3046              1616.4336
 Red. masses --      1.0563                 2.2128                 5.7612
 Frc consts  --      1.4720                 3.1295                 8.8691
 IR Inten    --      1.0088                87.0449                42.0983

                     94                     95                     96
                      A                      A                      A
 Frequencies --   1674.2782              1753.0866              3026.0236
 Red. masses --      5.7054                12.4060                 1.0813
 Frc consts  --      9.4231                22.4642                 5.8337
 IR Inten    --     15.1493               167.4491                18.8562

                     97                     98                     99
                      A                      A                      A
 Frequencies --   3038.9066              3041.8414              3045.0132
 Red. masses --      1.0390                 1.0378                 1.0417
 Frc consts  --      5.6534                 5.6579                 5.6910
 IR Inten    --     50.7177                34.0722                20.0395

                    100                    101                    102
                      A                      A                      A
 Frequencies --   3046.6797              3051.4238              3055.3471
 Red. masses --      1.0586                 1.0678                 1.0635
 Frc consts  --      5.7894                 5.8581                 5.8494
 IR Inten    --     39.4775                50.7924                32.0654

                    103                    104                    105
                      A                      A                      A
 Frequencies --   3066.1321              3082.7216              3091.9462
 Red. masses --      1.0637                 1.1018                 1.1010
 Frc consts  --      5.8919                 6.1688                 6.2017
 IR Inten    --      7.5013                23.5636                21.3075

                    106                    107                    108
                      A                      A                      A
 Frequencies --   3093.6910              3100.9888              3109.7287
 Red. masses --      1.0999                 1.1021                 1.1024
 Frc consts  --      6.2024                 6.2440                 6.2813
 IR Inten    --     18.1796                53.4032                34.3456

                    109                    110                    111
                      A                      A                      A
 Frequencies --   3115.3335              3122.3760              3125.1107
 Red. masses --      1.0990                 1.0953                 1.0952
 Frc consts  --      6.2845                 6.2915                 6.3021
 IR Inten    --     57.6300                25.5559                37.9785

                    112                    113                    114
                      A                      A                      A
 Frequencies --   3127.4631              3155.6944              3180.2725
 Red. masses --      1.1004                 1.1068                 1.0890
 Frc consts  --      6.3412                 6.4938                 6.4896
 IR Inten    --     15.6323                15.7202                17.8423

                    115                    116                    117
                      A                      A                      A
 Frequencies --   3216.7398              3223.9859              3723.6058
 Red. masses --      1.0929                 1.0904                 1.0662
 Frc consts  --      6.6629                 6.6778                 8.7098
 IR Inten    --      9.3264                 5.6065                19.0243

 - Thermochemistry -
 -------------------
 Temperature   298.150 Kelvin.  Pressure   1.00000 Atm.
 Atom     1 has atomic number  6 and mass  12.00000

 Molecular mass:   262.15689 amu.
 Principal axes and moments of inertia in atomic units:
                           1         2         3
     Eigenvalues --  2978.908307208.400018603.30363
           X            0.99980   0.01946  -0.00402
           Y           -0.01951   0.99973  -0.01270
           Z            0.00377   0.01278   0.99991
 This molecule is an asymmetric top.
 Rotational symmetry number  1.
 Warning -- assumption of classical behavior for rotation
           may cause significant error
 Rotational temperatures (Kelvin)      0.02908     0.01202     0.01007
 Rotational constants (GHZ):           0.60584     0.25037     0.20977
 Zero-point vibrational energy     932644.7 (Joules/Mol)
                                  222.90744 (Kcal/Mol)
 Warning -- explicit consideration of  31 degrees of freedom as
           vibrations may cause significant error
 Vibrational temperatures:     47.19    56.00    79.02   112.26   115.64
          (Kelvin)            143.49   179.90   243.85   271.02   284.07
                              296.97   326.00   330.75   342.33   365.61
                              420.32   449.46   516.49   533.04   536.14
                              544.45   572.36   587.36   597.23   640.74
                              655.88   718.95   734.40   820.47   834.13
                              883.24   977.91  1012.43  1040.37  1103.14
                             1109.22  1138.88  1150.35  1204.96  1217.66
                             1302.52  1337.70  1340.26  1368.74  1398.33
                             1407.82  1409.26  1453.48  1467.08  1475.32
                             1491.96  1531.09  1543.30  1555.16  1571.09
                             1604.26  1655.85  1682.52  1699.55  1708.09
                             1727.04  1740.21  1747.48  1780.86  1833.00
                             1844.41  1878.21  1892.96  1912.45  1940.72
                             1970.79  1974.91  1985.92  2009.25  2014.57
                             2027.94  2050.19  2070.58  2076.88  2080.14
                             2147.41  2164.17  2176.29  2176.67  2178.05
                             2181.36  2197.41  2200.56  2208.81  2210.85
                             2212.75  2229.10  2325.69  2408.91  2522.30
                             4353.77  4372.31  4376.53  4381.09  4383.49
                             4390.32  4395.96  4411.48  4435.35  4448.62
                             4451.13  4461.63  4474.21  4482.27  4492.40
                             4496.34  4499.72  4540.34  4575.70  4628.17
                             4638.60  5357.44

 Zero-point correction=                           0.355226 (Hartree/Particle)
 Thermal correction to Energy=                    0.374204
 Thermal correction to Enthalpy=                  0.375149
 Thermal correction to Gibbs Free Energy=         0.308162
 Sum of electronic and zero-point Energies=           -848.337871
 Sum of electronic and thermal Energies=              -848.318892
 Sum of electronic and thermal Enthalpies=            -848.317948
 Sum of electronic and thermal Free Energies=         -848.384934

                     E (Thermal)             CV                S
                      KCal/Mol        Cal/Mol-Kelvin    Cal/Mol-Kelvin
 Total                  234.817             73.288            140.985
 Electronic               0.000              0.000              0.000
 Translational            0.889              2.981             42.591
 Rotational               0.889              2.981             33.579
 Vibrational            233.039             67.327             64.815
 Vibration     1          0.594              1.983              5.653
 Vibration     2          0.594              1.981              5.313
 Vibration     3          0.596              1.976              4.632
 Vibration     4          0.599              1.964              3.940
 Vibration     5          0.600              1.962              3.882
 Vibration     6          0.604              1.949              3.460
 Vibration     7          0.610              1.928              3.021
 Vibration     8          0.625              1.880              2.441
 Vibration     9          0.633              1.856              2.244
 Vibration    10          0.637              1.843              2.157
 Vibration    11          0.641              1.831              2.075
 Vibration    12          0.650              1.801              1.906
 Vibration    13          0.652              1.795              1.880
 Vibration    14          0.656              1.783              1.818
 Vibration    15          0.665              1.756              1.702
 Vibration    16          0.688              1.688              1.462
 Vibration    17          0.701              1.650              1.350
 Vibration    18          0.734              1.557              1.127
 Vibration    19          0.742              1.533              1.078
 Vibration    20          0.744              1.528              1.069
 Vibration    21          0.749              1.516              1.046
 Vibration    22          0.764              1.475              0.971
 Vibration    23          0.773              1.452              0.933
 Vibration    24          0.778              1.437              0.909
 Vibration    25          0.805              1.371              0.810
 Vibration    26          0.814              1.348              0.778
 Vibration    27          0.855              1.251              0.659
 Vibration    28          0.866              1.227              0.633
 Vibration    29          0.926              1.096              0.504
 Vibration    30          0.936              1.075              0.486
 Vibration    31          0.973              1.002              0.426

 Optimization completed.
    -- Stationary point found.
 Normal termination of Gaussian 16 at Sat Dec 12 11:11:25 2020.

 ----------------------------------------------------------------------
 # B3LYP/6-311++G(d,p) empiricaldispersion=gd3bj scf=xqc pop=npa geom=c
 heck
 ----------------------------------------------------------------------

 ---------------------------------------
 CID_113816930_JID_9913_Energie_neutraal
 ---------------------------------------
 Structure from the checkpoint file:  "JID_9913.chk"
 Charge =  0 Multiplicity = 1

 SCF Done:  E(RB3LYP) =  -848.931193451     A.U. after   15 cycles
 Normal termination of Gaussian 16 at Sat Dec 12 11:21:24 2020.

 ----------------------------------------------------------------------
 # B3LYP/6-311++G(d,p) empiricaldispersion=gd3bj scf=xqc pop=npa geom=c
 heck
 ----------------------------------------------------------------------

 -------------------------------------
 CID_113816930_JID_9913_Energie_kation
 -------------------------------------
 Structure from the checkpoint file:  "JID_9913.chk"
 Charge =  1 Multiplicity = 2

 SCF Done:  E(UB3LYP) =  -848.638792033     A.U. after   25 cycles
 Normal termination of Gaussian 16 at Sat Dec 12 11:45:00 2020.
 Gaussian 16:  ES64L-G16RevA.03 25-Dec-2016

 ----------------------------------------------------------------------
 # B3LYP/6-311++G(d,p) empiricaldispersion=gd3bj scf=xqc pop=npa geom=c
 heck
 ----------------------------------------------------------------------

 ------------------------------------
 CID_113816930_JID_9913_Energie_anion
 ------------------------------------
 Structure from the checkpoint file:  "JID_9913.chk"
 Charge = -1 Multiplicity = 2

                         Standard orientation:
 ---------------------------------------------------------------------
 Center     Atomic      Atomic             Coordinates (Angstroms)
 Number     Number       Type             X           Y           Z
 ---------------------------------------------------------------------
      1          6           0        4.206473    0.565877   -1.511203
      2          6           0        3.866283   -0.671995   -0.669073
      3          6           0        3.704789   -0.336112    0.825577
      4          6           0        2.429121    0.464805    1.113935
      5          6           0        1.174893   -0.268057    0.614649
      6          6           0        1.312932   -0.605770   -0.875754
      7          6           0        2.599627   -1.390250   -1.169651
      8          6           0       -0.089267    0.587947    0.903234
      9          8           0       -0.005995    1.534525    1.675039
     10          6           0       -1.395070    0.232137    0.273604
     11          6           0       -2.328598    1.207398   -0.142012
     12          6           0       -3.612850    0.800899   -0.535566
     13          6           0       -3.970942   -0.537037   -0.537210
     14          6           0       -3.052223   -1.531884   -0.166035
     15          6           0       -1.781875   -1.125204    0.224775
     16          6           0       -3.440035   -2.990344   -0.177429
     17          8           0       -2.119686    2.548540   -0.237357
     18          6           0       -0.841827    3.078341   -0.569870
     19          8           0        1.030167   -1.527614    1.307692
     20          1           0        5.129110    1.038728   -1.155083
     21          1           0        3.416500    1.324111   -1.475652
     22          1           0        4.352282    0.293796   -2.563092
     23          1           0        4.707704   -1.371704   -0.766231
     24          1           0        3.669504   -1.271917    1.396148
     25          1           0        4.577399    0.223936    1.184331
     26          1           0        2.472121    1.449763    0.635819
     27          1           0        2.326285    0.665957    2.186193
     28          1           0        1.300953    0.337022   -1.437769
     29          1           0        0.440647   -1.175045   -1.206702
     30          1           0        2.671496   -1.576705   -2.248636
     31          1           0        2.525192   -2.367686   -0.679999
     32          1           0       -4.306918    1.571311   -0.855176
     33          1           0       -4.973732   -0.819570   -0.849616
     34          1           0       -1.061849   -1.866236    0.552633
     35          1           0       -4.257871   -3.194289    0.525019
     36          1           0       -3.783350   -3.305975   -1.170428
     37          1           0       -2.594891   -3.626746    0.101656
     38          1           0       -0.262162    3.305224    0.327019
     39          1           0       -0.276818    2.376203   -1.196661
     40          1           0       -1.034602    3.992325   -1.137527
     41          1           0        1.038524   -1.330606    2.258923
 ---------------------------------------------------------------------

 SCF Done:  E(UB3LYP) =  -848.937348998     A.U. after   28 cycles

 The electronic state is 2-A.
 Alpha  occ. eigenvalues --  -19.01725 -19.00357 -18.93669 -10.09997 -10.09562
 Alpha  occ. eigenvalues --  -10.09403 -10.07699 -10.06875 -10.06026 -10.05766
 Alpha  occ. eigenvalues --  -10.05591 -10.05322 -10.04792 -10.04693 -10.04648
 Alpha  occ. eigenvalues --  -10.03694 -10.03585 -10.03505 -10.03114  -0.93385
 Alpha  occ. eigenvalues --   -0.90842  -0.87540  -0.72457  -0.72303  -0.65180
 Alpha  occ. eigenvalues --   -0.64811  -0.63390  -0.62137  -0.59414  -0.57788
 Alpha  occ. eigenvalues --   -0.54161  -0.51175  -0.50047  -0.48431  -0.45992
 Alpha  occ. eigenvalues --   -0.43076  -0.42081  -0.39565  -0.37743  -0.36290
 Alpha  occ. eigenvalues --   -0.36103  -0.34839  -0.34165  -0.33868  -0.32257
 Alpha  occ. eigenvalues --   -0.31832  -0.31428  -0.30842  -0.30547  -0.29316
 Alpha  occ. eigenvalues --   -0.28412  -0.28153  -0.27019  -0.26880  -0.26487
 Alpha  occ. eigenvalues --   -0.26119  -0.25105  -0.24598  -0.23677  -0.23253
 Alpha  occ. eigenvalues --   -0.22474  -0.21982  -0.20869  -0.20217  -0.20004
 Alpha  occ. eigenvalues --   -0.18871  -0.17771  -0.16550  -0.12315  -0.09340
 Alpha  occ. eigenvalues --   -0.09156   0.04259
 Alpha virt. eigenvalues --    0.06514   0.07919   0.08160   0.08530   0.09116
 Alpha virt. eigenvalues --    0.09431   0.10067   0.10467   0.11043   0.11449
 Alpha virt. eigenvalues --    0.11636   0.12080   0.12253   0.12652   0.12915

  Beta  occ. eigenvalues --  -19.01683 -19.00279 -18.93126 -10.10016 -10.09438
  Beta  occ. eigenvalues --  -10.09383 -10.07321 -10.06870 -10.06011 -10.05761
  Beta  occ. eigenvalues --  -10.05585 -10.05305 -10.04786 -10.04706 -10.04691
  Beta  occ. eigenvalues --  -10.03722 -10.03557 -10.03284 -10.02983  -0.93273
  Beta  occ. eigenvalues --   -0.90609  -0.86605  -0.72344  -0.72187  -0.65036
  Beta  occ. eigenvalues --   -0.64723  -0.63354  -0.61837  -0.59311  -0.57707
  Beta  occ. eigenvalues --   -0.54004  -0.50905  -0.49834  -0.48202  -0.45827
  Beta  occ. eigenvalues --   -0.43012  -0.41800  -0.39392  -0.37669  -0.36177
  Beta  occ. eigenvalues --   -0.35949  -0.34743  -0.34110  -0.33711  -0.32148
  Beta  occ. eigenvalues --   -0.31608  -0.31357  -0.30812  -0.30480  -0.29223
  Beta  occ. eigenvalues --   -0.28146  -0.27968  -0.26950  -0.26747  -0.26126
  Beta  occ. eigenvalues --   -0.26022  -0.24999  -0.24276  -0.23467  -0.22861
  Beta  occ. eigenvalues --   -0.22340  -0.21334  -0.20797  -0.20124  -0.18931
  Beta  occ. eigenvalues --   -0.18630  -0.17521  -0.16205  -0.11360  -0.08936
  Beta  occ. eigenvalues --   -0.08576
  Beta virt. eigenvalues --    0.06463   0.07787   0.08155   0.08579   0.09006
  Beta virt. eigenvalues --    0.09367   0.10029   0.10055   0.10442   0.11042
  Beta virt. eigenvalues --    0.11407   0.11615   0.12089   0.12469   0.12847

 Mulliken charges and spin densities:
               1          2
     1  C   -0.100830  -0.623213
     2  C   -0.147501   0.556984
     3  C   -0.169147  -0.380538
     4  C   -0.072630   0.098378
     5  C   -0.432367   0.044093
     6  C   -0.274360   0.145595
     7  C   -0.167536  -0.557708
     8  C   -0.233891   0.161640
     9  O   -0.297580   0.188042
    10  C    1.327366  -0.060565
    11  C   -0.454532   0.083046
    12  C   -0.230127  -0.044822
    13  C   -0.188920   0.231567
    14  C   -0.152198   0.066758
    15  C   -0.798300   0.074178
    16  C   -0.365921  -0.105592
    17  O   -0.128452   0.012999
    18  C   -0.247774  -0.079068
    19  O   -0.148820   0.017776
    20  H    0.003343   0.124004
    21  H    0.103958   0.033312
    22  H    0.001806   0.124550
    23  H   -0.012468   0.196720
    24  H    0.038855   0.082189
    25  H    0.057097   0.107144
    26  H    0.131346   0.049620
    27  H    0.218473  -0.015633
    28  H    0.124994   0.009281
    29  H    0.248514  -0.042076
    30  H   -0.013787   0.169857
    31  H    0.103133   0.063258
    32  H    0.120013   0.014088
    33  H    0.099234   0.000815
    34  H    0.202841  -0.010614
    35  H    0.102610   0.030185
    36  H    0.133663  -0.005752
    37  H    0.100502   0.036146
    38  H    0.160704   0.021967
    39  H    0.095737   0.060454
    40  H    0.090115   0.036402
    41  H    0.172841   0.084531
 Sum of Mulliken charges =  -1.00000   1.00000

 Dipole moment (field-independent basis, Debye):
    X=              1.4768    Y=             -1.2245    Z=             -1.3432  Tot=              2.3419
 Quadrupole moment (field-independent basis, Debye-Ang):
   XX=           -167.3997   YY=           -142.5551   ZZ=           -135.4959
   XY=              5.3263   XZ=              4.9192   YZ=             -5.7553

 Summary of Natural Population Analysis:

                                       Natural Population
                Natural  -----------------------------------------------
    Atom  No    Charge         Core      Valence    Rydberg      Total
 -----------------------------------------------------------------------
      C    1   -0.28638      0.99965     2.28156    0.00517     3.28638
      C    2   -0.11274      0.99960     2.10167    0.01146     3.11274
      C    3   -0.18873      0.99961     2.18083    0.00829     3.18873
      C    4   -0.20436      0.99959     2.19420    0.01057     3.20436
      C    5    0.10155      0.99947     1.88332    0.01566     2.89845
      C    6   -0.19847      0.99958     2.19023    0.00866     3.19847
      C    7   -0.18763      0.99961     2.17981    0.00821     3.18763
      C    8    0.31327      0.99957     1.66413    0.02303     2.68673
      O    9   -0.25153      0.99988     3.24548    0.00617     4.25153
      C   10   -0.08789      0.99944     2.07772    0.01073     3.08789
      C   11    0.19533      0.99934     1.79242    0.01291     2.80467
      C   12   -0.13093      0.99953     2.12213    0.00927     3.13093
      C   13   -0.05792      0.99952     2.04974    0.00865     3.05792
      C   14   -0.05294      0.99951     2.04527    0.00815     3.05294
      C   15   -0.06702      0.99950     2.05952    0.00800     3.06702
      C   16   -0.28688      0.99964     2.28226    0.00498     3.28688
      O   17   -0.27840      0.99985     3.26841    0.01014     4.27840
      C   18   -0.09616      0.99959     2.08855    0.00802     3.09616
      O   19   -0.37757      0.99989     3.37007    0.00761     4.37757
      H   20    0.09536      0.00000     0.40359    0.00106     0.40464
      H   21    0.09788      0.00000     0.40112    0.00099     0.40212
      H   22    0.09622      0.00000     0.40270    0.00108     0.40378
      H   23    0.09111      0.00000     0.40726    0.00162     0.40889
      H   24    0.09955      0.00000     0.39912    0.00133     0.40045
      H   25    0.09312      0.00000     0.40576    0.00112     0.40688
      H   26    0.10312      0.00000     0.39556    0.00132     0.39688
      H   27    0.10549      0.00000     0.39320    0.00130     0.39451
      H   28    0.09736      0.00000     0.40126    0.00139     0.40264
      H   29    0.11117      0.00000     0.38772    0.00110     0.38883
      H   30    0.09402      0.00000     0.40480    0.00118     0.40598
      H   31    0.10291      0.00000     0.39574    0.00135     0.39709
      H   32    0.09668      0.00000     0.40151    0.00181     0.40332
      H   33    0.08683      0.00000     0.41179    0.00138     0.41317
      H   34    0.10794      0.00000     0.39068    0.00138     0.39206
      H   35    0.09511      0.00000     0.40346    0.00142     0.40489
      H   36    0.09486      0.00000     0.40393    0.00120     0.40514
      H   37    0.09965      0.00000     0.39943    0.00092     0.40035
      H   38    0.09877      0.00000     0.39935    0.00188     0.40123
      H   39    0.08190      0.00000     0.41629    0.00181     0.41810
      H   40    0.07821      0.00000     0.42058    0.00121     0.42179
      H   41    0.22810      0.00000     0.26944    0.00246     0.27190
 =======================================================================
   * Total *    0.00000     18.99238    51.79161    0.21601    71.00000

 Normal termination of Gaussian 16 at Sat Dec 12 12:11:36 2020.
