 Gaussian 16, Revision A.03,

 -----------------------------------------------------------
 # opt freq B3LYP/6-31G(d) empiricaldispersion=gd3bj scf=xqc
 -----------------------------------------------------------

 ------------------------------
 CID_22169150_JID_2584_neutraal
 ------------------------------
 Symbolic Z-matrix:
 Charge =  0 Multiplicity = 1

 SCF Done:  E(RB3LYP) =  -468.132438879     A.U. after   13 cycles
 SCF Done:  E(RB3LYP) =  -468.135967640     A.U. after   11 cycles
 SCF Done:  E(RB3LYP) =  -468.136117976     A.U. after   10 cycles
 SCF Done:  E(RB3LYP) =  -468.136339238     A.U. after   10 cycles
 SCF Done:  E(RB3LYP) =  -468.136355379     A.U. after    9 cycles
 SCF Done:  E(RB3LYP) =  -468.136359845     A.U. after    8 cycles
 SCF Done:  E(RB3LYP) =  -468.136360515     A.U. after    7 cycles
 SCF Done:  E(RB3LYP) =  -468.136360833     A.U. after    7 cycles
 SCF Done:  E(RB3LYP) =  -468.136361756     A.U. after    8 cycles
 SCF Done:  E(RB3LYP) =  -468.136362838     A.U. after    9 cycles
 SCF Done:  E(RB3LYP) =  -468.136373542     A.U. after    7 cycles
 SCF Done:  E(RB3LYP) =  -468.136373623     A.U. after    8 cycles
 SCF Done:  E(RB3LYP) =  -468.136373611     A.U. after    8 cycles
 SCF Done:  E(RB3LYP) =  -468.136373593     A.U. after    8 cycles
 SCF Done:  E(RB3LYP) =  -468.136373563     A.U. after    8 cycles
 SCF Done:  E(RB3LYP) =  -468.136373559     A.U. after    6 cycles
 Optimization completed on the basis of negligible forces.
    -- Stationary point found.
 Normal termination of Gaussian 16 at Wed Dec  9 18:15:49 2020.

 --------------------------------------------------------------------
 #N Geom=AllCheck Guess=TCheck SCRF=Check GenChk RB3LYP/6-31G(d) Freq
 --------------------------------------------------------------------

 Structure from the checkpoint file:  "JID_2584.chk"
 ------------------------------
 CID_22169150_JID_2584_neutraal
 ------------------------------
 Charge =  0 Multiplicity = 1

 SCF Done:  E(RB3LYP) =  -468.136373559     A.U. after    1 cycles

  Exact polarizability: 125.780   1.336 109.254  -4.222   0.079 105.106
 Approx polarizability: 155.516   1.526 162.564 -11.283  -2.686 175.119

                      1                      2                      3
                      A                      A                      A
 Frequencies --      9.8189                73.2637               111.6501
 Red. masses --      1.7646                 2.6432                 2.9577
 Frc consts  --      0.0001                 0.0084                 0.0217
 IR Inten    --      0.0020                 0.0021                 0.0179

                      4                      5                      6
                      A                      A                      A
 Frequencies --    140.4305               213.3580               274.7975
 Red. masses --      2.7862                 2.6469                 2.8967
 Frc consts  --      0.0324                 0.0710                 0.1289
 IR Inten    --      0.0833                 0.0190                 0.2162

                      7                      8                      9
                      A                      A                      A
 Frequencies --    309.1767               391.7723               463.5669
 Red. masses --      3.4765                 2.1842                 2.6347
 Frc consts  --      0.1958                 0.1975                 0.3336
 IR Inten    --      0.0338                 1.1270                 0.4648

                     10                     11                     12
                      A                      A                      A
 Frequencies --    489.6908               514.2607               616.1881
 Red. masses --      1.7974                 2.2677                 2.3397
 Frc consts  --      0.2539                 0.3534                 0.5234
 IR Inten    --      1.4133                 1.4162                 0.0713

                     13                     14                     15
                      A                      A                      A
 Frequencies --    653.1901               682.4345               745.0536
 Red. masses --      2.8026                 3.8478                 1.6372
 Frc consts  --      0.7045                 1.0558                 0.5354
 IR Inten    --      4.0916                 0.7002                38.3502

                     16                     17                     18
                      A                      A                      A
 Frequencies --    777.3205               783.8840               795.0527
 Red. masses --      1.8667                 2.0455                 2.7750
 Frc consts  --      0.6645                 0.7406                 1.0335
 IR Inten    --      1.8801                 0.9960                 1.1106

                     19                     20                     21
                      A                      A                      A
 Frequencies --    829.4148               846.1412               848.0524
 Red. masses --      2.9085                 2.1663                 2.1885
 Frc consts  --      1.1789                 0.9138                 0.9274
 IR Inten    --      2.4210                 0.6696                 2.7782

                     22                     23                     24
                      A                      A                      A
 Frequencies --    889.0277               906.4011               918.8469
 Red. masses --      2.8820                 2.5103                 2.4211
 Frc consts  --      1.3421                 1.2151                 1.2043
 IR Inten    --      1.5186                 1.4553                 0.7775

                     25                     26                     27
                      A                      A                      A
 Frequencies --    931.7683               944.0413               958.0853
 Red. masses --      1.6827                 2.0940                 2.1650
 Frc consts  --      0.8607                 1.0995                 1.1709
 IR Inten    --      3.8419                 0.6951                 1.9017

                     28                     29                     30
                      A                      A                      A
 Frequencies --    960.6586               973.2745               979.8234
 Red. masses --      1.7252                 1.7252                 2.1074
 Frc consts  --      0.9380                 0.9629                 1.1920
 IR Inten    --      1.9103                 0.9344                 0.9702

                     31                     32                     33
                      A                      A                      A
 Frequencies --    993.9341              1008.1230              1024.6999
 Red. masses --      1.5070                 1.4183                 1.8806
 Frc consts  --      0.8771                 0.8493                 1.1635
 IR Inten    --      0.1284                 0.2262                 1.1781

                     34                     35                     36
                      A                      A                      A
 Frequencies --   1055.9984              1071.9991              1094.4127
 Red. masses --      2.3360                 1.6335                 2.5918
 Frc consts  --      1.5348                 1.1060                 1.8290
 IR Inten    --      0.0960                 0.4086                 0.4633

                     37                     38                     39
                      A                      A                      A
 Frequencies --   1112.5982              1127.0680              1165.3252
 Red. masses --      1.3414                 1.1967                 1.2101
 Frc consts  --      0.9783                 0.8957                 0.9682
 IR Inten    --      0.2077                 0.5262                 2.1734

                     40                     41                     42
                      A                      A                      A
 Frequencies --   1178.2194              1200.8671              1208.4503
 Red. masses --      1.3406                 1.5454                 1.6665
 Frc consts  --      1.0965                 1.3131                 1.4339
 IR Inten    --      2.0066                 0.7960                 1.2470

                     43                     44                     45
                      A                      A                      A
 Frequencies --   1222.5359              1236.8611              1242.9576
 Red. masses --      1.4187                 1.3778                 1.4562
 Frc consts  --      1.2493                 1.2419                 1.3255
 IR Inten    --      0.9175                 1.6439                 0.0820

                     46                     47                     48
                      A                      A                      A
 Frequencies --   1272.3671              1290.3773              1299.0648
 Red. masses --      1.3827                 1.2621                 1.4000
 Frc consts  --      1.3189                 1.2381                 1.3920
 IR Inten    --      1.3366                 0.6040                 1.4369

                     49                     50                     51
                      A                      A                      A
 Frequencies --   1310.2869              1310.8525              1317.8324
 Red. masses --      1.3100                 1.3096                 1.5626
 Frc consts  --      1.3251                 1.3258                 1.5989
 IR Inten    --      0.2523                 0.3362                 1.3428

                     52                     53                     54
                      A                      A                      A
 Frequencies --   1326.6923              1342.3649              1353.0813
 Red. masses --      1.3149                 1.3043                 1.4104
 Frc consts  --      1.3636                 1.3847                 1.5214
 IR Inten    --      0.0790                 2.2465                 2.7675

                     55                     56                     57
                      A                      A                      A
 Frequencies --   1364.2049              1365.3953              1383.5370
 Red. masses --      1.2990                 1.4601                 1.6740
 Frc consts  --      1.4244                 1.6038                 1.8880
 IR Inten    --      0.2806                 1.1017                 2.5978

                     58                     59                     60
                      A                      A                      A
 Frequencies --   1400.7695              1424.9677              1512.8820
 Red. masses --      1.6304                 1.4089                 1.0862
 Frc consts  --      1.8849                 1.6855                 1.4648
 IR Inten    --      2.4480                 6.3751                 0.6131

                     61                     62                     63
                      A                      A                      A
 Frequencies --   1520.1112              1523.0710              1526.2471
 Red. masses --      1.0884                 1.0987                 1.0876
 Frc consts  --      1.4819                 1.5016                 1.4926
 IR Inten    --      0.1276                 1.7377                 2.5027

                     64                     65                     66
                      A                      A                      A
 Frequencies --   1535.1816              1548.9761              1658.6887
 Red. masses --      1.1028                 1.1044                 5.6005
 Frc consts  --      1.5313                 1.5612                 9.0784
 IR Inten    --      2.2516                 0.7196                 0.7327

                     67                     68                     69
                      A                      A                      A
 Frequencies --   2992.6666              3020.8211              3047.5601
 Red. masses --      1.0829                 1.0844                 1.0683
 Frc consts  --      5.7142                 5.8301                 5.8460
 IR Inten    --     20.5760                27.1417                41.4380

                     70                     71                     72
                      A                      A                      A
 Frequencies --   3049.1562              3058.2681              3060.8482
 Red. masses --      1.0616                 1.0648                 1.0619
 Frc consts  --      5.8153                 5.8678                 5.8617
 IR Inten    --      9.8447                50.8143                32.2665

                     73                     74                     75
                      A                      A                      A
 Frequencies --   3066.8870              3070.1742              3083.7997
 Red. masses --      1.0635                 1.0632                 1.1010
 Frc consts  --      5.8937                 5.9047                 6.1690
 IR Inten    --     34.3608                57.2000                17.7654

                     76                     77                     78
                      A                      A                      A
 Frequencies --   3096.7250              3111.2552              3112.7453
 Red. masses --      1.0991                 1.1040                 1.0925
 Frc consts  --      6.2100                 6.2964                 6.2369
 IR Inten    --     15.0888                37.7446                28.8527

                     79                     80                     81
                      A                      A                      A
 Frequencies --   3113.3590              3119.0067              3122.8365
 Red. masses --      1.0966                 1.0937                 1.1003
 Frc consts  --      6.2624                 6.2687                 6.3220
 IR Inten    --     86.1444                48.8251                35.8389

                     82                     83                     84
                      A                      A                      A
 Frequencies --   3124.8023              3204.8344              3230.2306
 Red. masses --      1.0988                 1.0861                 1.1050
 Frc consts  --      6.3215                 6.5727                 6.7936
 IR Inten    --     45.1190                11.4117                20.7340

 - Thermochemistry -
 -------------------
 Temperature   298.150 Kelvin.  Pressure   1.00000 Atm.
 Atom     1 has atomic number  6 and mass  12.00000

 Molecular mass:   162.14085 amu.
 Principal axes and moments of inertia in atomic units:
                           1         2         3
     Eigenvalues --   847.820502900.953073141.86901
           X            0.99998   0.00679   0.00106
           Y           -0.00679   0.99998  -0.00083
           Z           -0.00107   0.00082   1.00000
 This molecule is an asymmetric top.
 Rotational symmetry number  1.
 Warning -- assumption of classical behavior for rotation
           may cause significant error
 Rotational temperatures (Kelvin)      0.10216     0.02986     0.02757
 Rotational constants (GHZ):           2.12868     0.62212     0.57442
 Zero-point vibrational energy     725220.6 (Joules/Mol)
                                  173.33189 (Kcal/Mol)
 Warning -- explicit consideration of  12 degrees of freedom as
           vibrations may cause significant error
 Vibrational temperatures:     14.13   105.41   160.64   202.05   306.97
          (Kelvin)            395.37   444.84   563.67   666.97   704.56
                              739.91   886.56   939.79   981.87  1071.97
                             1118.39  1127.83  1143.90  1193.34  1217.41
                             1220.16  1279.11  1304.11  1322.02  1340.61
                             1358.26  1378.47  1382.17  1400.32  1409.75
                             1430.05  1450.46  1474.31  1519.35  1542.37
                             1574.62  1600.78  1621.60  1676.64  1695.19
                             1727.78  1738.69  1758.96  1779.57  1788.34
                             1830.65  1856.57  1869.06  1885.21  1886.02
                             1896.07  1908.81  1931.36  1946.78  1962.79
                             1964.50  1990.60  2015.39  2050.21  2176.70
                             2187.10  2191.36  2195.93  2208.78  2228.63
                             2386.48  4305.78  4346.29  4384.76  4387.06
                             4400.17  4403.88  4412.57  4417.30  4436.90
                             4455.50  4476.40  4478.55  4479.43  4487.56
                             4493.07  4495.89  4611.04  4647.58

 Zero-point correction=                           0.276222 (Hartree/Particle)
 Thermal correction to Energy=                    0.286437
 Thermal correction to Enthalpy=                  0.287381
 Thermal correction to Gibbs Free Energy=         0.238609
 Sum of electronic and zero-point Energies=           -467.860152
 Sum of electronic and thermal Energies=              -467.849936
 Sum of electronic and thermal Enthalpies=            -467.848992
 Sum of electronic and thermal Free Energies=         -467.897764

                     E (Thermal)             CV                S
                      KCal/Mol        Cal/Mol-Kelvin    Cal/Mol-Kelvin
 Total                  179.742             41.847            102.650
 Electronic               0.000              0.000              0.000
 Translational            0.889              2.981             41.159
 Rotational               0.889              2.981             30.425
 Vibrational            177.965             35.885             31.066
 Vibration     1          0.593              1.987              8.047
 Vibration     2          0.599              1.967              4.064
 Vibration     3          0.607              1.940              3.240
 Vibration     4          0.615              1.913              2.798
 Vibration     5          0.644              1.821              2.015
 Vibration     6          0.677              1.720              1.566
 Vibration     7          0.699              1.656              1.367
 Vibration     8          0.759              1.488              0.993
 Vibration     9          0.821              1.331              0.756
 Vibration    10          0.846              1.273              0.684
 Vibration    11          0.869              1.218              0.623
 Vibration    12          0.976              0.998              0.423

 Optimization completed on the basis of negligible forces.
    -- Stationary point found.
 Normal termination of Gaussian 16 at Wed Dec  9 18:24:48 2020.

 ----------------------------------------------------------------------
 # B3LYP/6-311++G(d,p) empiricaldispersion=gd3bj scf=xqc pop=npa geom=c
 heck
 ----------------------------------------------------------------------

 --------------------------------------
 CID_22169150_JID_2584_Energie_neutraal
 --------------------------------------
 Structure from the checkpoint file:  "JID_2584.chk"
 Charge =  0 Multiplicity = 1

 SCF Done:  E(RB3LYP) =  -468.257266426     A.U. after   13 cycles
 Normal termination of Gaussian 16 at Wed Dec  9 18:28:40 2020.

 ----------------------------------------------------------------------
 # B3LYP/6-311++G(d,p) empiricaldispersion=gd3bj scf=xqc pop=npa geom=c
 heck
 ----------------------------------------------------------------------

 ------------------------------------
 CID_22169150_JID_2584_Energie_kation
 ------------------------------------
 Structure from the checkpoint file:  "JID_2584.chk"
 Charge =  1 Multiplicity = 2

 SCF Done:  E(UB3LYP) =  -467.944653433     A.U. after   19 cycles
 Normal termination of Gaussian 16 at Wed Dec  9 18:36:31 2020.
 Gaussian 16:  ES64L-G16RevA.03 25-Dec-2016

 ----------------------------------------------------------------------
 # B3LYP/6-311++G(d,p) empiricaldispersion=gd3bj scf=xqc pop=npa geom=c
 heck
 ----------------------------------------------------------------------

 -----------------------------------
 CID_22169150_JID_2584_Energie_anion
 -----------------------------------
 Structure from the checkpoint file:  "JID_2584.chk"
 Charge = -1 Multiplicity = 2

                         Standard orientation:
 ---------------------------------------------------------------------
 Center     Atomic      Atomic             Coordinates (Angstroms)
 Number     Number       Type             X           Y           Z
 ---------------------------------------------------------------------
      1          6           0        2.959060    1.077670    0.070499
      2          6           0        3.376368   -0.409227    0.224272
      3          6           0        2.087538   -1.233519   -0.034861
      4          6           0        1.040455   -0.234264   -0.580519
      5          6           0        1.422249    1.074236    0.135577
      6          6           0       -0.392804   -0.766043   -0.465076
      7          6           0       -0.956299   -0.980678    0.976765
      8          6           0       -2.375472   -0.321123    0.905747
      9          6           0       -2.768934   -0.644621   -0.555304
     10          6           0       -1.533537    0.076218   -1.146762
     11          6           0       -1.644235    1.413772   -0.430465
     12          6           0       -2.143874    1.177856    0.790258
     13          1           0        3.279260    1.456301   -0.908155
     14          1           0        3.413782    1.726429    0.826418
     15          1           0        4.173362   -0.669888   -0.479814
     16          1           0        3.768518   -0.608253    1.227284
     17          1           0        1.718306   -1.660400    0.905787
     18          1           0        2.247867   -2.072958   -0.720243
     19          1           0        1.245381   -0.085169   -1.652751
     20          1           0        1.083615    1.048626    1.178772
     21          1           0        0.981645    1.963816   -0.321445
     22          1           0       -0.393189   -1.738961   -0.975548
     23          1           0       -1.034076   -2.046562    1.216307
     24          1           0       -0.339440   -0.514903    1.750505
     25          1           0       -3.061487   -0.643105    1.692592
     26          1           0       -3.715234   -0.182604   -0.851801
     27          1           0       -2.794248   -1.718702   -0.775504
     28          1           0       -1.452583    0.117902   -2.235905
     29          1           0       -1.285257    2.359639   -0.820823
     30          1           0       -2.259323    1.887131    1.603540
 ---------------------------------------------------------------------

 SCF Done:  E(UB3LYP) =  -468.239667226     A.U. after   32 cycles

 The electronic state is 2-A.
 Alpha  occ. eigenvalues --  -10.06997 -10.06813 -10.06446 -10.06040 -10.05864
 Alpha  occ. eigenvalues --  -10.05856 -10.05818 -10.05751 -10.05734 -10.05679
 Alpha  occ. eigenvalues --  -10.05421 -10.05172  -0.77676  -0.72851  -0.64930
 Alpha  occ. eigenvalues --   -0.61812  -0.60053  -0.60010  -0.56610  -0.49189
 Alpha  occ. eigenvalues --   -0.46129  -0.45213  -0.44033  -0.41026  -0.40449
 Alpha  occ. eigenvalues --   -0.38147  -0.36852  -0.33771  -0.32878  -0.31012
 Alpha  occ. eigenvalues --   -0.29305  -0.29020  -0.27621  -0.24573  -0.24478
 Alpha  occ. eigenvalues --   -0.23942  -0.23316  -0.23173  -0.22740  -0.22575
 Alpha  occ. eigenvalues --   -0.21327  -0.20436  -0.19782  -0.18819  -0.13428
 Alpha  occ. eigenvalues --    0.04734
 Alpha virt. eigenvalues --    0.06922   0.07329   0.07603   0.08920   0.09092
 Alpha virt. eigenvalues --    0.09343   0.09745   0.10022   0.10627   0.11364
 Alpha virt. eigenvalues --    0.11668   0.12040   0.12757   0.13021   0.13564

  Beta  occ. eigenvalues --  -10.06987 -10.06803 -10.06437 -10.06030 -10.05850
  Beta  occ. eigenvalues --  -10.05840 -10.05806 -10.05734 -10.05723 -10.05661
  Beta  occ. eigenvalues --  -10.05406 -10.05159  -0.77649  -0.72826  -0.64901
  Beta  occ. eigenvalues --   -0.61780  -0.60018  -0.59978  -0.56570  -0.49148
  Beta  occ. eigenvalues --   -0.46079  -0.45167  -0.43990  -0.40966  -0.40410
  Beta  occ. eigenvalues --   -0.38122  -0.36807  -0.33733  -0.32845  -0.30989
  Beta  occ. eigenvalues --   -0.29272  -0.28988  -0.27589  -0.24544  -0.24444
  Beta  occ. eigenvalues --   -0.23911  -0.23283  -0.23144  -0.22714  -0.22547
  Beta  occ. eigenvalues --   -0.21297  -0.20407  -0.19752  -0.18786  -0.13410
  Beta virt. eigenvalues --    0.06887   0.07671   0.08045   0.08345   0.09445
  Beta virt. eigenvalues --    0.09558   0.09771   0.10152   0.10649   0.10861
  Beta virt. eigenvalues --    0.11712   0.12190   0.12390   0.13054   0.13321

 Mulliken charges and spin densities:
               1          2
     1  C   -0.462925  -0.142197
     2  C    0.431810  -0.818996
     3  C    0.025768  -0.525012
     4  C   -0.709369   0.665279
     5  C    0.410482  -0.649346
     6  C    1.639876  -1.250187
     7  C    0.185964  -0.875567
     8  C   -0.636447   1.081121
     9  C    0.898210  -1.636380
    10  C   -1.162498   1.530534
    11  C    0.346764  -0.773182
    12  C    0.504487  -0.960302
    13  H   -0.216391   0.361246
    14  H   -0.063727   0.213484
    15  H    0.010823   0.126620
    16  H   -0.101396   0.228117
    17  H    0.145919   0.010352
    18  H   -0.326856   0.470819
    19  H   -0.083853   0.264206
    20  H    0.105319   0.019146
    21  H    0.094458   0.035585
    22  H    0.076837   0.144176
    23  H   -0.260821   0.429821
    24  H   -0.111692   0.237173
    25  H   -0.496013   0.741304
    26  H   -0.190714   0.348577
    27  H   -0.091555   0.224503
    28  H   -0.466955   0.720273
    29  H   -0.315187   0.456956
    30  H   -0.180318   0.321876
 Sum of Mulliken charges =  -1.00000   1.00000

 Dipole moment (field-independent basis, Debye):
    X=              1.3309    Y=              0.7241    Z=              1.0481  Tot=              1.8423
 Quadrupole moment (field-independent basis, Debye-Ang):
   XX=           -136.5437   YY=           -117.5958   ZZ=           -114.7918
   XY=             -1.8566   XZ=              3.4797   YZ=              1.2280

 Summary of Natural Population Analysis:

                                       Natural Population
                Natural  -----------------------------------------------
    Atom  No    Charge         Core      Valence    Rydberg      Total
 -----------------------------------------------------------------------
      C    1   -0.18819      0.99964     2.18188    0.00666     3.18819
      C    2   -0.19132      0.99965     2.18497    0.00670     3.19132
      C    3   -0.18836      0.99962     2.18029    0.00844     3.18836
      C    4   -0.10768      0.99957     2.09667    0.01144     3.10768
      C    5   -0.19155      0.99961     2.18348    0.00846     3.19155
      C    6   -0.10194      0.99957     2.08993    0.01243     3.10194
      C    7   -0.18822      0.99961     2.17961    0.00900     3.18822
      C    8   -0.12716      0.99960     2.11460    0.01296     3.12716
      C    9   -0.17683      0.99963     2.16767    0.00953     3.17683
      C   10   -0.12302      0.99958     2.11060    0.01283     3.12302
      C   11   -0.09516      0.99952     2.08378    0.01187     3.09516
      C   12   -0.09756      0.99951     2.08726    0.01080     3.09756
      H   13    0.09384      0.00000     0.40464    0.00152     0.40616
      H   14    0.09612      0.00000     0.40279    0.00108     0.40388
      H   15    0.09606      0.00000     0.40269    0.00125     0.40394
      H   16    0.09400      0.00000     0.40479    0.00121     0.40600
      H   17    0.09544      0.00000     0.40309    0.00148     0.40456
      H   18    0.09985      0.00000     0.39901    0.00115     0.40015
      H   19    0.09557      0.00000     0.40242    0.00202     0.40443
      H   20    0.09498      0.00000     0.40347    0.00156     0.40502
      H   21    0.10313      0.00000     0.39559    0.00128     0.39687
      H   22    0.10065      0.00000     0.39733    0.00202     0.39935
      H   23    0.10213      0.00000     0.39653    0.00134     0.39787
      H   24    0.09842      0.00000     0.40012    0.00146     0.40158
      H   25    0.10209      0.00000     0.39633    0.00158     0.39791
      H   26    0.10020      0.00000     0.39857    0.00123     0.39980
      H   27    0.09749      0.00000     0.40101    0.00150     0.40251
      H   28    0.10452      0.00000     0.39401    0.00147     0.39548
      H   29    0.10225      0.00000     0.39646    0.00129     0.39775
      H   30    0.10027      0.00000     0.39868    0.00105     0.39973
 =======================================================================
   * Total *    0.00000     11.99513    32.85827    0.14660    45.00000

 Normal termination of Gaussian 16 at Wed Dec  9 18:48:52 2020.
