 Gaussian 16, Revision A.03,

 -----------------------------------------------------------
 # opt freq B3LYP/6-31G(d) empiricaldispersion=gd3bj scf=xqc
 -----------------------------------------------------------

 -----------------------------
 CID_5305712_JID_4054_neutraal
 -----------------------------
 Symbolic Z-matrix:
 Charge =  0 Multiplicity = 1

 SCF Done:  E(RB3LYP) =  -631.059247102     A.U. after   15 cycles
 SCF Done:  E(RB3LYP) =  -631.063155534     A.U. after   12 cycles
 SCF Done:  E(RB3LYP) =  -631.063551690     A.U. after   11 cycles
 SCF Done:  E(RB3LYP) =  -631.063867545     A.U. after   12 cycles
 SCF Done:  E(RB3LYP) =  -631.063931057     A.U. after   11 cycles
 SCF Done:  E(RB3LYP) =  -631.064104850     A.U. after   11 cycles
 SCF Done:  E(RB3LYP) =  -631.064215486     A.U. after   12 cycles
 SCF Done:  E(RB3LYP) =  -631.064232933     A.U. after   11 cycles
 SCF Done:  E(RB3LYP) =  -631.064229063     A.U. after   10 cycles
 SCF Done:  E(RB3LYP) =  -631.064235681     A.U. after   10 cycles
 SCF Done:  E(RB3LYP) =  -631.064235723     A.U. after    8 cycles
 SCF Done:  E(RB3LYP) =  -631.064235948     A.U. after    8 cycles
 Optimization completed.
    -- Stationary point found.
 Normal termination of Gaussian 16 at Thu Dec 10 09:15:27 2020.

 --------------------------------------------------------------------
 #N Geom=AllCheck Guess=TCheck SCRF=Check GenChk RB3LYP/6-31G(d) Freq
 --------------------------------------------------------------------

 Structure from the checkpoint file:  "JID_4054.chk"
 -----------------------------
 CID_5305712_JID_4054_neutraal
 -----------------------------
 Charge =  0 Multiplicity = 1

 SCF Done:  E(RB3LYP) =  -631.064235948     A.U. after    1 cycles

  Exact polarizability: 160.594  -0.885 136.114  -0.131   3.223  64.836
 Approx polarizability: 258.251   0.424 206.148   0.927  11.667 102.584

                      1                      2                      3
                      A                      A                      A
 Frequencies --     86.7463                89.8523               159.3792
 Red. masses --      2.4865                 8.0041                 3.7809
 Frc consts  --      0.0110                 0.0381                 0.0566
 IR Inten    --      0.3611                 1.4623                 0.8910

                      4                      5                      6
                      A                      A                      A
 Frequencies --    169.4234               245.5278               308.1026
 Red. masses --      2.5828                 4.1186                 2.2158
 Frc consts  --      0.0437                 0.1463                 0.1239
 IR Inten    --      9.0674                 0.9433                 1.6816

                      7                      8                      9
                      A                      A                      A
 Frequencies --    317.1300               334.8245               417.6123
 Red. masses --      5.4111                 3.9565                 4.4459
 Frc consts  --      0.3206                 0.2613                 0.4568
 IR Inten    --      5.9671                 2.9118                 0.8679

                     10                     11                     12
                      A                      A                      A
 Frequencies --    422.3955               445.5339               490.9946
 Red. masses --      6.3181                 5.3513                 2.7812
 Frc consts  --      0.6642                 0.6258                 0.3950
 IR Inten    --      5.7079                 4.9325                 1.6902

                     13                     14                     15
                      A                      A                      A
 Frequencies --    540.8792               551.4050               564.9007
 Red. masses --      4.8126                 4.8884                 4.7740
 Frc consts  --      0.8295                 0.8757                 0.8976
 IR Inten    --      2.7567                 0.6782                11.4957

                     16                     17                     18
                      A                      A                      A
 Frequencies --    587.1074               600.2152               629.0964
 Red. masses --      3.5216                 5.0054                 2.9069
 Frc consts  --      0.7152                 1.0624                 0.6778
 IR Inten    --      2.5918                 3.0718                 4.5845

                     19                     20                     21
                      A                      A                      A
 Frequencies --    710.8435               739.4934               783.3511
 Red. masses --      6.0427                 3.2661                 4.8259
 Frc consts  --      1.7990                 1.0523                 1.7448
 IR Inten    --     10.9651                11.8587                 4.1270

                     22                     23                     24
                      A                      A                      A
 Frequencies --    787.6598               882.5330               890.7895
 Red. masses --      1.4828                 1.5884                 1.8412
 Frc consts  --      0.5420                 0.7289                 0.8608
 IR Inten    --     30.9765                 5.6151                 3.5379

                     25                     26                     27
                      A                      A                      A
 Frequencies --    902.7665               909.0448               952.6891
 Red. masses --      1.3986                 2.8963                 1.2398
 Frc consts  --      0.6716                 1.4101                 0.6630
 IR Inten    --      2.6339                 1.4002                 0.8125

                     28                     29                     30
                      A                      A                      A
 Frequencies --    982.2428              1013.3656              1044.5785
 Red. masses --      4.4237                 2.5163                 2.0777
 Frc consts  --      2.5146                 1.5225                 1.3357
 IR Inten    --      7.5176                 1.7445                 6.1206

                     31                     32                     33
                      A                      A                      A
 Frequencies --   1059.7873              1090.5352              1106.5369
 Red. masses --      3.5738                 2.9670                 1.9613
 Frc consts  --      2.3649                 2.0789                 1.4149
 IR Inten    --      3.0704                11.5007                16.6411

                     34                     35                     36
                      A                      A                      A
 Frequencies --   1122.0507              1134.8203              1195.4340
 Red. masses --      2.0377                 2.6749                 1.2563
 Frc consts  --      1.5116                 2.0296                 1.0578
 IR Inten    --     23.4775                21.6292                 1.7330

                     37                     38                     39
                      A                      A                      A
 Frequencies --   1214.7814              1230.8035              1269.9924
 Red. masses --      1.2621                 1.5055                 1.2581
 Frc consts  --      1.0973                 1.3437                 1.1955
 IR Inten    --      5.1557                 6.1281                 2.9809

                     40                     41                     42
                      A                      A                      A
 Frequencies --   1277.5049              1292.4201              1312.5222
 Red. masses --      1.4109                 2.1681                 1.6260
 Frc consts  --      1.3567                 2.1337                 1.6504
 IR Inten    --     10.8555                 6.4287                77.2121

                     43                     44                     45
                      A                      A                      A
 Frequencies --   1338.4558              1360.8397              1378.7072
 Red. masses --      2.7488                 4.5928                 1.5790
 Frc consts  --      2.9014                 5.0112                 1.7683
 IR Inten    --     54.6685                36.3872                15.5888

                     46                     47                     48
                      A                      A                      A
 Frequencies --   1392.3590              1402.8666              1419.3522
 Red. masses --      1.4766                 1.5213                 3.5154
 Frc consts  --      1.6866                 1.7640                 4.1726
 IR Inten    --      2.9918                 5.1189               201.9075

                     49                     50                     51
                      A                      A                      A
 Frequencies --   1430.4250              1504.4143              1507.7670
 Red. masses --      1.9289                 1.2932                 1.1623
 Frc consts  --      2.3253                 1.7245                 1.5568
 IR Inten    --     69.3959                27.9930                 4.2209

                     52                     53                     54
                      A                      A                      A
 Frequencies --   1518.9857              1529.4182              1532.2967
 Red. masses --      1.1076                 1.6801                 2.5766
 Frc consts  --      1.5058                 2.3155                 3.5643
 IR Inten    --      2.9988                73.7225                 5.8973

                     55                     56                     57
                      A                      A                      A
 Frequencies --   1545.1381              1648.5774              1668.0069
 Red. masses --      1.3674                 6.9666                 7.1773
 Frc consts  --      1.9234                11.1555                11.7654
 IR Inten    --     61.7954                14.5978                 0.6544

                     58                     59                     60
                      A                      A                      A
 Frequencies --   1785.4560              3008.1299              3023.3428
 Red. masses --     11.7301                 1.0719                 1.0698
 Frc consts  --     22.0319                 5.7145                 5.7615
 IR Inten    --    439.8189                47.4417                22.5491

                     61                     62                     63
                      A                      A                      A
 Frequencies --   3045.5098              3061.5868              3093.3047
 Red. masses --      1.0728                 1.0614                 1.0927
 Frc consts  --      5.8625                 5.8616                 6.1600
 IR Inten    --     28.1380                23.9237                29.5201

                     64                     65                     66
                      A                      A                      A
 Frequencies --   3108.2474              3132.5131              3166.7887
 Red. masses --      1.1031                 1.0944                 1.0929
 Frc consts  --      6.2791                 6.3274                 6.4576
 IR Inten    --     39.4571                11.7670                 9.6655

                     67                     68                     69
                      A                      A                      A
 Frequencies --   3187.2032              3206.1469              3223.0206
 Red. masses --      1.0875                 1.0913                 1.0950
 Frc consts  --      6.5087                 6.6092                 6.7019
 IR Inten    --      7.3834                17.1022                10.3364

 - Thermochemistry -
 -------------------
 Temperature   298.150 Kelvin.  Pressure   1.00000 Atm.
 Atom     1 has atomic number  6 and mass  12.00000

 Molecular mass:   189.07898 amu.
 Principal axes and moments of inertia in atomic units:
                           1         2         3
     Eigenvalues --  1778.905612283.234973937.20635
           X            0.99998   0.00606  -0.00002
           Y           -0.00606   0.99996  -0.00587
           Z           -0.00002   0.00587   0.99998
 This molecule is an asymmetric top.
 Rotational symmetry number  1.
 Warning -- assumption of classical behavior for rotation
           may cause significant error
 Rotational temperatures (Kelvin)      0.04869     0.03793     0.02200
 Rotational constants (GHZ):           1.01452     0.79043     0.45838
 Zero-point vibrational energy     538837.1 (Joules/Mol)
                                  128.78516 (Kcal/Mol)
 Warning -- explicit consideration of  17 degrees of freedom as
           vibrations may cause significant error
 Vibrational temperatures:    124.81   129.28   229.31   243.76   353.26
          (Kelvin)            443.29   456.28   481.74   600.85   607.73
                              641.02   706.43   778.20   793.35   812.77
                              844.72   863.58   905.13  1022.75  1063.97
                             1127.07  1133.27  1269.77  1281.65  1298.88
                             1307.91  1370.71  1413.23  1458.01  1502.92
                             1524.80  1569.04  1592.06  1614.38  1632.75
                             1719.96  1747.80  1770.85  1827.24  1838.04
                             1859.50  1888.43  1925.74  1957.94  1983.65
                             2003.29  2018.41  2042.13  2058.06  2164.52
                             2169.34  2185.48  2200.49  2204.63  2223.11
                             2371.94  2399.89  2568.87  4328.03  4349.92
                             4381.81  4404.94  4450.58  4472.07  4506.99
                             4556.30  4585.67  4612.93  4637.21

 Zero-point correction=                           0.205232 (Hartree/Particle)
 Thermal correction to Energy=                    0.215660
 Thermal correction to Enthalpy=                  0.216604
 Thermal correction to Gibbs Free Energy=         0.169200
 Sum of electronic and zero-point Energies=           -630.859004
 Sum of electronic and thermal Energies=              -630.848576
 Sum of electronic and thermal Enthalpies=            -630.847632
 Sum of electronic and thermal Free Energies=         -630.895036

                     E (Thermal)             CV                S
                      KCal/Mol        Cal/Mol-Kelvin    Cal/Mol-Kelvin
 Total                  135.329             42.640             99.770
 Electronic               0.000              0.000              0.000
 Translational            0.889              2.981             41.617
 Rotational               0.889              2.981             31.148
 Vibrational            133.551             36.678             27.006
 Vibration     1          0.601              1.958              3.732
 Vibration     2          0.602              1.956              3.663
 Vibration     3          0.621              1.892              2.557
 Vibration     4          0.625              1.880              2.442
 Vibration     5          0.660              1.770              1.762
 Vibration     6          0.698              1.658              1.373
 Vibration     7          0.704              1.641              1.325
 Vibration     8          0.716              1.606              1.237
 Vibration     9          0.781              1.432              0.900
 Vibration    10          0.785              1.422              0.884
 Vibration    11          0.805              1.371              0.809
 Vibration    12          0.847              1.270              0.681
 Vibration    13          0.896              1.160              0.563
 Vibration    14          0.907              1.137              0.541
 Vibration    15          0.921              1.107              0.514
 Vibration    16          0.944              1.059              0.472
 Vibration    17          0.958              1.031              0.449

 Optimization completed.
    -- Stationary point found.
 Normal termination of Gaussian 16 at Thu Dec 10 09:22:43 2020.

 ----------------------------------------------------------------------
 # B3LYP/6-311++G(d,p) empiricaldispersion=gd3bj scf=xqc pop=npa geom=c
 heck
 ----------------------------------------------------------------------

 -------------------------------------
 CID_5305712_JID_4054_Energie_neutraal
 -------------------------------------
 Structure from the checkpoint file:  "JID_4054.chk"
 Charge =  0 Multiplicity = 1

 SCF Done:  E(RB3LYP) =  -631.232248772     A.U. after   15 cycles
 Normal termination of Gaussian 16 at Thu Dec 10 09:25:10 2020.

 ----------------------------------------------------------------------
 # B3LYP/6-311++G(d,p) empiricaldispersion=gd3bj scf=xqc pop=npa geom=c
 heck
 ----------------------------------------------------------------------

 -----------------------------------
 CID_5305712_JID_4054_Energie_kation
 -----------------------------------
 Structure from the checkpoint file:  "JID_4054.chk"
 Charge =  1 Multiplicity = 2

 SCF Done:  E(UB3LYP) =  -630.944221647     A.U. after   24 cycles
 Normal termination of Gaussian 16 at Thu Dec 10 09:30:53 2020.
 Gaussian 16:  ES64L-G16RevA.03 25-Dec-2016

 ----------------------------------------------------------------------
 # B3LYP/6-311++G(d,p) empiricaldispersion=gd3bj scf=xqc pop=npa geom=c
 heck
 ----------------------------------------------------------------------

 ----------------------------------
 CID_5305712_JID_4054_Energie_anion
 ----------------------------------
 Structure from the checkpoint file:  "JID_4054.chk"
 Charge = -1 Multiplicity = 2

                         Standard orientation:
 ---------------------------------------------------------------------
 Center     Atomic      Atomic             Coordinates (Angstroms)
 Number     Number       Type             X           Y           Z
 ---------------------------------------------------------------------
      1          6           0       -0.133291    2.680032   -0.519811
      2          6           0        1.101263    2.321191    0.315093
      3          6           0        1.384165    0.843344    0.192346
      4          6           0        0.306071   -0.038352    0.023115
      5          6           0        0.547144   -1.410872   -0.151033
      6          6           0        1.844597   -1.909856   -0.148478
      7          6           0        2.917648   -1.033926    0.016188
      8          6           0        2.684052    0.329971    0.182062
      9          8           0       -0.496939   -2.270504   -0.376524
     10          6           0       -1.705543   -1.901222    0.281354
     11          6           0       -2.085901   -0.438271    0.099493
     12          8           0       -3.251970   -0.069617    0.124474
     13          7           0       -1.028777    0.427011   -0.025728
     14          6           0       -1.336746    1.865643   -0.061005
     15          1           0        0.071070    2.479181   -1.578392
     16          1           0       -0.375936    3.743897   -0.427840
     17          1           0        1.974596    2.896316   -0.010217
     18          1           0        0.918980    2.592010    1.365582
     19          1           0        1.989521   -2.976186   -0.285689
     20          1           0        3.933072   -1.417881    0.014200
     21          1           0        3.518313    1.016347    0.298816
     22          1           0       -1.629858   -2.109660    1.360637
     23          1           0       -2.499564   -2.518159   -0.138753
     24          1           0       -1.651358    2.180850    0.942479
     25          1           0       -2.196873    1.999086   -0.720266
 ---------------------------------------------------------------------

 SCF Done:  E(UB3LYP) =  -631.218537983     A.U. after   33 cycles
 SCF Done:  E(UB3LYP) =  -631.218537983     a.u. after    1 cycles

 The electronic state is 2-A.
 Alpha  occ. eigenvalues --  -19.06469 -19.00364 -14.26508 -10.18284 -10.14608
 Alpha  occ. eigenvalues --  -10.13668 -10.11934 -10.10868 -10.08249 -10.07285
 Alpha  occ. eigenvalues --  -10.07283 -10.07227 -10.07139 -10.06909  -0.98825
 Alpha  occ. eigenvalues --   -0.95218  -0.86284  -0.75836  -0.70768  -0.67552
 Alpha  occ. eigenvalues --   -0.65981  -0.61469  -0.58311  -0.53968  -0.53818
 Alpha  occ. eigenvalues --   -0.47184  -0.46412  -0.44021  -0.41289  -0.40868
 Alpha  occ. eigenvalues --   -0.39238  -0.36870  -0.35844  -0.34758  -0.33782
 Alpha  occ. eigenvalues --   -0.33117  -0.32352  -0.30830  -0.30060  -0.29082
 Alpha  occ. eigenvalues --   -0.27919  -0.26923  -0.24947  -0.24139  -0.23278
 Alpha  occ. eigenvalues --   -0.22521  -0.20770  -0.16937  -0.13792  -0.11674
 Alpha  occ. eigenvalues --    0.04639
 Alpha virt. eigenvalues --    0.06847   0.07171   0.07482   0.08330   0.08561
 Alpha virt. eigenvalues --    0.09165   0.09584   0.10311   0.10405   0.11318
 Alpha virt. eigenvalues --    0.11755   0.12796   0.13036   0.14124   0.14905

  Beta  occ. eigenvalues --  -19.06467 -19.00341 -14.26515 -10.18261 -10.14594
  Beta  occ. eigenvalues --  -10.13679 -10.11905 -10.10849 -10.08211 -10.07251
  Beta  occ. eigenvalues --  -10.07247 -10.07187 -10.07106 -10.06902  -0.98818
  Beta  occ. eigenvalues --   -0.95181  -0.86263  -0.75778  -0.70709  -0.67504
  Beta  occ. eigenvalues --   -0.65911  -0.61414  -0.58251  -0.53926  -0.53730
  Beta  occ. eigenvalues --   -0.47118  -0.46353  -0.43972  -0.41238  -0.40823
  Beta  occ. eigenvalues --   -0.39199  -0.36824  -0.35794  -0.34718  -0.33736
  Beta  occ. eigenvalues --   -0.33062  -0.32300  -0.30751  -0.29995  -0.29021
  Beta  occ. eigenvalues --   -0.27872  -0.26868  -0.24873  -0.24085  -0.23219
  Beta  occ. eigenvalues --   -0.22467  -0.20662  -0.16908  -0.13621  -0.11587
  Beta virt. eigenvalues --    0.06911   0.07595   0.07772   0.07965   0.08751
  Beta virt. eigenvalues --    0.09139   0.09649   0.10109   0.10524   0.11019
  Beta virt. eigenvalues --    0.11601   0.12242   0.13157   0.13440   0.14279

 Mulliken charges and spin densities:
               1          2
     1  C   -0.269954  -0.057579
     2  C    1.612089  -2.063349
     3  C   -0.673628   1.339178
     4  C    0.529235  -0.503560
     5  C   -0.466989   0.048766
     6  C   -0.082984   0.240906
     7  C    0.873638  -1.314673
     8  C   -0.246808  -0.222695
     9  O   -0.131407   0.007611
    10  C    0.612229  -0.938708
    11  C   -0.351025   0.506695
    12  O   -0.376590   0.030995
    13  N   -0.011480   0.158312
    14  C    0.645275  -0.870864
    15  H    0.049552   0.105176
    16  H   -0.703854   0.891504
    17  H   -0.553429   0.722179
    18  H   -0.194163   0.365877
    19  H   -0.133159   0.309849
    20  H   -0.445205   0.602214
    21  H   -0.524931   0.684892
    22  H   -0.105428   0.298173
    23  H    0.105063   0.090786
    24  H   -0.203042   0.416975
    25  H    0.046995   0.151341
 Sum of Mulliken charges =  -1.00000   1.00000

 Dipole moment (field-independent basis, Debye):
    X=             -2.4029    Y=             -5.3384    Z=             -1.2283  Tot=              5.9817
 Quadrupole moment (field-independent basis, Debye-Ang):
   XX=           -141.6711   YY=           -141.2679   ZZ=           -107.9978
   XY=              0.5383   XZ=              0.1629   YZ=             -3.6948

 Summary of Natural Population Analysis:

                                       Natural Population
                Natural  -----------------------------------------------
    Atom  No    Charge         Core      Valence    Rydberg      Total
 -----------------------------------------------------------------------
      C    1   -0.19323      0.99963     2.18472    0.00887     3.19323
      C    2   -0.19644      0.99960     2.18716    0.00967     3.19644
      C    3   -0.01256      0.99950     2.00249    0.01056     3.01256
      C    4    0.05965      0.99939     1.93009    0.01087     2.94035
      C    5    0.14428      0.99934     1.84303    0.01335     2.85572
      C    6   -0.11451      0.99952     2.10520    0.00979     3.11451
      C    7   -0.09614      0.99957     2.08677    0.00980     3.09614
      C    8   -0.10305      0.99952     2.09332    0.01021     3.10305
      O    9   -0.27679      0.99987     3.26727    0.00965     4.27679
      C   10   -0.04401      0.99954     2.03360    0.01087     3.04401
      C   11    0.33558      0.99965     1.64334    0.02142     2.66442
      O   12   -0.31614      0.99988     3.31032    0.00593     4.31614
      N   13   -0.23748      0.99960     2.72822    0.00966     3.73748
      C   14   -0.08141      0.99961     2.07010    0.01171     3.08141
      H   15    0.09739      0.00000     0.40123    0.00137     0.40261
      H   16    0.10990      0.00000     0.38676    0.00335     0.39010
      H   17    0.10783      0.00000     0.39011    0.00206     0.39217
      H   18    0.10731      0.00000     0.38944    0.00324     0.39269
      H   19    0.10457      0.00000     0.39407    0.00135     0.39543
      H   20    0.10073      0.00000     0.39805    0.00122     0.39927
      H   21    0.10302      0.00000     0.39547    0.00151     0.39698
      H   22    0.09202      0.00000     0.40597    0.00201     0.40798
      H   23    0.10220      0.00000     0.39635    0.00145     0.39780
      H   24    0.09843      0.00000     0.40019    0.00138     0.40157
      H   25    0.10883      0.00000     0.39004    0.00113     0.39117
 =======================================================================
   * Total *    0.00000     13.99423    35.83332    0.17246    50.00000

 Normal termination of Gaussian 16 at Thu Dec 10 09:39:25 2020.
