 Gaussian 16, Revision A.03,

 -----------------------------------------------------------
 # opt freq B3LYP/6-31G(d) empiricaldispersion=gd3bj scf=xqc
 -----------------------------------------------------------

 ------------------------------
 CID_65610280_JID_8540_neutraal
 ------------------------------
 Symbolic Z-matrix:
 Charge =  0 Multiplicity = 1

 SCF Done:  E(RB3LYP) =  -838.842735333     A.U. after   14 cycles
 SCF Done:  E(RB3LYP) =  -838.845367108     A.U. after   12 cycles
 SCF Done:  E(RB3LYP) =  -838.844567276     A.U. after   13 cycles
 SCF Done:  E(RB3LYP) =  -838.847436260     A.U. after   12 cycles
 SCF Done:  E(RB3LYP) =  -838.848385071     A.U. after   12 cycles
 SCF Done:  E(RB3LYP) =  -838.848479369     A.U. after   11 cycles
 SCF Done:  E(RB3LYP) =  -838.848376699     A.U. after   11 cycles
 SCF Done:  E(RB3LYP) =  -838.848774952     A.U. after   11 cycles
 SCF Done:  E(RB3LYP) =  -838.848826388     A.U. after   10 cycles
 SCF Done:  E(RB3LYP) =  -838.848826642     A.U. after   11 cycles
 SCF Done:  E(RB3LYP) =  -838.849036827     A.U. after   10 cycles
 SCF Done:  E(RB3LYP) =  -838.849036260     A.U. after   10 cycles
 SCF Done:  E(RB3LYP) =  -838.849037964     A.U. after    9 cycles
 SCF Done:  E(RB3LYP) =  -838.849038168     A.U. after    7 cycles
 SCF Done:  E(RB3LYP) =  -838.849038233     A.U. after    7 cycles
 Optimization completed.
    -- Stationary point found.
 Normal termination of Gaussian 16 at Fri Dec 11 21:13:25 2020.

 --------------------------------------------------------------------
 #N Geom=AllCheck Guess=TCheck SCRF=Check GenChk RB3LYP/6-31G(d) Freq
 --------------------------------------------------------------------

 Structure from the checkpoint file:  "JID_8540.chk"
 ------------------------------
 CID_65610280_JID_8540_neutraal
 ------------------------------
 Charge =  0 Multiplicity = 1

 SCF Done:  E(RB3LYP) =  -838.849038233     A.U. after    1 cycles

  Exact polarizability: 156.081  -9.149 155.170   4.261   5.826 130.845
 Approx polarizability: 218.156 -19.335 229.087   9.454  10.926 207.877

                      1                      2                      3
                      A                      A                      A
 Frequencies --     23.6163                42.2092                62.2624
 Red. masses --      4.4664                12.5205                 2.7786
 Frc consts  --      0.0015                 0.0131                 0.0063
 IR Inten    --      1.0713                 0.7816                 0.2963

                      4                      5                      6
                      A                      A                      A
 Frequencies --     66.6059                68.8378               115.2605
 Red. masses --      3.9137                 4.3183                 3.2675
 Frc consts  --      0.0102                 0.0121                 0.0256
 IR Inten    --      0.7139                 1.3586                 0.8024

                      7                      8                      9
                      A                      A                      A
 Frequencies --    138.1681               151.1020               167.4159
 Red. masses --      4.3903                 4.4069                 3.7105
 Frc consts  --      0.0494                 0.0593                 0.0613
 IR Inten    --      0.4066                 0.4983                 0.0542

                     10                     11                     12
                      A                      A                      A
 Frequencies --    203.0630               245.3913               250.0249
 Red. masses --      2.4688                 1.8984                 1.9811
 Frc consts  --      0.0600                 0.0674                 0.0730
 IR Inten    --      1.3321                 2.0419                 0.7341

                     13                     14                     15
                      A                      A                      A
 Frequencies --    262.6382               280.0194               300.8495
 Red. masses --      1.3338                 2.0856                 1.9916
 Frc consts  --      0.0542                 0.0964                 0.1062
 IR Inten    --      0.8490                 0.0328                 0.8676

                     16                     17                     18
                      A                      A                      A
 Frequencies --    327.4422               350.6861               379.4596
 Red. masses --      3.0061                 4.0316                 2.2901
 Frc consts  --      0.1899                 0.2921                 0.1943
 IR Inten    --      1.7388                 5.2492                 3.7067

                     19                     20                     21
                      A                      A                      A
 Frequencies --    389.6383               407.3622               437.2178
 Red. masses --      2.4083                 2.4907                 2.2675
 Frc consts  --      0.2154                 0.2435                 0.2554
 IR Inten    --      4.1890                 1.1560                 5.0454

                     22                     23                     24
                      A                      A                      A
 Frequencies --    444.3778               483.1304               501.1325
 Red. masses --      3.3921                 3.0194                 4.1931
 Frc consts  --      0.3947                 0.4152                 0.6204
 IR Inten    --      3.5031                 7.2298                 4.0627

                     25                     26                     27
                      A                      A                      A
 Frequencies --    519.9906               616.3598               632.6925
 Red. masses --      2.1008                 1.2274                 4.6076
 Frc consts  --      0.3347                 0.2747                 1.0867
 IR Inten    --      3.5128                85.0850                 7.9434

                     28                     29                     30
                      A                      A                      A
 Frequencies --    652.0321               689.1839               707.1077
 Red. masses --      3.2404                 4.3411                 3.9060
 Frc consts  --      0.8117                 1.2149                 1.1507
 IR Inten    --     36.2938                11.2490                 2.2259

                     31                     32                     33
                      A                      A                      A
 Frequencies --    726.5247               775.5772               792.7790
 Red. masses --      3.1152                 4.6787                 5.1439
 Frc consts  --      0.9688                 1.6582                 1.9048
 IR Inten    --      4.8253                30.5856                 4.6455

                     34                     35                     36
                      A                      A                      A
 Frequencies --    802.1412               822.8570               865.1557
 Red. masses --      1.2159                 2.9466                 2.0729
 Frc consts  --      0.4609                 1.1755                 0.9141
 IR Inten    --      0.4445                 4.5651                16.0290

                     37                     38                     39
                      A                      A                      A
 Frequencies --    883.6721               892.9009               906.7071
 Red. masses --      1.6909                 1.3717                 1.9168
 Frc consts  --      0.7779                 0.6443                 0.9285
 IR Inten    --      1.1943                 6.1468                 6.6045

                     40                     41                     42
                      A                      A                      A
 Frequencies --    909.6172               967.5780               977.3034
 Red. masses --      2.5507                 2.1554                 1.7589
 Frc consts  --      1.2434                 1.1889                 0.9898
 IR Inten    --      1.0515                 4.9165                 9.9521

                     43                     44                     45
                      A                      A                      A
 Frequencies --    988.9705              1000.5150              1029.7037
 Red. masses --      2.7295                 5.8568                 2.2848
 Frc consts  --      1.5729                 3.4543                 1.4273
 IR Inten    --      5.8341                 6.7893                13.9205

                     46                     47                     48
                      A                      A                      A
 Frequencies --   1043.6030              1050.9202              1061.7966
 Red. masses --      1.8978                 1.9662                 2.3037
 Frc consts  --      1.2178                 1.2795                 1.5302
 IR Inten    --      1.1187                37.5294                 6.5671

                     49                     50                     51
                      A                      A                      A
 Frequencies --   1116.9056              1123.7811              1133.5818
 Red. masses --      2.0112                 2.3252                 2.2954
 Frc consts  --      1.4782                 1.7301                 1.7378
 IR Inten    --     10.1281               140.3504                59.1030

                     52                     53                     54
                      A                      A                      A
 Frequencies --   1159.4972              1178.0603              1208.8424
 Red. masses --      2.1897                 1.8428                 1.9288
 Frc consts  --      1.7345                 1.5068                 1.6607
 IR Inten    --     58.9991                 5.6566                32.7918

                     55                     56                     57
                      A                      A                      A
 Frequencies --   1217.9896              1224.7737              1238.2951
 Red. masses --      2.2031                 1.9777                 1.8814
 Frc consts  --      1.9256                 1.7479                 1.6997
 IR Inten    --     19.0142                41.2797                13.2897

                     58                     59                     60
                      A                      A                      A
 Frequencies --   1250.3745              1282.4638              1288.1047
 Red. masses --      1.3848                 3.1561                 1.8643
 Frc consts  --      1.2756                 3.0584                 1.8225
 IR Inten    --      7.1098                20.4221                 5.9212

                     61                     62                     63
                      A                      A                      A
 Frequencies --   1318.7755              1334.2774              1343.5235
 Red. masses --      3.3438                 1.3548                 1.6476
 Frc consts  --      3.4264                 1.4211                 1.7522
 IR Inten    --     29.0685                 1.4631                10.8048

                     64                     65                     66
                      A                      A                      A
 Frequencies --   1358.2061              1375.3998              1385.1908
 Red. masses --      2.1955                 1.4062                 1.6262
 Frc consts  --      2.3863                 1.5673                 1.8384
 IR Inten    --     19.6307                 8.4693                 8.1780

                     67                     68                     69
                      A                      A                      A
 Frequencies --   1392.9314              1405.2576              1411.1247
 Red. masses --      1.4828                 1.3922                 1.3255
 Frc consts  --      1.6951                 1.6199                 1.5551
 IR Inten    --      0.3524                45.1166                20.6561

                     70                     71                     72
                      A                      A                      A
 Frequencies --   1415.4576              1428.8103              1437.8346
 Red. masses --      1.3495                 1.3446                 1.8628
 Frc consts  --      1.5930                 1.6173                 2.2690
 IR Inten    --     10.4343                 8.1227                11.2499

                     73                     74                     75
                      A                      A                      A
 Frequencies --   1438.2494              1441.7253              1446.7653
 Red. masses --      1.8433                 1.3170                 1.3868
 Frc consts  --      2.2465                 1.6129                 1.7102
 IR Inten    --      7.9949                13.0831                10.0469

                     76                     77                     78
                      A                      A                      A
 Frequencies --   1486.6603              1503.7661              1508.7804
 Red. masses --      1.1086                 1.0848                 1.2414
 Frc consts  --      1.4436                 1.4453                 1.6650
 IR Inten    --      9.6588                 3.1049                 7.1055

                     79                     80                     81
                      A                      A                      A
 Frequencies --   1509.4310              1513.1148              1519.1538
 Red. masses --      2.0343                 1.1117                 1.1191
 Frc consts  --      2.7308                 1.4996                 1.5217
 IR Inten    --     27.3562                 6.0406                 8.1976

                     82                     83                     84
                      A                      A                      A
 Frequencies --   1523.9552              1528.5802              1537.2745
 Red. masses --      1.1326                 1.0989                 1.0738
 Frc consts  --      1.5497                 1.5129                 1.4952
 IR Inten    --     10.6625                 9.5049                 8.9913

                     85                     86                     87
                      A                      A                      A
 Frequencies --   1542.3386              1547.2955              1558.1657
 Red. masses --      1.0827                 1.0625                 4.5905
 Frc consts  --      1.5174                 1.4988                 6.5665
 IR Inten    --     13.2828                15.6150                15.6543

                     88                     89                     90
                      A                      A                      A
 Frequencies --   1839.7121              2967.3246              2970.7173
 Red. masses --     10.0023                 1.0730                 1.0739
 Frc consts  --     19.9457                 5.5663                 5.5838
 IR Inten    --    274.1255                28.2639               121.5989

                     91                     92                     93
                      A                      A                      A
 Frequencies --   3044.1862              3051.1098              3057.5395
 Red. masses --      1.0638                 1.0641                 1.0641
 Frc consts  --      5.8082                 5.8366                 5.8612
 IR Inten    --     42.8550                17.6311                45.6877

                     94                     95                     96
                      A                      A                      A
 Frequencies --   3066.6550              3069.7164              3092.7133
 Red. masses --      1.0367                 1.0500                 1.0667
 Frc consts  --      5.7445                 5.8294                 6.0115
 IR Inten    --     12.3594                21.5733                19.5686

                     97                     98                     99
                      A                      A                      A
 Frequencies --   3094.8598              3097.0373              3108.5938
 Red. masses --      1.0996                 1.0949                 1.0936
 Frc consts  --      6.2054                 6.1878                 6.2262
 IR Inten    --     19.7544                 8.3850                43.0851

                    100                    101                    102
                      A                      A                      A
 Frequencies --   3114.8295              3116.4659              3135.7465
 Red. masses --      1.0959                 1.0908                 1.1001
 Frc consts  --      6.2646                 6.2422                 6.3735
 IR Inten    --     21.0987                33.4309                23.3690

                    103                    104                    105
                      A                      A                      A
 Frequencies --   3138.3244              3153.0331              3160.1349
 Red. masses --      1.1033                 1.0882                 1.1026
 Frc consts  --      6.4021                 6.3742                 6.4877
 IR Inten    --     16.6283                10.7427                14.8329

                    106                    107                    108
                      A                      A                      A
 Frequencies --   3198.1178              3272.8138              3685.5323
 Red. masses --      1.1000                 1.0971                 1.0641
 Frc consts  --      6.6285                 6.9234                 8.5159
 IR Inten    --      5.9727                 8.7361                51.6228

 - Thermochemistry -
 -------------------
 Temperature   298.150 Kelvin.  Pressure   1.00000 Atm.
 Atom     1 has atomic number  6 and mass  12.00000

 Molecular mass:   252.15863 amu.
 Principal axes and moments of inertia in atomic units:
                           1         2         3
     Eigenvalues --  2979.378895212.107546520.83281
           X            0.99880  -0.04812  -0.00911
           Y            0.04821   0.99878   0.01055
           Z            0.00859  -0.01097   0.99990
 This molecule is an asymmetric top.
 Rotational symmetry number  1.
 Warning -- assumption of classical behavior for rotation
           may cause significant error
 Rotational temperatures (Kelvin)      0.02907     0.01662     0.01328
 Rotational constants (GHZ):           0.60574     0.34626     0.27677
 Zero-point vibrational energy     864203.1 (Joules/Mol)
                                  206.54950 (Kcal/Mol)
 Warning -- explicit consideration of  26 degrees of freedom as
           vibrations may cause significant error
 Vibrational temperatures:     33.98    60.73    89.58    95.83    99.04
          (Kelvin)            165.83   198.79   217.40   240.87   292.16
                              353.06   359.73   377.88   402.89   432.86
                              471.12   504.56   545.96   560.60   586.10
                              629.06   639.36   695.12   721.02   748.15
                              886.80   910.30   938.13   991.58  1017.37
                             1045.31  1115.88  1140.63  1154.10  1183.91
                             1244.77  1271.41  1284.69  1304.55  1308.74
                             1392.13  1406.12  1422.91  1439.52  1481.51
                             1501.51  1512.04  1527.69  1606.98  1616.87
                             1630.97  1668.26  1694.97  1739.25  1752.42
                             1762.18  1781.63  1799.01  1845.18  1853.30
                             1897.42  1919.73  1933.03  1954.16  1978.89
                             1992.98  2004.12  2021.85  2030.29  2036.53
                             2055.74  2068.72  2069.32  2074.32  2081.57
                             2138.97  2163.58  2170.80  2171.73  2177.03
                             2185.72  2192.63  2199.29  2211.80  2219.08
                             2226.21  2241.85  2646.94  4269.32  4274.20
                             4379.91  4389.87  4399.12  4412.23  4416.64
                             4449.72  4452.81  4455.95  4472.57  4481.54
                             4483.90  4511.64  4515.35  4536.51  4546.73
                             4601.38  4708.85  5302.66

 Zero-point correction=                           0.329158 (Hartree/Particle)
 Thermal correction to Energy=                    0.346553
 Thermal correction to Enthalpy=                  0.347497
 Thermal correction to Gibbs Free Energy=         0.283188
 Sum of electronic and zero-point Energies=           -838.519881
 Sum of electronic and thermal Energies=              -838.502486
 Sum of electronic and thermal Enthalpies=            -838.501541
 Sum of electronic and thermal Free Energies=         -838.565851

                     E (Thermal)             CV                S
                      KCal/Mol        Cal/Mol-Kelvin    Cal/Mol-Kelvin
 Total                  217.465             66.489            135.350
 Electronic               0.000              0.000              0.000
 Translational            0.889              2.981             42.475
 Rotational               0.889              2.981             32.982
 Vibrational            215.688             60.528             59.894
 Vibration     1          0.593              1.985              6.304
 Vibration     2          0.595              1.980              5.153
 Vibration     3          0.597              1.972              4.384
 Vibration     4          0.598              1.970              4.251
 Vibration     5          0.598              1.969              4.186
 Vibration     6          0.608              1.937              3.178
 Vibration     7          0.614              1.915              2.829
 Vibration     8          0.619              1.901              2.658
 Vibration     9          0.624              1.883              2.464
 Vibration    10          0.639              1.836              2.105
 Vibration    11          0.660              1.770              1.763
 Vibration    12          0.663              1.763              1.730
 Vibration    13          0.670              1.741              1.644
 Vibration    14          0.680              1.711              1.534
 Vibration    15          0.693              1.672              1.412
 Vibration    16          0.711              1.621              1.273
 Vibration    17          0.728              1.574              1.163
 Vibration    18          0.749              1.514              1.041
 Vibration    19          0.758              1.492              1.002
 Vibration    20          0.772              1.454              0.936
 Vibration    21          0.798              1.389              0.835
 Vibration    22          0.804              1.373              0.813
 Vibration    23          0.839              1.287              0.702
 Vibration    24          0.857              1.247              0.655
 Vibration    25          0.875              1.206              0.610
 Vibration    26          0.976              0.997              0.422

 Optimization completed.
    -- Stationary point found.
 Normal termination of Gaussian 16 at Fri Dec 11 21:32:51 2020.

 ----------------------------------------------------------------------
 # B3LYP/6-311++G(d,p) empiricaldispersion=gd3bj scf=xqc pop=npa geom=c
 heck
 ----------------------------------------------------------------------

 --------------------------------------
 CID_65610280_JID_8540_Energie_neutraal
 --------------------------------------
 Structure from the checkpoint file:  "JID_8540.chk"
 Charge =  0 Multiplicity = 1

 SCF Done:  E(RB3LYP) =  -839.086476273     A.U. after   15 cycles
 Normal termination of Gaussian 16 at Fri Dec 11 21:40:00 2020.

 ----------------------------------------------------------------------
 # B3LYP/6-311++G(d,p) empiricaldispersion=gd3bj scf=xqc pop=npa geom=c
 heck
 ----------------------------------------------------------------------

 ------------------------------------
 CID_65610280_JID_8540_Energie_kation
 ------------------------------------
 Structure from the checkpoint file:  "JID_8540.chk"
 Charge =  1 Multiplicity = 2

 SCF Done:  E(UB3LYP) =  -838.808508800     A.U. after   21 cycles
 Normal termination of Gaussian 16 at Fri Dec 11 21:53:38 2020.
 Gaussian 16:  ES64L-G16RevA.03 25-Dec-2016

 ----------------------------------------------------------------------
 # B3LYP/6-311++G(d,p) empiricaldispersion=gd3bj scf=xqc pop=npa geom=c
 heck
 ----------------------------------------------------------------------

 -----------------------------------
 CID_65610280_JID_8540_Energie_anion
 -----------------------------------
 Structure from the checkpoint file:  "JID_8540.chk"
 Charge = -1 Multiplicity = 2

                         Standard orientation:
 ---------------------------------------------------------------------
 Center     Atomic      Atomic             Coordinates (Angstroms)
 Number     Number       Type             X           Y           Z
 ---------------------------------------------------------------------
      1          6           0       -1.962723    2.767469    0.392448
      2          6           0       -2.742297    1.551890    0.889141
      3          7           0       -2.546005    0.370925    0.052584
      4          6           0       -1.901606   -0.801948    0.291173
      5          7           0       -2.033133   -1.599959   -0.766736
      6          6           0       -2.769105   -0.851377   -1.632046
      7          7           0       -3.110124    0.349922   -1.188135
      8          6           0       -1.102125   -1.134189    1.526334
      9          7           0        0.332871   -1.213346    1.377479
     10          6           0        0.957788   -2.449628    0.930949
     11          6           0        1.488199   -2.375781   -0.505574
     12          6           0        2.415214   -1.163437   -0.662350
     13          6           0        1.701495    0.149037   -0.280300
     14          6           0        1.105333   -0.010488    1.157644
     15          6           0        0.649761    0.521939   -1.343502
     16          6           0        2.715687    1.280881   -0.220889
     17          8           0        3.894558    1.214852   -0.489783
     18          8           0        2.143566    2.448466    0.191710
     19          1           0       -0.882528    2.620633    0.483054
     20          1           0       -2.239136    3.647888    0.982307
     21          1           0       -2.202253    2.962353   -0.656422
     22          1           0       -2.453821    1.288344    1.908774
     23          1           0       -3.815705    1.760694    0.890928
     24          1           0       -3.067470   -1.199517   -2.611602
     25          1           0       -1.334548   -0.406136    2.313347
     26          1           0       -1.452127   -2.105935    1.889751
     27          1           0        1.803388   -2.675831    1.603941
     28          1           0        0.233097   -3.261986    1.034596
     29          1           0        0.641684   -2.322247   -1.197616
     30          1           0        2.042269   -3.293823   -0.737847
     31          1           0        2.797131   -1.087640   -1.686081
     32          1           0        3.292736   -1.289253   -0.015636
     33          1           0        0.493621    0.860548    1.406854
     34          1           0        1.959200   -0.010058    1.857025
     35          1           0       -0.077971   -0.278796   -1.467198
     36          1           0        0.116976    1.437487   -1.082531
     37          1           0        1.138945    0.679933   -2.311666
     38          1           0        2.862539    3.107803    0.196099
 ---------------------------------------------------------------------

 SCF Done:  E(UB3LYP) =  -839.076251023     A.U. after   33 cycles
 SCF Done:  E(UB3LYP) =  -839.076251023     a.u. after    1 cycles

 The electronic state is 2-A.
 Alpha  occ. eigenvalues --  -19.07265 -19.02395 -14.30797 -14.24623 -14.21566
 Alpha  occ. eigenvalues --  -14.21329 -10.21039 -10.14900 -10.12970 -10.12512
 Alpha  occ. eigenvalues --  -10.12491 -10.10897 -10.10595 -10.10450 -10.07698
 Alpha  occ. eigenvalues --  -10.07390 -10.07047 -10.06909  -1.01453  -0.98784
 Alpha  occ. eigenvalues --   -0.92628  -0.84591  -0.81518  -0.75837  -0.73266
 Alpha  occ. eigenvalues --   -0.68405  -0.67187  -0.63343  -0.60394  -0.56992
 Alpha  occ. eigenvalues --   -0.56627  -0.54604  -0.52999  -0.50697  -0.47974
 Alpha  occ. eigenvalues --   -0.44845  -0.43845  -0.41308  -0.40319  -0.39626
 Alpha  occ. eigenvalues --   -0.39019  -0.38235  -0.37506  -0.36420  -0.35347
 Alpha  occ. eigenvalues --   -0.35046  -0.33859  -0.33002  -0.32749  -0.31390
 Alpha  occ. eigenvalues --   -0.31159  -0.30905  -0.29655  -0.28665  -0.28332
 Alpha  occ. eigenvalues --   -0.27842  -0.26663  -0.25925  -0.25341  -0.24301
 Alpha  occ. eigenvalues --   -0.23956  -0.23261  -0.23039  -0.19780  -0.19296
 Alpha  occ. eigenvalues --   -0.18892  -0.17671  -0.11566   0.04176
 Alpha virt. eigenvalues --    0.06368   0.06500   0.07300   0.07917   0.08644
 Alpha virt. eigenvalues --    0.08826   0.08956   0.09137   0.09509   0.09703
 Alpha virt. eigenvalues --    0.10887   0.11175   0.11571   0.11865   0.12378

  Beta  occ. eigenvalues --  -19.07216 -19.02383 -14.30793 -14.24606 -14.21562
  Beta  occ. eigenvalues --  -14.21328 -10.21037 -10.14884 -10.12964 -10.12486
  Beta  occ. eigenvalues --  -10.12452 -10.10876 -10.10584 -10.10443 -10.07694
  Beta  occ. eigenvalues --  -10.07385 -10.07011 -10.06901  -1.01395  -0.98765
  Beta  occ. eigenvalues --   -0.92575  -0.84575  -0.81498  -0.75805  -0.73243
  Beta  occ. eigenvalues --   -0.68382  -0.67143  -0.63303  -0.60371  -0.56940
  Beta  occ. eigenvalues --   -0.56557  -0.54581  -0.52977  -0.50638  -0.47914
  Beta  occ. eigenvalues --   -0.44804  -0.43796  -0.41267  -0.40286  -0.39591
  Beta  occ. eigenvalues --   -0.38990  -0.38209  -0.37479  -0.36395  -0.35310
  Beta  occ. eigenvalues --   -0.35020  -0.33833  -0.32980  -0.32720  -0.31342
  Beta  occ. eigenvalues --   -0.31132  -0.30876  -0.29615  -0.28611  -0.28309
  Beta  occ. eigenvalues --   -0.27814  -0.26629  -0.25905  -0.25321  -0.24287
  Beta  occ. eigenvalues --   -0.23929  -0.23232  -0.23015  -0.19744  -0.19280
  Beta  occ. eigenvalues --   -0.18843  -0.17595  -0.11539
  Beta virt. eigenvalues --    0.06327   0.07225   0.07506   0.07626   0.07984
  Beta virt. eigenvalues --    0.08886   0.09128   0.09236   0.09353   0.09772
  Beta virt. eigenvalues --    0.10219   0.11099   0.11389   0.11770   0.12021

 Mulliken charges and spin densities:
               1          2
     1  C    0.422454  -0.952787
     2  C    0.517778  -0.614796
     3  N    0.195909   0.117931
     4  C   -1.264683   1.225538
     5  N   -0.079122   0.065724
     6  C   -0.205439   0.326463
     7  N   -0.144260  -0.008261
     8  C    1.298334  -2.325966
     9  N   -0.022684   0.250312
    10  C   -0.049360  -0.130927
    11  C   -0.303924  -0.150290
    12  C   -0.273622  -0.218187
    13  C    0.430711   0.068057
    14  C   -0.055515  -0.858317
    15  C   -0.813180   0.069149
    16  C    0.499784  -0.174014
    17  O   -0.271672   0.013234
    18  O   -0.186807   0.072773
    19  H    0.240363  -0.067573
    20  H   -0.605258   0.770470
    21  H    0.120905   0.033931
    22  H   -0.479219   0.606080
    23  H   -0.283104   0.492195
    24  H    0.095927   0.055942
    25  H   -0.334940   0.519833
    26  H    0.013792   0.164922
    27  H    0.016743   0.119541
    28  H    0.011526   0.124377
    29  H    0.197180  -0.056377
    30  H   -0.024517   0.208153
    31  H    0.109023   0.071909
    32  H    0.194171  -0.009079
    33  H    0.113098   0.071785
    34  H   -0.177750   0.400021
    35  H    0.143555   0.012477
    36  H    0.238841  -0.076911
    37  H    0.090346   0.086774
    38  H   -0.375384   0.695896
 Sum of Mulliken charges =  -1.00000   1.00000

 Dipole moment (field-independent basis, Debye):
    X=              0.1386    Y=             -6.6354    Z=             -4.5507  Tot=              8.0471
 Quadrupole moment (field-independent basis, Debye-Ang):
   XX=           -179.4183   YY=           -167.7113   ZZ=           -148.3284
   XY=              0.2077   XZ=              6.9532   YZ=             -9.2649

 Summary of Natural Population Analysis:

                                       Natural Population
                Natural  -----------------------------------------------
    Atom  No    Charge         Core      Valence    Rydberg      Total
 -----------------------------------------------------------------------
      C    1   -0.29013      0.99965     2.28511    0.00537     3.29013
      C    2   -0.08308      0.99961     2.07191    0.01156     3.08308
      N    3   -0.11534      0.99961     2.60129    0.01444     3.61534
      C    4    0.19645      0.99958     1.78734    0.01663     2.80355
      N    5   -0.27643      0.99970     2.76769    0.00905     3.77643
      C    6    0.08712      0.99969     1.89527    0.01792     2.91288
      N    7   -0.15940      0.99973     2.64916    0.01051     3.65940
      C    8   -0.09794      0.99955     2.08518    0.01321     3.09794
      N    9   -0.28107      0.99971     2.76614    0.01521     3.78107
      C   10   -0.07622      0.99961     2.06601    0.01061     3.07622
      C   11   -0.20074      0.99962     2.19398    0.00714     3.20074
      C   12   -0.18832      0.99960     2.17965    0.00907     3.18832
      C   13   -0.08660      0.99951     2.07438    0.01271     3.08660
      C   14   -0.07756      0.99957     2.06384    0.01416     3.07756
      C   15   -0.28947      0.99962     2.28242    0.00744     3.28947
      C   16    0.41720      0.99962     1.55622    0.02697     2.58280
      O   17   -0.30731      0.99987     3.30148    0.00596     4.30731
      O   18   -0.34773      0.99988     3.34029    0.00757     4.34773
      H   19    0.10346      0.00000     0.39485    0.00169     0.39654
      H   20    0.10691      0.00000     0.39120    0.00189     0.39309
      H   21    0.10340      0.00000     0.39538    0.00122     0.39660
      H   22    0.10486      0.00000     0.39213    0.00301     0.39514
      H   23    0.10403      0.00000     0.39430    0.00168     0.39597
      H   24    0.09076      0.00000     0.40848    0.00076     0.40924
      H   25    0.10380      0.00000     0.39439    0.00181     0.39620
      H   26    0.10750      0.00000     0.39136    0.00114     0.39250
      H   27    0.08580      0.00000     0.41303    0.00117     0.41420
      H   28    0.09855      0.00000     0.40050    0.00095     0.40145
      H   29    0.10399      0.00000     0.39455    0.00146     0.39601
      H   30    0.09612      0.00000     0.40292    0.00096     0.40388
      H   31    0.10379      0.00000     0.39529    0.00092     0.39621
      H   32    0.10318      0.00000     0.39557    0.00125     0.39682
      H   33    0.10684      0.00000     0.39074    0.00242     0.39316
      H   34    0.09363      0.00000     0.40479    0.00158     0.40637
      H   35    0.10793      0.00000     0.39041    0.00166     0.39207
      H   36    0.10838      0.00000     0.39013    0.00149     0.39162
      H   37    0.09985      0.00000     0.39934    0.00081     0.40015
      H   38    0.24379      0.00000     0.24425    0.01195     0.25621
 =======================================================================
   * Total *   -0.00000     17.99372    49.75095    0.25533    68.00000

 Normal termination of Gaussian 16 at Fri Dec 11 22:15:05 2020.
