 Gaussian 16, Revision A.03,

 -----------------------------------------------------------
 # opt freq B3LYP/6-31G(d) empiricaldispersion=gd3bj scf=xqc
 -----------------------------------------------------------

 -------------------------------
 CID_128260186_JID_9819_neutraal
 -------------------------------
 Symbolic Z-matrix:
 Charge =  0 Multiplicity = 1

 SCF Done:  E(RB3LYP) =  -896.777563431     A.U. after   15 cycles
 SCF Done:  E(RB3LYP) =  -896.783209942     A.U. after   12 cycles
 SCF Done:  E(RB3LYP) =  -896.784012987     A.U. after   13 cycles
 SCF Done:  E(RB3LYP) =  -896.784740269     A.U. after   12 cycles
 SCF Done:  E(RB3LYP) =  -896.785119172     A.U. after   12 cycles
 SCF Done:  E(RB3LYP) =  -896.785719894     A.U. after   12 cycles
 SCF Done:  E(RB3LYP) =  -896.786129040     A.U. after   13 cycles
 SCF Done:  E(RB3LYP) =  -896.786693679     A.U. after   12 cycles
 SCF Done:  E(RB3LYP) =  -896.787045657     A.U. after   12 cycles
 SCF Done:  E(RB3LYP) =  -896.787294721     A.U. after   12 cycles
 SCF Done:  E(RB3LYP) =  -896.788322001     A.U. after    7 cycles
 SCF Done:  E(RB3LYP) =  -896.788322201     A.U. after    7 cycles
 SCF Done:  E(RB3LYP) =  -896.788322500     A.U. after    9 cycles
 SCF Done:  E(RB3LYP) =  -896.788322722     A.U. after    7 cycles
 SCF Done:  E(RB3LYP) =  -896.788322938     A.U. after    7 cycles
 SCF Done:  E(RB3LYP) =  -896.788323004     A.U. after    6 cycles
 Optimization completed.
    -- Stationary point found.
 Normal termination of Gaussian 16 at Sat Dec 12 10:31:11 2020.

 --------------------------------------------------------------------
 #N Geom=AllCheck Guess=TCheck SCRF=Check GenChk RB3LYP/6-31G(d) Freq
 --------------------------------------------------------------------

 Structure from the checkpoint file:  "JID_9819.chk"
 -------------------------------
 CID_128260186_JID_9819_neutraal
 -------------------------------
 Charge =  0 Multiplicity = 1

 SCF Done:  E(RB3LYP) =  -896.788323004     A.U. after    1 cycles

  Exact polarizability: 177.633 -12.009 147.991  -4.136  -9.421 134.705
 Approx polarizability: 225.598 -20.768 239.582  -7.006 -25.535 215.335

                      1                      2                      3
                      A                      A                      A
 Frequencies --     12.7246                25.8343                38.9184
 Red. masses --      4.9033                 4.6275                 4.1756
 Frc consts  --      0.0005                 0.0018                 0.0037
 IR Inten    --      0.1891                 0.1720                 1.4795

                      4                      5                      6
                      A                      A                      A
 Frequencies --     56.9007                66.6572                87.7554
 Red. masses --      1.0821                 5.1138                 5.2887
 Frc consts  --      0.0021                 0.0134                 0.0240
 IR Inten    --      0.2329                 3.6848                 0.7626

                      7                      8                      9
                      A                      A                      A
 Frequencies --    120.2507               145.8396               178.5541
 Red. masses --      3.7458                 4.7032                 2.9943
 Frc consts  --      0.0319                 0.0589                 0.0562
 IR Inten    --      0.5037                 1.4213                 4.7159

                     10                     11                     12
                      A                      A                      A
 Frequencies --    191.9757               229.2382               260.0602
 Red. masses --      3.2585                 3.8165                 2.8052
 Frc consts  --      0.0708                 0.1182                 0.1118
 IR Inten    --      8.8251                 3.7068                 3.7944

                     13                     14                     15
                      A                      A                      A
 Frequencies --    292.0450               321.0270               330.8972
 Red. masses --      3.3176                 4.6458                 3.0909
 Frc consts  --      0.1667                 0.2821                 0.1994
 IR Inten    --      5.3004                 2.8115                 1.8086

                     16                     17                     18
                      A                      A                      A
 Frequencies --    357.4290               359.4931               393.8946
 Red. masses --      3.2915                 2.9774                 3.1971
 Frc consts  --      0.2478                 0.2267                 0.2923
 IR Inten    --      3.5357                 1.8432                 2.3781

                     19                     20                     21
                      A                      A                      A
 Frequencies --    423.0070               437.3435               464.0741
 Red. masses --      2.6048                 2.1626                 1.4542
 Frc consts  --      0.2746                 0.2437                 0.1845
 IR Inten    --      2.6517                 0.6911                51.2057

                     22                     23                     24
                      A                      A                      A
 Frequencies --    482.2788               494.7358               550.6818
 Red. masses --      2.9708                 2.9622                 3.2169
 Frc consts  --      0.4071                 0.4272                 0.5748
 IR Inten    --      2.1216                 5.6002                16.9685

                     25                     26                     27
                      A                      A                      A
 Frequencies --    567.8920               615.3346               660.1824
 Red. masses --      3.5378                 4.3794                 3.0540
 Frc consts  --      0.6722                 0.9770                 0.7842
 IR Inten    --      2.1505                13.6150                 7.2007

                     28                     29                     30
                      A                      A                      A
 Frequencies --    666.4688               685.2722               699.8531
 Red. masses --      3.0545                 4.3783                 3.7923
 Frc consts  --      0.7994                 1.2114                 1.0944
 IR Inten    --     14.4134                14.2496                25.2242

                     31                     32                     33
                      A                      A                      A
 Frequencies --    725.1010               735.2503               808.3349
 Red. masses --      3.7873                 3.8885                 1.4853
 Frc consts  --      1.1732                 1.2385                 0.5718
 IR Inten    --      3.9153                 4.7342                26.5889

                     34                     35                     36
                      A                      A                      A
 Frequencies --    822.7008               835.3385               859.2328
 Red. masses --      1.5115                 2.5905                 3.4480
 Frc consts  --      0.6028                 1.0650                 1.4998
 IR Inten    --      4.7360                 9.7221                 4.1426

                     37                     38                     39
                      A                      A                      A
 Frequencies --    892.9269               924.3707               946.7882
 Red. masses --      2.1484                 2.7937                 3.5720
 Frc consts  --      1.0092                 1.4064                 1.8865
 IR Inten    --      1.2626                 7.1321                11.7272

                     40                     41                     42
                      A                      A                      A
 Frequencies --    965.1472               986.7579               998.9479
 Red. masses --      2.4725                 2.2998                 1.6233
 Frc consts  --      1.3570                 1.3194                 0.9544
 IR Inten    --     28.2105                 5.1745                 5.6264

                     43                     44                     45
                      A                      A                      A
 Frequencies --   1000.2881              1010.3810              1019.5472
 Red. masses --      2.5701                 2.1040                 2.9539
 Frc consts  --      1.5151                 1.2655                 1.8091
 IR Inten    --      9.3400                 8.9371                22.8662

                     46                     47                     48
                      A                      A                      A
 Frequencies --   1035.4297              1046.4130              1054.3238
 Red. masses --      2.6799                 1.7930                 4.6130
 Frc consts  --      1.6928                 1.1567                 3.0212
 IR Inten    --     13.3049                 0.9219                 1.7900

                     49                     50                     51
                      A                      A                      A
 Frequencies --   1077.2324              1106.6907              1128.2723
 Red. masses --      1.4581                 2.7473                 2.9635
 Frc consts  --      0.9969                 1.9825                 2.2227
 IR Inten    --      2.1065                54.9946                46.0097

                     52                     53                     54
                      A                      A                      A
 Frequencies --   1139.4645              1154.2473              1159.7521
 Red. masses --      2.9237                 2.8195                 2.8852
 Frc consts  --      2.2366                 2.2132                 2.2864
 IR Inten    --     16.1795                64.5507                24.3494

                     55                     56                     57
                      A                      A                      A
 Frequencies --   1175.0103              1184.7307              1186.6931
 Red. masses --      1.6300                 2.1447                 3.8582
 Frc consts  --      1.3259                 1.7736                 3.2012
 IR Inten    --      5.1616                 4.7252                43.3551

                     58                     59                     60
                      A                      A                      A
 Frequencies --   1205.3702              1227.0092              1253.5713
 Red. masses --      2.1961                 3.2860                 1.2275
 Frc consts  --      1.8799                 2.9148                 1.1365
 IR Inten    --     39.2953                11.0547                11.8872

                     61                     62                     63
                      A                      A                      A
 Frequencies --   1264.9868              1271.6089              1289.1241
 Red. masses --      1.2473                 1.1605                 1.4527
 Frc consts  --      1.1760                 1.1056                 1.4224
 IR Inten    --      7.7253                 9.6303                70.8268

                     64                     65                     66
                      A                      A                      A
 Frequencies --   1317.0286              1323.2207              1328.6302
 Red. masses --      1.8663                 1.4751                 1.5023
 Frc consts  --      1.9073                 1.5217                 1.5625
 IR Inten    --     15.7489                23.2036                17.5776

                     67                     68                     69
                      A                      A                      A
 Frequencies --   1345.1683              1364.4924              1381.7372
 Red. masses --      1.2884                 1.2238                 1.3607
 Frc consts  --      1.3735                 1.3424                 1.5306
 IR Inten    --      8.9540                 9.6109                 2.5038

                     70                     71                     72
                      A                      A                      A
 Frequencies --   1399.6184              1414.6030              1420.7977
 Red. masses --      1.3483                 1.3528                 1.3723
 Frc consts  --      1.5562                 1.5949                 1.6322
 IR Inten    --     17.5148                17.2336                14.4265

                     73                     74                     75
                      A                      A                      A
 Frequencies --   1434.8079              1439.9750              1445.7901
 Red. masses --      1.7731                 1.7682                 1.7570
 Frc consts  --      2.1507                 2.1602                 2.1639
 IR Inten    --     37.1668               112.5560                29.3381

                     76                     77                     78
                      A                      A                      A
 Frequencies --   1456.0728              1481.3025              1501.9369
 Red. masses --      1.6785                 3.1347                 1.1300
 Frc consts  --      2.0967                 4.0526                 1.5019
 IR Inten    --      1.0829                15.2032                20.2941

                     79                     80                     81
                      A                      A                      A
 Frequencies --   1506.4728              1510.7689              1513.4908
 Red. masses --      3.8555                 1.0862                 1.0436
 Frc consts  --      5.1553                 1.4607                 1.4085
 IR Inten    --     11.8629                 0.6268                 7.8274

                     82                     83                     84
                      A                      A                      A
 Frequencies --   1519.6343              1522.0449              1525.6705
 Red. masses --      1.1176                 1.1026                 1.1097
 Frc consts  --      1.5205                 1.5050                 1.5219
 IR Inten    --     10.5497                 4.5726                10.9183

                     85                     86                     87
                      A                      A                      A
 Frequencies --   1535.8318              1537.3420              1547.9792
 Red. masses --      1.3180                 1.1013                 1.1053
 Frc consts  --      1.8317                 1.5336                 1.5605
 IR Inten    --      0.5757                 0.9289                13.0183

                     88                     89                     90
                      A                      A                      A
 Frequencies --   1630.2692              1756.0304              2972.6430
 Red. masses --      4.3456                10.0276                 1.0735
 Frc consts  --      6.8048                18.2185                 5.5888
 IR Inten    --     42.3250               273.6793                67.1901

                     91                     92                     93
                      A                      A                      A
 Frequencies --   2990.7673              2999.1819              3018.6922
 Red. masses --      1.0705                 1.0705                 1.0733
 Frc consts  --      5.6417                 5.6734                 5.7627
 IR Inten    --     26.2927                55.8018                86.4904

                     94                     95                     96
                      A                      A                      A
 Frequencies --   3041.2267              3045.6698              3055.2528
 Red. masses --      1.0731                 1.0395                 1.0737
 Frc consts  --      5.8476                 5.6810                 5.9051
 IR Inten    --     53.4333                32.2804                56.3600

                     97                     98                     99
                      A                      A                      A
 Frequencies --   3094.5026              3095.2882              3116.9904
 Red. masses --      1.0598                 1.1016                 1.0935
 Frc consts  --      5.9792                 6.2186                 6.2593
 IR Inten    --      9.8634                17.7328                40.3276

                    100                    101                    102
                      A                      A                      A
 Frequencies --   3119.0044              3140.1032              3140.6925
 Red. masses --      1.0951                 1.0931                 1.1021
 Frc consts  --      6.2770                 6.3502                 6.4049
 IR Inten    --     34.3280                17.4529                17.1927

                    103                    104                    105
                      A                      A                      A
 Frequencies --   3146.6543              3155.8531              3204.1994
 Red. masses --      1.0982                 1.0936                 1.0914
 Frc consts  --      6.4068                 6.4174                 6.6017
 IR Inten    --      8.5195                15.0460                 2.8621

                    106                    107                    108
                      A                      A                      A
 Frequencies --   3211.7298              3277.6288              3661.7818
 Red. masses --      1.0896                 1.0976                 1.0811
 Frc consts  --      6.6221                 6.9472                 8.5405
 IR Inten    --      2.7960                 0.2938                62.5943

 - Thermochemistry -
 -------------------
 Temperature   298.150 Kelvin.  Pressure   1.00000 Atm.
 Atom     1 has atomic number  6 and mass  12.00000

 Molecular mass:   265.14264 amu.
 Principal axes and moments of inertia in atomic units:
                           1         2         3
     Eigenvalues --  2614.038137357.528238284.84271
           X            0.99998  -0.00170  -0.00575
           Y            0.00157   0.99978  -0.02113
           Z            0.00578   0.02112   0.99976
 This molecule is an asymmetric top.
 Rotational symmetry number  1.
 Warning -- assumption of classical behavior for rotation
           may cause significant error
 Rotational temperatures (Kelvin)      0.03313     0.01177     0.01045
 Rotational constants (GHZ):           0.69040     0.24529     0.21784
 Zero-point vibrational energy     851479.4 (Joules/Mol)
                                  203.50846 (Kcal/Mol)
 Warning -- explicit consideration of  26 degrees of freedom as
           vibrations may cause significant error
 Vibrational temperatures:     18.31    37.17    55.99    81.87    95.90
          (Kelvin)            126.26   173.01   209.83   256.90   276.21
                              329.82   374.17   420.19   461.89   476.09
                              514.26   517.23   566.73   608.61   629.24
                              667.70   693.89   711.81   792.31   817.07
                              885.33   949.86   958.90   985.95  1006.93
                             1043.26  1057.86  1163.01  1183.68  1201.87
                             1236.24  1284.72  1329.96  1362.22  1388.63
                             1419.72  1437.26  1439.19  1453.71  1466.90
                             1489.75  1505.55  1516.94  1549.90  1592.28
                             1623.33  1639.44  1660.70  1668.62  1690.58
                             1704.56  1707.39  1734.26  1765.39  1803.61
                             1820.03  1829.56  1854.76  1894.91  1903.82
                             1911.60  1935.40  1963.20  1988.01  2013.74
                             2035.30  2044.21  2064.37  2071.80  2080.17
                             2094.96  2131.26  2160.95  2167.48  2173.66
                             2177.58  2186.41  2189.88  2195.10  2209.72
                             2211.89  2227.20  2345.59  2526.54  4276.97
                             4303.05  4315.15  4343.22  4375.65  4382.04
                             4395.83  4452.30  4453.43  4484.65  4487.55
                             4517.91  4518.76  4527.33  4540.57  4610.13
                             4620.96  4715.78  5268.49

 Zero-point correction=                           0.324311 (Hartree/Particle)
 Thermal correction to Energy=                    0.341580
 Thermal correction to Enthalpy=                  0.342524
 Thermal correction to Gibbs Free Energy=         0.276522
 Sum of electronic and zero-point Energies=           -896.464012
 Sum of electronic and thermal Energies=              -896.446743
 Sum of electronic and thermal Enthalpies=            -896.445799
 Sum of electronic and thermal Free Energies=         -896.511801

                     E (Thermal)             CV                S
                      KCal/Mol        Cal/Mol-Kelvin    Cal/Mol-Kelvin
 Total                  214.345             66.048            138.913
 Electronic               0.000              0.000              0.000
 Translational            0.889              2.981             42.625
 Rotational               0.889              2.981             33.432
 Vibrational            212.567             60.087             62.856
 Vibration     1          0.593              1.987              7.532
 Vibration     2          0.593              1.985              6.126
 Vibration     3          0.594              1.981              5.313
 Vibration     4          0.596              1.975              4.562
 Vibration     5          0.598              1.970              4.250
 Vibration     6          0.601              1.958              3.709
 Vibration     7          0.609              1.932              3.096
 Vibration     8          0.617              1.907              2.726
 Vibration     9          0.629              1.869              2.343
 Vibration    10          0.634              1.851              2.209
 Vibration    11          0.652              1.796              1.885
 Vibration    12          0.668              1.746              1.661
 Vibration    13          0.687              1.689              1.462
 Vibration    14          0.706              1.633              1.305
 Vibration    15          0.713              1.614              1.256
 Vibration    16          0.733              1.560              1.133
 Vibration    17          0.734              1.556              1.124
 Vibration    18          0.761              1.483              0.985
 Vibration    19          0.785              1.420              0.882
 Vibration    20          0.798              1.389              0.835
 Vibration    21          0.822              1.330              0.754
 Vibration    22          0.839              1.289              0.704
 Vibration    23          0.850              1.262              0.671
 Vibration    24          0.906              1.138              0.543
 Vibration    25          0.924              1.101              0.508
 Vibration    26          0.975              0.999              0.424

                           ! Non-Optimized Parameters !
 Normal termination of Gaussian 16 at Sat Dec 12 10:50:52 2020.

 ----------------------------------------------------------------------
 # B3LYP/6-311++G(d,p) empiricaldispersion=gd3bj scf=xqc pop=npa geom=c
 heck
 ----------------------------------------------------------------------

 ---------------------------------------
 CID_128260186_JID_9819_Energie_neutraal
 ---------------------------------------
 Structure from the checkpoint file:  "JID_9819.chk"
 Charge =  0 Multiplicity = 1

 SCF Done:  E(RB3LYP) =  -897.039898785     A.U. after   17 cycles
 Normal termination of Gaussian 16 at Sat Dec 12 10:59:26 2020.

 ----------------------------------------------------------------------
 # B3LYP/6-311++G(d,p) empiricaldispersion=gd3bj scf=xqc pop=npa geom=c
 heck
 ----------------------------------------------------------------------

 -------------------------------------
 CID_128260186_JID_9819_Energie_kation
 -------------------------------------
 Structure from the checkpoint file:  "JID_9819.chk"
 Charge =  1 Multiplicity = 2

 SCF Done:  E(UB3LYP) =  -896.742752546     A.U. after   30 cycles
 Normal termination of Gaussian 16 at Sat Dec 12 11:19:45 2020.
 Gaussian 16:  ES64L-G16RevA.03 25-Dec-2016

 ----------------------------------------------------------------------
 # B3LYP/6-311++G(d,p) empiricaldispersion=gd3bj scf=xqc pop=npa geom=c
 heck
 ----------------------------------------------------------------------

 ------------------------------------
 CID_128260186_JID_9819_Energie_anion
 ------------------------------------
 Structure from the checkpoint file:  "JID_9819.chk"
 Charge = -1 Multiplicity = 2

                         Standard orientation:
 ---------------------------------------------------------------------
 Center     Atomic      Atomic             Coordinates (Angstroms)
 Number     Number       Type             X           Y           Z
 ---------------------------------------------------------------------
      1          6           0       -4.858955   -0.124375    1.714528
      2          6           0       -3.840400   -0.231512    0.626446
      3          6           0       -2.785214   -1.104348    0.431469
      4          6           0       -2.189167   -0.711402   -0.792629
      5          7           0       -2.818841    0.338259   -1.324770
      6          7           0       -3.814323    0.610937   -0.445010
      7          6           0       -0.974498   -1.301311   -1.448735
      8          6           0        0.260101   -1.189196   -0.536448
      9          8           0        0.628269   -2.199154    0.054996
     10          7           0        0.824710    0.054842   -0.377169
     11          6           0        0.410330    1.205363   -1.193888
     12          6           0        0.258531    2.448855   -0.330840
     13          8           0        1.460365    2.735994    0.364786
     14          6           0        1.801773    1.647764    1.203575
     15          6           0        2.038123    0.336270    0.441115
     16          6           0        2.464271   -0.761079    1.441039
     17          6           0        3.437631   -1.652222    0.641597
     18          8           0        3.655132   -0.997089   -0.616277
     19          6           0        3.293343    0.359783   -0.459460
     20          1           0       -4.841262    0.862703    2.192747
     21          1           0       -5.875700   -0.293632    1.338721
     22          1           0       -4.659994   -0.872610    2.485489
     23          1           0       -2.477102   -1.912122    1.079256
     24          1           0       -4.454234    1.362469   -0.653190
     25          1           0       -1.106235   -2.376058   -1.592409
     26          1           0       -0.827670   -0.847431   -2.432008
     27          1           0       -0.544069    1.010648   -1.673050
     28          1           0        1.157317    1.398451   -1.975514
     29          1           0        0.036985    3.318784   -0.955520
     30          1           0       -0.570038    2.300482    0.381165
     31          1           0        1.009426    1.483656    1.953080
     32          1           0        2.719459    1.936121    1.723067
     33          1           0        2.993716   -0.259734    2.260791
     34          1           0        1.626752   -1.315323    1.854092
     35          1           0        3.010217   -2.632087    0.429172
     36          1           0        4.395041   -1.771982    1.169098
     37          1           0        3.132099    0.785746   -1.451176
     38          1           0        4.089124    0.940098    0.040184
 ---------------------------------------------------------------------

 SCF Done:  E(UB3LYP) =  -897.031808985     A.U. after   31 cycles

 The electronic state is 2-A.
 Alpha  occ. eigenvalues --  -19.05032 -19.04261 -19.00075 -14.28182 -14.26451
 Alpha  occ. eigenvalues --  -14.23396 -10.19106 -10.14576 -10.14142 -10.13805
 Alpha  occ. eigenvalues --  -10.13623 -10.12901 -10.12320 -10.11979 -10.10632
 Alpha  occ. eigenvalues --  -10.09660 -10.09110 -10.07739 -10.06566  -0.97247
 Alpha  occ. eigenvalues --   -0.96232  -0.95171  -0.94716  -0.85453  -0.74516
 Alpha  occ. eigenvalues --   -0.72856  -0.70156  -0.67115  -0.66288  -0.64137
 Alpha  occ. eigenvalues --   -0.61179  -0.60773  -0.55216  -0.53902  -0.51080
 Alpha  occ. eigenvalues --   -0.50473  -0.48200  -0.45977  -0.43468  -0.42439
 Alpha  occ. eigenvalues --   -0.42093  -0.40198  -0.39319  -0.39017  -0.38390
 Alpha  occ. eigenvalues --   -0.36769  -0.36241  -0.35928  -0.35067  -0.34308
 Alpha  occ. eigenvalues --   -0.33870  -0.33028  -0.32265  -0.31035  -0.30677
 Alpha  occ. eigenvalues --   -0.30255  -0.29704  -0.29158  -0.28415  -0.27948
 Alpha  occ. eigenvalues --   -0.27275  -0.26987  -0.24950  -0.23533  -0.20394
 Alpha  occ. eigenvalues --   -0.19613  -0.18214  -0.17632  -0.16124  -0.15167
 Alpha  occ. eigenvalues --   -0.14729   0.03937
 Alpha virt. eigenvalues --    0.05381   0.06830   0.07564   0.07662   0.08214
 Alpha virt. eigenvalues --    0.08443   0.08784   0.09457   0.09705   0.09929
 Alpha virt. eigenvalues --    0.10620   0.10818   0.11338   0.11762   0.11999

  Beta  occ. eigenvalues --  -19.05028 -19.04260 -19.00073 -14.28130 -14.26449
  Beta  occ. eigenvalues --  -14.23389 -10.19105 -10.14576 -10.14127 -10.13796
  Beta  occ. eigenvalues --  -10.13608 -10.12897 -10.12317 -10.11980 -10.10633
  Beta  occ. eigenvalues --  -10.09659 -10.09102 -10.07669 -10.06553  -0.97240
  Beta  occ. eigenvalues --   -0.96228  -0.95166  -0.94684  -0.85449  -0.74479
  Beta  occ. eigenvalues --   -0.72839  -0.70126  -0.67096  -0.66270  -0.64108
  Beta  occ. eigenvalues --   -0.61092  -0.60749  -0.55196  -0.53880  -0.51057
  Beta  occ. eigenvalues --   -0.50415  -0.48160  -0.45962  -0.43448  -0.42405
  Beta  occ. eigenvalues --   -0.42070  -0.40176  -0.39303  -0.39002  -0.38371
  Beta  occ. eigenvalues --   -0.36752  -0.36218  -0.35905  -0.35035  -0.34276
  Beta  occ. eigenvalues --   -0.33844  -0.33016  -0.32240  -0.31018  -0.30627
  Beta  occ. eigenvalues --   -0.30222  -0.29675  -0.29130  -0.28398  -0.27927
  Beta  occ. eigenvalues --   -0.27261  -0.26968  -0.24940  -0.23522  -0.20372
  Beta  occ. eigenvalues --   -0.19595  -0.18205  -0.17619  -0.16114  -0.15150
  Beta  occ. eigenvalues --   -0.14714
  Beta virt. eigenvalues --    0.05750   0.06870   0.07069   0.07696   0.08338
  Beta virt. eigenvalues --    0.08553   0.08581   0.09312   0.09629   0.09989
  Beta virt. eigenvalues --    0.10345   0.10873   0.10923   0.11419   0.11953

 Mulliken charges and spin densities:
               1          2
     1  C    2.477086  -2.930596
     2  C   -1.003008   1.085208
     3  C   -0.276675   0.149558
     4  C    0.790268  -0.762272
     5  N   -0.271254   0.287650
     6  N   -0.142259   0.007948
     7  C   -0.548162  -0.431665
     8  C   -0.050750   0.020469
     9  O   -0.234104   0.004481
    10  N    0.479945  -0.034333
    11  C   -0.155288   0.199867
    12  C   -0.073198  -0.436896
    13  O   -0.078296   0.034271
    14  C    0.512046  -0.945090
    15  C   -1.602551   0.911533
    16  C    0.142540  -0.177912
    17  C   -0.453267   0.079540
    18  O   -0.029812   0.005865
    19  C    0.406587  -0.515063
    20  H   -0.621914   0.800775
    21  H   -0.561419   0.733332
    22  H   -0.379421   0.541395
    23  H   -0.043476   0.224798
    24  H   -0.449906   0.791494
    25  H    0.195882   0.017160
    26  H    0.165220   0.028673
    27  H    0.256632  -0.105710
    28  H    0.102336   0.092506
    29  H   -0.070024   0.259725
    30  H    0.046080   0.141091
    31  H   -0.000789   0.173670
    32  H    0.014538   0.155371
    33  H   -0.073198   0.252115
    34  H    0.186459   0.026659
    35  H    0.202960   0.000836
    36  H   -0.001625   0.131405
    37  H    0.166828  -0.005470
    38  H   -0.025007   0.187611
 Sum of Mulliken charges =  -1.00000   1.00000

 Dipole moment (field-independent basis, Debye):
    X=             10.0256    Y=             -2.4865    Z=             -3.2376  Tot=             10.8248
 Quadrupole moment (field-independent basis, Debye-Ang):
   XX=           -231.8557   YY=           -158.1246   ZZ=           -148.1813
   XY=             13.9854   XZ=             11.5736   YZ=             -3.5659

 Summary of Natural Population Analysis:

                                       Natural Population
                Natural  -----------------------------------------------
    Atom  No    Charge         Core      Valence    Rydberg      Total
 -----------------------------------------------------------------------
      C    1   -0.30289      0.99963     2.29716    0.00609     3.30289
      C    2    0.09096      0.99955     1.89707    0.01242     2.90904
      C    3   -0.16221      0.99944     2.15354    0.00923     3.16221
      C    4    0.06888      0.99957     1.91588    0.01566     2.93112
      N    5   -0.17000      0.99969     2.65758    0.01272     3.67000
      N    6   -0.16882      0.99965     2.65532    0.01385     3.66882
      C    7   -0.24245      0.99955     2.23493    0.00796     3.24245
      C    8    0.35714      0.99965     1.61867    0.02454     2.64286
      O    9   -0.32777      0.99988     3.32233    0.00556     4.32777
      N   10   -0.26301      0.99961     2.75136    0.01204     3.76301
      C   11   -0.10458      0.99959     2.09627    0.00873     3.10458
      C   12   -0.01502      0.99958     2.00282    0.01262     3.01502
      O   13   -0.29647      0.99989     3.28781    0.00878     4.29647
      C   14   -0.01239      0.99950     1.99787    0.01502     3.01239
      C   15    0.05035      0.99953     1.93539    0.01472     2.94965
      C   16   -0.21025      0.99959     2.20152    0.00914     3.21025
      C   17   -0.01201      0.99960     2.00007    0.01233     3.01201
      O   18   -0.29851      0.99989     3.29075    0.00786     4.29851
      C   19   -0.01298      0.99952     1.99907    0.01439     3.01298
      H   20    0.11355      0.00000     0.38282    0.00362     0.38645
      H   21    0.11106      0.00000     0.38643    0.00251     0.38894
      H   22    0.10965      0.00000     0.38897    0.00138     0.39035
      H   23    0.11226      0.00000     0.38685    0.00089     0.38774
      H   24    0.20530      0.00000     0.28309    0.01160     0.29470
      H   25    0.11776      0.00000     0.38119    0.00104     0.38224
      H   26    0.11143      0.00000     0.38748    0.00108     0.38857
      H   27    0.12109      0.00000     0.37682    0.00209     0.37891
      H   28    0.08899      0.00000     0.40980    0.00121     0.41101
      H   29    0.09465      0.00000     0.40419    0.00116     0.40535
      H   30    0.08715      0.00000     0.41106    0.00179     0.41285
      H   31    0.08768      0.00000     0.41074    0.00158     0.41232
      H   32    0.09545      0.00000     0.40317    0.00138     0.40455
      H   33    0.09886      0.00000     0.39979    0.00135     0.40114
      H   34    0.12525      0.00000     0.37378    0.00097     0.37475
      H   35    0.10024      0.00000     0.39863    0.00113     0.39976
      H   36    0.07739      0.00000     0.42145    0.00116     0.42261
      H   37    0.09478      0.00000     0.40404    0.00118     0.40522
      H   38    0.07947      0.00000     0.41920    0.00133     0.42053
 =======================================================================
   * Total *    0.00000     18.99292    51.74495    0.26213    71.00000

 Normal termination of Gaussian 16 at Sat Dec 12 11:39:51 2020.
