 Gaussian 16, Revision A.03,

 -----------------------------------------------------------
 # opt freq B3LYP/6-31G(d) empiricaldispersion=gd3bj scf=xqc
 -----------------------------------------------------------

 ------------------------------
 CID_62538804_JID_6658_neutraal
 ------------------------------
 Symbolic Z-matrix:
 Charge =  0 Multiplicity = 1

 SCF Done:  E(RB3LYP) =  -641.494939524     A.U. after   14 cycles
 SCF Done:  E(RB3LYP) =  -641.497488445     A.U. after   11 cycles
 SCF Done:  E(RB3LYP) =  -641.497492778     A.U. after   12 cycles
 SCF Done:  E(RB3LYP) =  -641.498058754     A.U. after   11 cycles
 SCF Done:  E(RB3LYP) =  -641.498127884     A.U. after   10 cycles
 SCF Done:  E(RB3LYP) =  -641.498140001     A.U. after    9 cycles
 SCF Done:  E(RB3LYP) =  -641.498141970     A.U. after    9 cycles
 SCF Done:  E(RB3LYP) =  -641.498142689     A.U. after    7 cycles
 SCF Done:  E(RB3LYP) =  -641.498143052     A.U. after    7 cycles
 SCF Done:  E(RB3LYP) =  -641.498143228     A.U. after    7 cycles
 SCF Done:  E(RB3LYP) =  -641.498143279     A.U. after    7 cycles
 Optimization completed.
    -- Stationary point found.
 Normal termination of Gaussian 16 at Fri Dec 11 00:06:12 2020.

 --------------------------------------------------------------------
 #N Geom=AllCheck Guess=TCheck SCRF=Check GenChk RB3LYP/6-31G(d) Freq
 --------------------------------------------------------------------

 Structure from the checkpoint file:  "JID_6658.chk"
 ------------------------------
 CID_62538804_JID_6658_neutraal
 ------------------------------
 Charge =  0 Multiplicity = 1

 SCF Done:  E(RB3LYP) =  -641.498143279     A.U. after    1 cycles

  Exact polarizability: 212.807   1.138 160.972 -18.191  -1.932 117.908
 Approx polarizability: 265.115   1.179 258.548 -34.340  -2.884 181.776

                      1                      2                      3
                      A                      A                      A
 Frequencies --     26.2826                39.2329                44.2809
 Red. masses --      3.7180                 3.1011                 3.4888
 Frc consts  --      0.0015                 0.0028                 0.0040
 IR Inten    --      0.0821                 0.0207                 0.0478

                      4                      5                      6
                      A                      A                      A
 Frequencies --     68.8764                77.7862               118.3563
 Red. masses --      3.8250                 3.1281                 2.4795
 Frc consts  --      0.0107                 0.0112                 0.0205
 IR Inten    --      0.1160                 0.2223                 0.1909

                      7                      8                      9
                      A                      A                      A
 Frequencies --    135.9774               139.8695               167.7536
 Red. masses --      1.9323                 1.3226                 1.5929
 Frc consts  --      0.0211                 0.0152                 0.0264
 IR Inten    --      0.1230                 0.0894                 0.4721

                     10                     11                     12
                      A                      A                      A
 Frequencies --    172.9682               205.0187               233.1930
 Red. masses --      1.6259                 1.6116                 2.4980
 Frc consts  --      0.0287                 0.0399                 0.0800
 IR Inten    --      0.1242                 0.1662                 1.6774

                     13                     14                     15
                      A                      A                      A
 Frequencies --    259.1667               284.9146               303.7362
 Red. masses --      2.1300                 1.5784                 2.0775
 Frc consts  --      0.0843                 0.0755                 0.1129
 IR Inten    --      0.7890                 7.5360                 3.0953

                     16                     17                     18
                      A                      A                      A
 Frequencies --    306.8008               330.0810               346.9132
 Red. masses --      1.8673                 1.9192                 2.4664
 Frc consts  --      0.1036                 0.1232                 0.1749
 IR Inten    --      6.5320                14.0548                 1.2028

                     19                     20                     21
                      A                      A                      A
 Frequencies --    377.1952               403.8860               437.2811
 Red. masses --      2.0191                 2.1183                 2.6733
 Frc consts  --      0.1693                 0.2036                 0.3012
 IR Inten    --      6.8032                 6.1208                 1.2561

                     22                     23                     24
                      A                      A                      A
 Frequencies --    443.9895               454.0782               468.3917
 Red. masses --      2.5641                 2.8028                 2.4687
 Frc consts  --      0.2978                 0.3405                 0.3191
 IR Inten    --      0.1455                 3.9654                 1.2226

                     25                     26                     27
                      A                      A                      A
 Frequencies --    533.6223               548.7770               563.9293
 Red. masses --      3.4535                 2.6374                 3.9851
 Frc consts  --      0.5794                 0.4680                 0.7467
 IR Inten    --      4.4319                 1.6481                 1.2494

                     28                     29                     30
                      A                      A                      A
 Frequencies --    646.1698               711.6188               728.2108
 Red. masses --      3.1261                 2.3414                 1.7944
 Frc consts  --      0.7690                 0.6986                 0.5607
 IR Inten    --      1.8001                 3.4678                10.7678

                     31                     32                     33
                      A                      A                      A
 Frequencies --    757.0304               767.1773               776.5419
 Red. masses --      2.7624                 3.9177                 1.5779
 Frc consts  --      0.9328                 1.3585                 0.5606
 IR Inten    --      2.2803                 0.5020                 2.7021

                     34                     35                     36
                      A                      A                      A
 Frequencies --    819.2599               842.6013               864.9608
 Red. masses --      2.8047                 1.4409                 1.6050
 Frc consts  --      1.1091                 0.6027                 0.7075
 IR Inten    --      2.9827                24.6881                 9.5049

                     37                     38                     39
                      A                      A                      A
 Frequencies --    889.4161               892.7089               919.0420
 Red. masses --      1.6354                 1.4296                 1.8805
 Frc consts  --      0.7622                 0.6712                 0.9358
 IR Inten    --      1.5857                44.5437                25.8022

                     40                     41                     42
                      A                      A                      A
 Frequencies --    925.9781               947.3482               954.5593
 Red. masses --      1.6436                 2.0078                 1.3611
 Frc consts  --      0.8303                 1.0617                 0.7307
 IR Inten    --     73.3632                53.5624                 3.4195

                     43                     44                     45
                      A                      A                      A
 Frequencies --    976.8791              1010.3441              1028.1638
 Red. masses --      2.0122                 1.6627                 1.4849
 Frc consts  --      1.1314                 1.0000                 0.9248
 IR Inten    --      4.2234                 0.3476                11.9114

                     46                     47                     48
                      A                      A                      A
 Frequencies --   1028.9125              1039.2343              1050.0595
 Red. masses --      1.5885                 1.5521                 2.2840
 Frc consts  --      0.9908                 0.9876                 1.4838
 IR Inten    --      5.2351                24.3616                 3.4102

                     49                     50                     51
                      A                      A                      A
 Frequencies --   1059.5082              1085.3264              1100.6168
 Red. masses --      1.4297                 1.5915                 1.5403
 Frc consts  --      0.9456                 1.1045                 1.0994
 IR Inten    --      5.7535                 0.0235                 5.0980

                     52                     53                     54
                      A                      A                      A
 Frequencies --   1107.6687              1115.9157              1141.0840
 Red. masses --      1.7550                 1.6134                 1.7796
 Frc consts  --      1.2687                 1.1837                 1.3652
 IR Inten    --      5.6013                 0.2574                 0.4726

                     55                     56                     57
                      A                      A                      A
 Frequencies --   1158.2504              1190.4774              1210.8500
 Red. masses --      2.1998                 1.5447                 1.2911
 Frc consts  --      1.7388                 1.2898                 1.1153
 IR Inten    --      0.6170                 2.1441                 1.6799

                     58                     59                     60
                      A                      A                      A
 Frequencies --   1216.4962              1243.3935              1257.0186
 Red. masses --      1.6036                 1.8347                 1.4198
 Frc consts  --      1.3982                 1.6712                 1.3217
 IR Inten    --      0.2325                 1.6859                 8.9899

                     61                     62                     63
                      A                      A                      A
 Frequencies --   1268.2411              1280.4580              1301.0645
 Red. masses --      1.4311                 3.6791                 1.2910
 Frc consts  --      1.3562                 3.5540                 1.2876
 IR Inten    --     11.7257                 0.9097                 7.4108

                     64                     65                     66
                      A                      A                      A
 Frequencies --   1331.6666              1333.2470              1352.5411
 Red. masses --      1.3846                 1.2440                 1.1766
 Frc consts  --      1.4466                 1.3029                 1.2682
 IR Inten    --      1.4661                 5.5407                 8.9318

                     67                     68                     69
                      A                      A                      A
 Frequencies --   1359.4837              1380.3750              1386.7435
 Red. masses --      4.7145                 1.4000                 1.4802
 Frc consts  --      5.1337                 1.5717                 1.6771
 IR Inten    --      1.1783                 8.8291                 3.7648

                     70                     71                     72
                      A                      A                      A
 Frequencies --   1404.2464              1415.2443              1417.6639
 Red. masses --      1.3669                 1.3882                 1.3678
 Frc consts  --      1.5881                 1.6382                 1.6197
 IR Inten    --      6.1825                 5.9224                 4.1591

                     73                     74                     75
                      A                      A                      A
 Frequencies --   1439.0957              1443.4857              1449.4565
 Red. masses --      1.2627                 1.2770                 1.5413
 Frc consts  --      1.5407                 1.5677                 1.9079
 IR Inten    --      0.1570                 6.0489                 0.1363

                     76                     77                     78
                      A                      A                      A
 Frequencies --   1451.1194              1464.4180              1507.0515
 Red. masses --      1.2386                 2.3299                 1.0453
 Frc consts  --      1.5367                 2.9438                 1.3988
 IR Inten    --      0.2042                 2.0497                 0.0073

                     79                     80                     81
                      A                      A                      A
 Frequencies --   1509.0486              1516.8912              1520.4878
 Red. masses --      1.0798                 1.0878                 1.0794
 Frc consts  --      1.4488                 1.4747                 1.4703
 IR Inten    --      1.0573                 4.0831                 0.8468

                     82                     83                     84
                      A                      A                      A
 Frequencies --   1522.4628              1522.6184              1525.1412
 Red. masses --      1.1677                 1.0506                 1.1419
 Frc consts  --      1.5946                 1.4351                 1.5649
 IR Inten    --     16.6738                13.7008                 0.6193

                     85                     86                     87
                      A                      A                      A
 Frequencies --   1530.8936              1531.6268              1535.9183
 Red. masses --      1.0706                 1.0685                 1.0690
 Frc consts  --      1.4783                 1.4768                 1.4858
 IR Inten    --      2.4307                12.5242                 5.4129

                     88                     89                     90
                      A                      A                      A
 Frequencies --   1544.3623              1555.6582              1632.4161
 Red. masses --      1.0788                 2.4013                 5.7787
 Frc consts  --      1.5160                 3.4240                 9.0728
 IR Inten    --      1.7683                19.5162                 2.5951

                     91                     92                     93
                      A                      A                      A
 Frequencies --   1676.2172              1700.1161              3025.0169
 Red. masses --      5.9206                 1.0897                 1.0622
 Frc consts  --      9.8012                 1.8557                 5.7271
 IR Inten    --      4.0121                17.7685                23.4831

                     94                     95                     96
                      A                      A                      A
 Frequencies --   3034.2789              3036.2778              3036.4555
 Red. masses --      1.0682                 1.0623                 1.0413
 Frc consts  --      5.7946                 5.7699                 5.6568
 IR Inten    --     15.5304                57.1538                 4.6296

                     97                     98                     99
                      A                      A                      A
 Frequencies --   3037.8302              3039.9795              3044.2698
 Red. masses --      1.0384                 1.0613                 1.0411
 Frc consts  --      5.6458                 5.7785                 5.6848
 IR Inten    --     52.3407                 4.8765                21.6694

                    100                    101                    102
                      A                      A                      A
 Frequencies --   3050.6512              3052.8252              3058.2455
 Red. masses --      1.0626                 1.0801                 1.0953
 Frc consts  --      5.8263                 5.9307                 6.0359
 IR Inten    --      6.7433                55.3729                42.1601

                    103                    104                    105
                      A                      A                      A
 Frequencies --   3069.0559              3076.7903              3082.6968
 Red. masses --      1.1008                 1.1006                 1.1002
 Frc consts  --      6.1090                 6.1388                 6.1599
 IR Inten    --     31.8763               108.7385                33.8833

                    106                    107                    108
                      A                      A                      A
 Frequencies --   3083.0364              3085.1374              3095.3443
 Red. masses --      1.0995                 1.1001                 1.0978
 Frc consts  --      6.1573                 6.1693                 6.1971
 IR Inten    --     18.7544                 6.1613                72.5547

                    109                    110                    111
                      A                      A                      A
 Frequencies --   3108.8108              3117.3861              3125.5485
 Red. masses --      1.1012                 1.1019                 1.1000
 Frc consts  --      6.2705                 6.3092                 6.3312
 IR Inten    --     49.9583                50.2115                34.3303

                    112                    113                    114
                      A                      A                      A
 Frequencies --   3126.9687              3168.1840              3174.8861
 Red. masses --      1.0997                 1.0892                 1.0873
 Frc consts  --      6.3351                 6.4413                 6.4572
 IR Inten    --      3.1230                26.2990                14.1413

                    115                    116                    117
                      A                      A                      A
 Frequencies --   3196.5532              3448.1216              3533.5396
 Red. masses --      1.0934                 1.0491                 1.0918
 Frc consts  --      6.5824                 7.3488                 8.0315
 IR Inten    --     21.6389                 3.2436                 1.4544

 - Thermochemistry -
 -------------------
 Temperature   298.150 Kelvin.  Pressure   1.00000 Atm.
 Atom     1 has atomic number  6 and mass  12.00000

 Molecular mass:   219.19870 amu.
 Principal axes and moments of inertia in atomic units:
                           1         2         3
     Eigenvalues --  1533.702188291.404348965.73005
           X            0.99998  -0.00519  -0.00280
           Y            0.00515   0.99984  -0.01704
           Z            0.00288   0.01703   0.99985
 This molecule is an asymmetric top.
 Rotational symmetry number  1.
 Warning -- assumption of classical behavior for rotation
           may cause significant error
 Rotational temperatures (Kelvin)      0.05647     0.01045     0.00966
 Rotational constants (GHZ):           1.17672     0.21766     0.20129
 Zero-point vibrational energy     984960.5 (Joules/Mol)
                                  235.41120 (Kcal/Mol)
 Warning -- explicit consideration of  27 degrees of freedom as
           vibrations may cause significant error
 Vibrational temperatures:     37.81    56.45    63.71    99.10   111.92
          (Kelvin)            170.29   195.64   201.24   241.36   248.86
                              294.98   335.51   372.88   409.93   437.01
                              441.42   474.91   499.13   542.70   581.10
                              629.15   638.80   653.32   673.91   767.76
                              789.57   811.37   929.69  1023.86  1047.73
                             1089.20  1103.80  1117.27  1178.73  1212.32
                             1244.49  1279.67  1284.41  1322.30  1332.28
                             1363.02  1373.40  1405.51  1453.66  1479.30
                             1480.38  1495.23  1510.80  1524.40  1561.54
                             1583.54  1593.69  1605.55  1641.77  1666.46
                             1712.83  1742.14  1750.27  1788.97  1808.57
                             1824.72  1842.29  1871.94  1915.97  1918.25
                             1946.00  1955.99  1986.05  1995.21  2020.40
                             2036.22  2039.70  2070.54  2076.85  2085.44
                             2087.84  2106.97  2168.31  2171.18  2182.47
                             2187.64  2190.48  2190.71  2194.34  2202.61
                             2203.67  2209.84  2221.99  2238.25  2348.68
                             2411.70  2446.09  4352.32  4365.65  4368.53
                             4368.78  4370.76  4373.85  4380.03  4389.21
                             4392.33  4400.13  4415.69  4426.81  4435.31
                             4435.80  4438.82  4453.51  4472.89  4485.22
                             4496.97  4499.01  4558.31  4567.95  4599.13
                             4961.08  5083.98

 Zero-point correction=                           0.375152 (Hartree/Particle)
 Thermal correction to Energy=                    0.392973
 Thermal correction to Enthalpy=                  0.393917
 Thermal correction to Gibbs Free Energy=         0.328777
 Sum of electronic and zero-point Energies=           -641.122992
 Sum of electronic and thermal Energies=              -641.105170
 Sum of electronic and thermal Enthalpies=            -641.104226
 Sum of electronic and thermal Free Energies=         -641.169367

                     E (Thermal)             CV                S
                      KCal/Mol        Cal/Mol-Kelvin    Cal/Mol-Kelvin
 Total                  246.594             67.915            137.100
 Electronic               0.000              0.000              0.000
 Translational            0.889              2.981             42.057
 Rotational               0.889              2.981             33.100
 Vibrational            244.817             61.953             61.943
 Vibration     1          0.593              1.985              6.092
 Vibration     2          0.594              1.981              5.297
 Vibration     3          0.595              1.980              5.058
 Vibration     4          0.598              1.969              4.185
 Vibration     5          0.599              1.964              3.946
 Vibration     6          0.609              1.934              3.127
 Vibration     7          0.614              1.917              2.860
 Vibration     8          0.615              1.913              2.806
 Vibration     9          0.624              1.882              2.461
 Vibration    10          0.626              1.876              2.403
 Vibration    11          0.640              1.833              2.088
 Vibration    12          0.654              1.790              1.854
 Vibration    13          0.668              1.747              1.667
 Vibration    14          0.683              1.702              1.504
 Vibration    15          0.695              1.667              1.396
 Vibration    16          0.697              1.661              1.380
 Vibration    17          0.713              1.615              1.260
 Vibration    18          0.725              1.582              1.180
 Vibration    19          0.748              1.519              1.050
 Vibration    20          0.769              1.462              0.948
 Vibration    21          0.798              1.389              0.835
 Vibration    22          0.803              1.374              0.814
 Vibration    23          0.813              1.352              0.784
 Vibration    24          0.826              1.320              0.742
 Vibration    25          0.889              1.176              0.579
 Vibration    26          0.904              1.142              0.547
 Vibration    27          0.920              1.109              0.516

                           ! Non-Optimized Parameters !
 Normal termination of Gaussian 16 at Fri Dec 11 00:20:04 2020.

 ----------------------------------------------------------------------
 # B3LYP/6-311++G(d,p) empiricaldispersion=gd3bj scf=xqc pop=npa geom=c
 heck
 ----------------------------------------------------------------------

 --------------------------------------
 CID_62538804_JID_6658_Energie_neutraal
 --------------------------------------
 Structure from the checkpoint file:  "JID_6658.chk"
 Charge =  0 Multiplicity = 1

 SCF Done:  E(RB3LYP) =  -641.675842502     A.U. after   15 cycles
 Normal termination of Gaussian 16 at Fri Dec 11 00:27:19 2020.

 ----------------------------------------------------------------------
 # B3LYP/6-311++G(d,p) empiricaldispersion=gd3bj scf=xqc pop=npa geom=c
 heck
 ----------------------------------------------------------------------

 ------------------------------------
 CID_62538804_JID_6658_Energie_kation
 ------------------------------------
 Structure from the checkpoint file:  "JID_6658.chk"
 Charge =  1 Multiplicity = 2

 SCF Done:  E(UB3LYP) =  -641.384217889     A.U. after   24 cycles
 Normal termination of Gaussian 16 at Fri Dec 11 00:41:54 2020.
 Gaussian 16:  ES64L-G16RevA.03 25-Dec-2016

 ----------------------------------------------------------------------
 # B3LYP/6-311++G(d,p) empiricaldispersion=gd3bj scf=xqc pop=npa geom=c
 heck
 ----------------------------------------------------------------------

 -----------------------------------
 CID_62538804_JID_6658_Energie_anion
 -----------------------------------
 Structure from the checkpoint file:  "JID_6658.chk"
 Charge = -1 Multiplicity = 2

                         Standard orientation:
 ---------------------------------------------------------------------
 Center     Atomic      Atomic             Coordinates (Angstroms)
 Number     Number       Type             X           Y           Z
 ---------------------------------------------------------------------
      1          6           0        5.354595   -0.654399    1.173852
      2          6           0        4.790105    0.189256    0.027108
      3          6           0        3.782229   -0.560256   -0.857433
      4          6           0        2.538240   -1.088215   -0.123805
      5          6           0        1.741629   -0.030832    0.654065
      6          6           0        1.255443    1.173124   -0.163375
      7          6           0        0.281732    0.781047   -1.315742
      8          6           0       -1.015947    0.178980   -0.836621
      9          6           0       -2.087449    0.998408   -0.456402
     10          6           0       -3.283584    0.483592    0.050120
     11          6           0       -3.427999   -0.911806    0.183877
     12          6           0       -2.366079   -1.733509   -0.203043
     13          6           0       -1.178876   -1.203267   -0.704971
     14          6           0       -4.703125   -1.508986    0.724264
     15          6           0       -4.405023    1.413544    0.441612
     16          7           0        0.714750    2.167917    0.770270
     17          1           0        4.574012   -0.941757    1.886855
     18          1           0        6.120791   -0.102897    1.729939
     19          1           0        5.813876   -1.576469    0.795845
     20          1           0        4.322941    1.093954    0.437100
     21          1           0        5.617118    0.536390   -0.606263
     22          1           0        3.471216    0.100645   -1.677592
     23          1           0        4.290502   -1.410519   -1.333621
     24          1           0        1.889314   -1.583278   -0.857223
     25          1           0        2.837949   -1.874769    0.580185
     26          1           0        0.872482   -0.513881    1.120460
     27          1           0        2.348540    0.365237    1.475749
     28          1           0        2.125440    1.642521   -0.639671
     29          1           0        0.073416    1.688887   -1.897230
     30          1           0        0.789208    0.086583   -1.995879
     31          1           0       -1.991838    2.076202   -0.571043
     32          1           0       -2.472894   -2.811883   -0.110930
     33          1           0       -0.374393   -1.871161   -1.000384
     34          1           0       -4.920650   -1.151024    1.738889
     35          1           0       -5.570103   -1.243355    0.105544
     36          1           0       -4.641839   -2.600619    0.761461
     37          1           0       -4.130261    2.458421    0.269540
     38          1           0       -5.319007    1.208634   -0.130485
     39          1           0       -4.668327    1.306187    1.501786
     40          1           0        0.408966    2.993171    0.254882
     41          1           0       -0.125062    1.789271    1.209162
 ---------------------------------------------------------------------

 SCF Done:  E(UB3LYP) =  -641.662580138     A.U. after   33 cycles
 SCF Done:  E(UB3LYP) =  -641.662580139     a.u. after    1 cycles

 The electronic state is 2-A.
 Alpha  occ. eigenvalues --  -14.19571 -10.10411 -10.08678 -10.08533 -10.08324
 Alpha  occ. eigenvalues --  -10.07781 -10.07569 -10.07561 -10.07540 -10.07461
 Alpha  occ. eigenvalues --  -10.07390 -10.07362 -10.07338 -10.07276 -10.07265
 Alpha  occ. eigenvalues --  -10.06723  -0.79732  -0.76814  -0.71679  -0.69907
 Alpha  occ. eigenvalues --   -0.67169  -0.66584  -0.63363  -0.60546  -0.59274
 Alpha  occ. eigenvalues --   -0.57119  -0.54196  -0.50681  -0.49670  -0.47118
 Alpha  occ. eigenvalues --   -0.44992  -0.40252  -0.39333  -0.38956  -0.37925
 Alpha  occ. eigenvalues --   -0.37508  -0.35326  -0.34898  -0.34239  -0.33865
 Alpha  occ. eigenvalues --   -0.32086  -0.31719  -0.31218  -0.30794  -0.30727
 Alpha  occ. eigenvalues --   -0.30108  -0.29503  -0.28752  -0.27632  -0.26869
 Alpha  occ. eigenvalues --   -0.26069  -0.25620  -0.24752  -0.24205  -0.23707
 Alpha  occ. eigenvalues --   -0.23027  -0.22537  -0.21678  -0.15789  -0.15289
 Alpha  occ. eigenvalues --   -0.13789   0.04029
 Alpha virt. eigenvalues --    0.05389   0.06149   0.06809   0.07384   0.07645
 Alpha virt. eigenvalues --    0.07712   0.08311   0.08905   0.09083   0.09441
 Alpha virt. eigenvalues --    0.09858   0.10322   0.10459   0.10770   0.11082

  Beta  occ. eigenvalues --  -14.19554 -10.10404 -10.08677 -10.08520 -10.08314
  Beta  occ. eigenvalues --  -10.07777 -10.07547 -10.07539 -10.07531 -10.07447
  Beta  occ. eigenvalues --  -10.07383 -10.07346 -10.07323 -10.07258 -10.07229
  Beta  occ. eigenvalues --  -10.06719  -0.79703  -0.76791  -0.71654  -0.69874
  Beta  occ. eigenvalues --   -0.67141  -0.66559  -0.63326  -0.60506  -0.59230
  Beta  occ. eigenvalues --   -0.57074  -0.54158  -0.50642  -0.49631  -0.47072
  Beta  occ. eigenvalues --   -0.44958  -0.40214  -0.39310  -0.38919  -0.37900
  Beta  occ. eigenvalues --   -0.37483  -0.35284  -0.34859  -0.34202  -0.33836
  Beta  occ. eigenvalues --   -0.32058  -0.31691  -0.31186  -0.30762  -0.30694
  Beta  occ. eigenvalues --   -0.30079  -0.29466  -0.28720  -0.27605  -0.26843
  Beta  occ. eigenvalues --   -0.26045  -0.25590  -0.24723  -0.24172  -0.23681
  Beta  occ. eigenvalues --   -0.23008  -0.22512  -0.21655  -0.15761  -0.15250
  Beta  occ. eigenvalues --   -0.13740
  Beta virt. eigenvalues --    0.05841   0.06204   0.06761   0.07162   0.07671
  Beta virt. eigenvalues --    0.07859   0.08056   0.08469   0.09247   0.09463
  Beta virt. eigenvalues --    0.09675   0.10155   0.10482   0.10675   0.11019

 Mulliken charges and spin densities:
               1          2
     1  C    0.251154  -0.895151
     2  C   -0.363946   0.145366
     3  C    0.204716  -0.494084
     4  C   -0.467862   0.275049
     5  C    0.196984  -0.583609
     6  C    0.185817  -0.606044
     7  C   -0.546541   0.008860
     8  C    1.972488  -0.538914
     9  C   -0.652635  -0.015603
    10  C   -1.653530   1.634882
    11  C   -0.932468   1.471040
    12  C    0.070864  -0.849934
    13  C   -0.573710   0.140520
    14  C    2.066874  -2.705458
    15  C    0.924792  -1.407025
    16  N   -0.399914   0.103230
    17  H    0.048433   0.086317
    18  H   -0.064722   0.200559
    19  H    0.012877   0.120986
    20  H    0.153747  -0.009797
    21  H   -0.354830   0.513008
    22  H   -0.056754   0.207077
    23  H   -0.199814   0.346796
    24  H    0.104936   0.044929
    25  H    0.089242   0.074592
    26  H    0.242494  -0.114529
    27  H    0.122906   0.104174
    28  H    0.102773   0.114711
    29  H   -0.309213   0.501912
    30  H   -0.015977   0.203420
    31  H    0.038916   0.092553
    32  H   -0.099432   0.248593
    33  H   -0.125483   0.221388
    34  H   -0.079124   0.233376
    35  H   -0.128263   0.282823
    36  H   -0.194947   0.334656
    37  H   -0.532808   0.692107
    38  H   -0.090829   0.245075
    39  H   -0.135116   0.288304
    40  H   -0.027143   0.260662
    41  H    0.215050   0.023183
 Sum of Mulliken charges =  -1.00000   1.00000

 Dipole moment (field-independent basis, Debye):
    X=              1.6329    Y=             -2.5007    Z=              0.6046  Tot=              3.0472
 Quadrupole moment (field-independent basis, Debye-Ang):
   XX=           -221.7605   YY=           -146.7106   ZZ=           -137.3741
   XY=              1.7594   XZ=              5.9128   YZ=             -1.0973

 Summary of Natural Population Analysis:

                                       Natural Population
                Natural  -----------------------------------------------
    Atom  No    Charge         Core      Valence    Rydberg      Total
 -----------------------------------------------------------------------
      C    1   -0.28625      0.99967     2.28228    0.00430     3.28625
      C    2   -0.19423      0.99964     2.18638    0.00821     3.19423
      C    3   -0.19061      0.99963     2.18215    0.00883     3.19061
      C    4   -0.19205      0.99962     2.18395    0.00848     3.19205
      C    5   -0.19816      0.99960     2.19018    0.00837     3.19816
      C    6   -0.00984      0.99959     1.99835    0.01190     3.00984
      C    7   -0.20605      0.99958     2.19607    0.01040     3.20605
      C    8   -0.01692      0.99950     2.00643    0.01099     3.01692
      C    9   -0.10172      0.99947     2.09225    0.01000     3.10172
      C   10   -0.01196      0.99947     2.00269    0.00980     3.01196
      C   11   -0.01753      0.99947     2.00797    0.01009     3.01753
      C   12   -0.09627      0.99952     2.08827    0.00849     3.09627
      C   13   -0.10172      0.99950     2.09401    0.00821     3.10172
      C   14   -0.29431      0.99964     2.28931    0.00536     3.29431
      C   15   -0.29460      0.99964     2.28916    0.00580     3.29460
      N   16   -0.41977      0.99977     2.91053    0.00947     3.91977
      H   17    0.09576      0.00000     0.40328    0.00096     0.40424
      H   18    0.09789      0.00000     0.40121    0.00089     0.40211
      H   19    0.09473      0.00000     0.40418    0.00109     0.40527
      H   20    0.09605      0.00000     0.40268    0.00126     0.40395
      H   21    0.09610      0.00000     0.40273    0.00117     0.40390
      H   22    0.09680      0.00000     0.40187    0.00133     0.40320
      H   23    0.09542      0.00000     0.40353    0.00105     0.40458
      H   24    0.09594      0.00000     0.40271    0.00135     0.40406
      H   25    0.09563      0.00000     0.40338    0.00099     0.40437
      H   26    0.10130      0.00000     0.39754    0.00116     0.39870
      H   27    0.10280      0.00000     0.39587    0.00132     0.39720
      H   28    0.09074      0.00000     0.40724    0.00203     0.40926
      H   29    0.10271      0.00000     0.39584    0.00144     0.39729
      H   30    0.10362      0.00000     0.39506    0.00132     0.39638
      H   31    0.09901      0.00000     0.39920    0.00178     0.40099
      H   32    0.09680      0.00000     0.40206    0.00114     0.40320
      H   33    0.09850      0.00000     0.39990    0.00160     0.40150
      H   34    0.10407      0.00000     0.39486    0.00107     0.39593
      H   35    0.10532      0.00000     0.39336    0.00132     0.39468
      H   36    0.10120      0.00000     0.39782    0.00098     0.39880
      H   37    0.10398      0.00000     0.39480    0.00121     0.39602
      H   38    0.10470      0.00000     0.39412    0.00118     0.39530
      H   39    0.10470      0.00000     0.39405    0.00125     0.39530
      H   40    0.17360      0.00000     0.32448    0.00192     0.32640
      H   41    0.17459      0.00000     0.32324    0.00217     0.32541
 =======================================================================
   * Total *    0.00000     15.99331    44.83501    0.17167    61.00000

 Normal termination of Gaussian 16 at Fri Dec 11 01:02:17 2020.
