 Gaussian 16, Revision A.03,

 -----------------------------------------------------------
 # opt freq B3LYP/6-31G(d) empiricaldispersion=gd3bj scf=xqc
 -----------------------------------------------------------

 -----------------------------
 CID_5352574_JID_3882_neutraal
 -----------------------------
 Symbolic Z-matrix:
 Charge =  0 Multiplicity = 1

 SCF Done:  E(RB3LYP) =  -507.420224756     A.U. after   13 cycles
 SCF Done:  E(RB3LYP) =  -507.422937829     A.U. after   12 cycles
 SCF Done:  E(RB3LYP) =  -507.423340217     A.U. after   11 cycles
 SCF Done:  E(RB3LYP) =  -507.423522246     A.U. after   10 cycles
 SCF Done:  E(RB3LYP) =  -507.423548988     A.U. after    9 cycles
 SCF Done:  E(RB3LYP) =  -507.423559005     A.U. after    9 cycles
 SCF Done:  E(RB3LYP) =  -507.423559673     A.U. after    7 cycles
 SCF Done:  E(RB3LYP) =  -507.423559903     A.U. after    7 cycles
 SCF Done:  E(RB3LYP) =  -507.423560039     A.U. after    7 cycles
 SCF Done:  E(RB3LYP) =  -507.423560217     A.U. after    7 cycles
 SCF Done:  E(RB3LYP) =  -507.423560811     A.U. after    8 cycles
 SCF Done:  E(RB3LYP) =  -507.423561128     A.U. after    8 cycles
 SCF Done:  E(RB3LYP) =  -507.423561499     A.U. after    9 cycles
 SCF Done:  E(RB3LYP) =  -507.423561703     A.U. after    8 cycles
 SCF Done:  E(RB3LYP) =  -507.423561756     A.U. after    7 cycles
 Optimization completed.
    -- Stationary point found.
 Normal termination of Gaussian 16 at Mon Dec 14 13:11:48 2020.

 --------------------------------------------------------------------
 #N Geom=AllCheck Guess=TCheck SCRF=Check GenChk RB3LYP/6-31G(d) Freq
 --------------------------------------------------------------------

 Structure from the checkpoint file:  "JID_3882.chk"
 -----------------------------
 CID_5352574_JID_3882_neutraal
 -----------------------------
 Charge =  0 Multiplicity = 1

 SCF Done:  E(RB3LYP) =  -507.423561756     A.U. after    1 cycles

  Exact polarizability: 153.256   4.675 133.130   3.106   0.783 110.671
 Approx polarizability: 209.807  10.427 190.120   6.219   1.723 173.113

                      1                      2                      3
                      A                      A                      A
 Frequencies --     25.6659                71.9413               100.7027
 Red. masses --      2.2808                 2.8020                 2.4926
 Frc consts  --      0.0009                 0.0085                 0.0149
 IR Inten    --      0.1606                 0.0781                 0.1136

                      4                      5                      6
                      A                      A                      A
 Frequencies --    120.6159               142.7781               164.4711
 Red. masses --      2.6098                 2.7159                 2.6357
 Frc consts  --      0.0224                 0.0326                 0.0420
 IR Inten    --      0.1205                 0.8312                 0.0748

                      7                      8                      9
                      A                      A                      A
 Frequencies --    194.8822               212.1251               224.8405
 Red. masses --      2.0397                 1.7832                 1.8599
 Frc consts  --      0.0456                 0.0473                 0.0554
 IR Inten    --      0.4509                 0.1072                 0.1641

                     10                     11                     12
                      A                      A                      A
 Frequencies --    266.2485               286.8500               312.1461
 Red. masses --      3.3237                 2.1768                 2.7480
 Frc consts  --      0.1388                 0.1055                 0.1578
 IR Inten    --      0.1109                 1.1206                 0.6415

                     13                     14                     15
                      A                      A                      A
 Frequencies --    344.0883               379.5751               390.4162
 Red. masses --      2.4269                 2.3837                 2.6711
 Frc consts  --      0.1693                 0.2024                 0.2399
 IR Inten    --      0.2511                 0.6561                 0.1181

                     16                     17                     18
                      A                      A                      A
 Frequencies --    440.2091               492.8394               536.1087
 Red. masses --      2.3462                 1.9214                 2.6505
 Frc consts  --      0.2679                 0.2750                 0.4488
 IR Inten    --      2.7508                 1.5022                 1.8381

                     19                     20                     21
                      A                      A                      A
 Frequencies --    555.7065               578.9003               666.8040
 Red. masses --      3.3241                 2.3959                 2.8230
 Frc consts  --      0.6048                 0.4731                 0.7395
 IR Inten    --      1.2669                 1.5509                 1.8622

                     22                     23                     24
                      A                      A                      A
 Frequencies --    700.3436               791.6359               802.2179
 Red. masses --      1.4100                 2.3768                 1.5996
 Frc consts  --      0.4075                 0.8776                 0.6065
 IR Inten    --     25.3200                 1.7202                 3.2504

                     25                     26                     27
                      A                      A                      A
 Frequencies --    814.2243               843.7427               846.7998
 Red. masses --      1.4638                 2.1688                 1.9203
 Frc consts  --      0.5718                 0.9097                 0.8113
 IR Inten    --      1.1728                 2.6301                 2.7321

                     28                     29                     30
                      A                      A                      A
 Frequencies --    859.6212               896.0822               921.3502
 Red. masses --      1.5634                 2.7144                 2.6945
 Frc consts  --      0.6807                 1.2841                 1.3477
 IR Inten    --      2.2834                 1.0991                 1.9261

                     31                     32                     33
                      A                      A                      A
 Frequencies --    941.2184               997.7844              1006.6048
 Red. masses --      2.0382                 1.7573                 1.4179
 Frc consts  --      1.0639                 1.0308                 0.8465
 IR Inten    --     11.7723                 7.5385                 0.9222

                     34                     35                     36
                      A                      A                      A
 Frequencies --   1011.7771              1016.9438              1023.8959
 Red. masses --      2.6436                 1.2781                 1.3129
 Frc consts  --      1.5944                 0.7788                 0.8109
 IR Inten    --      0.9201                 2.2970                23.2577

                     37                     38                     39
                      A                      A                      A
 Frequencies --   1042.4459              1045.7456              1074.9999
 Red. masses --      1.9515                 2.0719                 1.8300
 Frc consts  --      1.2495                 1.3350                 1.2460
 IR Inten    --     12.8284                 1.5552                 0.2291

                     40                     41                     42
                      A                      A                      A
 Frequencies --   1084.5831              1099.8495              1114.3475
 Red. masses --      1.9987                 2.4219                 1.9906
 Frc consts  --      1.3852                 1.7262                 1.4564
 IR Inten    --      1.3901                 0.2578                 2.6733

                     43                     44                     45
                      A                      A                      A
 Frequencies --   1124.5139              1174.8116              1204.0967
 Red. masses --      2.5326                 1.4455                 1.2790
 Frc consts  --      1.8869                 1.1755                 1.0926
 IR Inten    --      6.5254                 1.3993                 1.6663

                     46                     47                     48
                      A                      A                      A
 Frequencies --   1229.0567              1244.0975              1260.3195
 Red. masses --      1.2181                 1.2367                 1.1501
 Frc consts  --      1.0841                 1.1278                 1.0763
 IR Inten    --      0.5577                 1.2580                 3.3682

                     49                     50                     51
                      A                      A                      A
 Frequencies --   1294.1450              1311.8882              1341.3144
 Red. masses --      1.3743                 1.2639                 1.2704
 Frc consts  --      1.3561                 1.2816                 1.3466
 IR Inten    --      0.9650                 1.9673                 0.7358

                     52                     53                     54
                      A                      A                      A
 Frequencies --   1342.8302              1349.2012              1353.4020
 Red. masses --      1.2722                 1.2090                 1.1547
 Frc consts  --      1.3516                 1.2966                 1.2461
 IR Inten    --      0.7269                 0.9855                 1.4300

                     55                     56                     57
                      A                      A                      A
 Frequencies --   1359.7718              1377.0392              1381.4074
 Red. masses --      1.2385                 1.3536                 1.3585
 Frc consts  --      1.3492                 1.5123                 1.5274
 IR Inten    --      4.9081                 6.7868                 2.6042

                     58                     59                     60
                      A                      A                      A
 Frequencies --   1394.6405              1406.5887              1419.5540
 Red. masses --      1.3353                 1.4358                 1.5432
 Frc consts  --      1.5303                 1.6737                 1.8322
 IR Inten    --      0.8477                 3.4717                 3.1198

                     61                     62                     63
                      A                      A                      A
 Frequencies --   1441.9376              1457.7911              1505.4172
 Red. masses --      1.2712                 1.3711                 1.0785
 Frc consts  --      1.5573                 1.7168                 1.4401
 IR Inten    --      1.4973                 7.8521                 1.0312

                     64                     65                     66
                      A                      A                      A
 Frequencies --   1509.4701              1513.8901              1516.6020
 Red. masses --      1.0481                 1.0999                 1.0910
 Frc consts  --      1.4071                 1.4852                 1.4785
 IR Inten    --      6.6302                 1.4277                 3.7352

                     67                     68                     69
                      A                      A                      A
 Frequencies --   1520.8236              1524.3925              1528.0426
 Red. masses --      1.0718                 1.0926                 1.0947
 Frc consts  --      1.4606                 1.4959                 1.5060
 IR Inten    --     10.6896                 4.2461                 0.9910

                     70                     71                     72
                      A                      A                      A
 Frequencies --   1558.2241              1739.9600              1741.8147
 Red. masses --      1.0817                 6.5661                 6.0953
 Frc consts  --      1.5474                11.7121                10.8956
 IR Inten    --      0.9651                 4.2020                 0.7420

                     73                     74                     75
                      A                      A                      A
 Frequencies --   1742.4838              3015.1152              3022.9897
 Red. masses --      6.2216                 1.0623                 1.0391
 Frc consts  --     11.1299                 5.6897                 5.5947
 IR Inten    --      1.7006                27.6337                41.7217

                     76                     77                     78
                      A                      A                      A
 Frequencies --   3026.2659              3030.1773              3033.0676
 Red. masses --      1.0678                 1.0627                 1.0944
 Frc consts  --      5.7617                 5.7493                 5.9321
 IR Inten    --     27.4880                27.4438                 4.3870

                     79                     80                     81
                      A                      A                      A
 Frequencies --   3043.0886              3047.5302              3057.3007
 Red. masses --      1.0712                 1.0650                 1.0786
 Frc consts  --      5.8447                 5.8279                 5.9400
 IR Inten    --     73.0235                58.5086                48.8085

                     82                     83                     84
                      A                      A                      A
 Frequencies --   3066.6522              3075.8677              3081.3232
 Red. masses --      1.0991                 1.1015                 1.0969
 Frc consts  --      6.0900                 6.1403                 6.1358
 IR Inten    --     28.8284                22.6482                 9.0371

                     85                     86                     87
                      A                      A                      A
 Frequencies --   3096.7817              3109.2431              3118.8361
 Red. masses --      1.0950                 1.0826                 1.0993
 Frc consts  --      6.1869                 6.1663                 6.3004
 IR Inten    --     27.6686                10.6149                18.0028

                     88                     89                     90
                      A                      A                      A
 Frequencies --   3133.4102              3136.6538              3140.2844
 Red. masses --      1.0905                 1.0888                 1.0912
 Frc consts  --      6.3082                 6.3116                 6.3403
 IR Inten    --     32.1459                60.9923                 6.0429

                     91                     92                     93
                      A                      A                      A
 Frequencies --   3145.6570              3148.1055              3220.5188
 Red. masses --      1.0908                 1.0867                 1.0849
 Frc consts  --      6.3597                 6.3453                 6.6298
 IR Inten    --     35.3377                54.7787                 2.1642

 - Thermochemistry -
 -------------------
 Temperature   298.150 Kelvin.  Pressure   1.00000 Atm.
 Atom     1 has atomic number  6 and mass  12.00000

 Molecular mass:   176.15650 amu.
 Principal axes and moments of inertia in atomic units:
                           1         2         3
     Eigenvalues --  1907.349592761.600073902.89050
           X            0.99992  -0.01276  -0.00026
           Y            0.01276   0.99989   0.00818
           Z            0.00015  -0.00818   0.99997
 This molecule is an asymmetric top.
 Rotational symmetry number  1.
 Warning -- assumption of classical behavior for rotation
           may cause significant error
 Rotational temperatures (Kelvin)      0.04541     0.03136     0.02219
 Rotational constants (GHZ):           0.94620     0.65351     0.46241
 Zero-point vibrational energy     789909.3 (Joules/Mol)
                                  188.79286 (Kcal/Mol)
 Warning -- explicit consideration of  20 degrees of freedom as
           vibrations may cause significant error
 Vibrational temperatures:     36.93   103.51   144.89   173.54   205.43
          (Kelvin)            236.64   280.39   305.20   323.50   383.07
                              412.71   449.11   495.07   546.12   561.72
                              633.36   709.09   771.34   799.54   832.91
                              959.38  1007.64  1138.99  1154.21  1171.49
                             1213.96  1218.36  1236.80  1289.26  1325.62
                             1354.20  1435.59  1448.28  1455.72  1463.16
                             1473.16  1499.85  1504.59  1546.69  1560.47
                             1582.44  1603.30  1617.92  1690.29  1732.43
                             1768.34  1789.98  1813.32  1861.99  1887.51
                             1929.85  1932.03  1941.20  1947.24  1956.41
                             1981.25  1987.54  2006.58  2023.77  2042.42
                             2074.63  2097.44  2165.96  2171.79  2178.15
                             2182.05  2188.13  2193.26  2198.51  2241.94
                             2503.41  2506.08  2507.05  4338.08  4349.41
                             4354.12  4359.75  4363.91  4378.33  4384.72
                             4398.77  4412.23  4425.49  4433.34  4455.58
                             4473.51  4487.31  4508.28  4512.95  4518.17
                             4525.90  4529.42  4633.61

 Zero-point correction=                           0.300861 (Hartree/Particle)
 Thermal correction to Energy=                    0.314507
 Thermal correction to Enthalpy=                  0.315451
 Thermal correction to Gibbs Free Energy=         0.260613
 Sum of electronic and zero-point Energies=           -507.122701
 Sum of electronic and thermal Energies=              -507.109055
 Sum of electronic and thermal Enthalpies=            -507.108111
 Sum of electronic and thermal Free Energies=         -507.162948

                     E (Thermal)             CV                S
                      KCal/Mol        Cal/Mol-Kelvin    Cal/Mol-Kelvin
 Total                  197.356             52.700            115.415
 Electronic               0.000              0.000              0.000
 Translational            0.889              2.981             41.406
 Rotational               0.889              2.981             31.397
 Vibrational            195.578             46.738             42.611
 Vibration     1          0.593              1.985              6.139
 Vibration     2          0.598              1.967              4.100
 Vibration     3          0.604              1.949              3.441
 Vibration     4          0.609              1.932              3.090
 Vibration     5          0.616              1.910              2.766
 Vibration     6          0.623              1.886              2.498
 Vibration     7          0.636              1.847              2.181
 Vibration     8          0.643              1.822              2.025
 Vibration     9          0.650              1.803              1.920
 Vibration    10          0.672              1.735              1.620
 Vibration    11          0.684              1.698              1.492
 Vibration    12          0.700              1.651              1.351
 Vibration    13          0.723              1.587              1.193
 Vibration    14          0.750              1.514              1.041
 Vibration    15          0.758              1.491              0.999
 Vibration    16          0.800              1.382              0.826
 Vibration    17          0.849              1.266              0.676
 Vibration    18          0.891              1.170              0.574
 Vibration    19          0.911              1.127              0.532
 Vibration    20          0.935              1.077              0.487

                           ! Non-Optimized Parameters !
 Normal termination of Gaussian 16 at Mon Dec 14 13:20:57 2020.

 ----------------------------------------------------------------------
 # B3LYP/6-311++G(d,p) empiricaldispersion=gd3bj scf=xqc pop=npa geom=c
 heck
 ----------------------------------------------------------------------

 -------------------------------------
 CID_5352574_JID_3882_Energie_neutraal
 -------------------------------------
 Structure from the checkpoint file:  "JID_3882.chk"
 Charge =  0 Multiplicity = 1

 SCF Done:  E(RB3LYP) =  -507.561189253     A.U. after   14 cycles
 Normal termination of Gaussian 16 at Mon Dec 14 13:24:36 2020.

 ----------------------------------------------------------------------
 # B3LYP/6-311++G(d,p) empiricaldispersion=gd3bj scf=xqc pop=npa geom=c
 heck
 ----------------------------------------------------------------------

 -----------------------------------
 CID_5352574_JID_3882_Energie_kation
 -----------------------------------
 Structure from the checkpoint file:  "JID_3882.chk"
 Charge =  1 Multiplicity = 2

 SCF Done:  E(UB3LYP) =  -507.271133780     A.U. after   23 cycles
 Normal termination of Gaussian 16 at Mon Dec 14 13:32:27 2020.
 Gaussian 16:  ES64L-G16RevA.03 25-Dec-2016

 ----------------------------------------------------------------------
 # B3LYP/6-311++G(d,p) empiricaldispersion=gd3bj scf=xqc pop=npa geom=c
 heck
 ----------------------------------------------------------------------

 ----------------------------------
 CID_5352574_JID_3882_Energie_anion
 ----------------------------------
 Structure from the checkpoint file:  "JID_3882.chk"
 Charge = -1 Multiplicity = 2

                         Standard orientation:
 ---------------------------------------------------------------------
 Center     Atomic      Atomic             Coordinates (Angstroms)
 Number     Number       Type             X           Y           Z
 ---------------------------------------------------------------------
      1          6           0        3.134800   -1.426428   -1.029697
      2          6           0        2.079401   -0.593148   -0.350227
      3          6           0        2.389761    0.548722    0.283050
      4          6           0        1.462563    1.447131    1.074879
      5          6           0        0.751836    2.582085    0.285517
      6          6           0       -0.479708    2.133730   -0.478061
      7          6           0       -1.516405    1.501799    0.079787
      8          6           0       -2.673878    0.897893   -0.665235
      9          6           0       -2.514429   -0.637832   -0.871562
     10          6           0       -2.397512   -1.421045    0.413982
     11          6           0       -1.331075   -1.915436    1.059890
     12          6           0        0.157516   -1.854206    0.804330
     13          6           0        0.653748   -1.100438   -0.444299
     14          1           0        3.144673   -2.449280   -0.627108
     15          1           0        4.136980   -1.004082   -0.905078
     16          1           0        2.933611   -1.520345   -2.105996
     17          1           0        3.434425    0.862478    0.270354
     18          1           0        0.694275    0.855122    1.583316
     19          1           0        2.057193    1.915313    1.869627
     20          1           0        0.464661    3.361846    1.004850
     21          1           0        1.466598    3.049318   -0.400942
     22          1           0       -0.490847    2.308677   -1.554715
     23          1           0       -1.494422    1.298968    1.151222
     24          1           0       -3.610005    1.085647   -0.121726
     25          1           0       -2.775422    1.367061   -1.651840
     26          1           0       -3.404113   -0.993254   -1.408711
     27          1           0       -1.664626   -0.817384   -1.531624
     28          1           0       -3.358622   -1.592631    0.902275
     29          1           0       -1.557007   -2.447838    1.986230
     30          1           0        0.553765   -2.880850    0.801266
     31          1           0        0.608024   -1.392150    1.694658
     32          1           0        0.016350   -0.238936   -0.604466
     33          1           0        0.544806   -1.744646   -1.325724
 ---------------------------------------------------------------------

 SCF Done:  E(UB3LYP) =  -507.544347662     A.U. after   33 cycles
 SCF Done:  E(UB3LYP) =  -507.544347663     a.u. after    1 cycles

 The electronic state is 2-A.
 Alpha  occ. eigenvalues --  -10.07632 -10.07536 -10.07321 -10.07312 -10.07275
 Alpha  occ. eigenvalues --  -10.07125 -10.07074 -10.06951 -10.06893 -10.06604
 Alpha  occ. eigenvalues --  -10.06310 -10.05939 -10.05820  -0.73234  -0.71049
 Alpha  occ. eigenvalues --   -0.70206  -0.66149  -0.64432  -0.60697  -0.57769
 Alpha  occ. eigenvalues --   -0.55777  -0.51483  -0.50319  -0.44783  -0.42389
 Alpha  occ. eigenvalues --   -0.41939  -0.38064  -0.37160  -0.36031  -0.34769
 Alpha  occ. eigenvalues --   -0.33725  -0.32868  -0.32066  -0.31332  -0.30789
 Alpha  occ. eigenvalues --   -0.30388  -0.28623  -0.27533  -0.26733  -0.26481
 Alpha  occ. eigenvalues --   -0.25183  -0.24593  -0.23936  -0.23495  -0.22621
 Alpha  occ. eigenvalues --   -0.20611  -0.15784  -0.14394  -0.12978   0.04480
 Alpha virt. eigenvalues --    0.06179   0.06881   0.07036   0.08468   0.08500
 Alpha virt. eigenvalues --    0.08953   0.09125   0.09370   0.10080   0.10659
 Alpha virt. eigenvalues --    0.10964   0.11382   0.11529   0.11892   0.12209

  Beta  occ. eigenvalues --  -10.07620 -10.07519 -10.07313 -10.07295 -10.07266
  Beta  occ. eigenvalues --  -10.07115 -10.07057 -10.06939 -10.06890 -10.06590
  Beta  occ. eigenvalues --  -10.06281 -10.05927 -10.05803  -0.73208  -0.71023
  Beta  occ. eigenvalues --   -0.70175  -0.66116  -0.64402  -0.60656  -0.57732
  Beta  occ. eigenvalues --   -0.55731  -0.51443  -0.50271  -0.44746  -0.42348
  Beta  occ. eigenvalues --   -0.41897  -0.38028  -0.37119  -0.36000  -0.34732
  Beta  occ. eigenvalues --   -0.33694  -0.32834  -0.32033  -0.31299  -0.30757
  Beta  occ. eigenvalues --   -0.30352  -0.28595  -0.27503  -0.26702  -0.26452
  Beta  occ. eigenvalues --   -0.25158  -0.24562  -0.23911  -0.23461  -0.22590
  Beta  occ. eigenvalues --   -0.20582  -0.15750  -0.14358  -0.12939
  Beta virt. eigenvalues --    0.06512   0.07052   0.07439   0.07551   0.08711
  Beta virt. eigenvalues --    0.09043   0.09393   0.09516   0.09709   0.10361
  Beta virt. eigenvalues --    0.10917   0.11392   0.11689   0.11858   0.12145

 Mulliken charges and spin densities:
               1          2
     1  C    2.230647  -2.898337
     2  C   -0.678806   1.201074
     3  C    1.397318  -1.791165
     4  C    0.956000  -0.846569
     5  C    0.669289  -1.330716
     6  C   -0.984603   1.007240
     7  C   -0.071351   0.133898
     8  C    0.949763  -1.716189
     9  C   -0.770988   0.617350
    10  C    1.034187  -1.041103
    11  C   -0.516886   0.143915
    12  C    0.209177  -0.909333
    13  C   -3.326869   3.200845
    14  H   -0.154698   0.316736
    15  H   -0.224060   0.356591
    16  H   -0.274451   0.440535
    17  H   -0.431924   0.607650
    18  H    0.187101  -0.077594
    19  H   -0.237868   0.409219
    20  H    0.077131   0.059955
    21  H   -0.096768   0.245447
    22  H   -0.132359   0.306346
    23  H   -0.057494   0.203046
    24  H   -0.107765   0.256437
    25  H   -0.033843   0.180890
    26  H   -0.619925   0.812602
    27  H   -0.401478   0.565721
    28  H   -0.292201   0.466981
    29  H   -0.390844   0.574502
    30  H   -0.082510   0.231958
    31  H    0.015604   0.152091
    32  H    1.012271  -0.916853
    33  H    0.149206   0.036829
 Sum of Mulliken charges =  -1.00000   1.00000

 Dipole moment (field-independent basis, Debye):
    X=              0.2325    Y=              2.1791    Z=              1.1545  Tot=              2.4770
 Quadrupole moment (field-independent basis, Debye-Ang):
   XX=           -159.9012   YY=           -130.7180   ZZ=           -119.9088
   XY=             -5.1644   XZ=              0.7218   YZ=             -0.5080

 Summary of Natural Population Analysis:

                                       Natural Population
                Natural  -----------------------------------------------
    Atom  No    Charge         Core      Valence    Rydberg      Total
 -----------------------------------------------------------------------
      C    1   -0.29291      0.99962     2.28743    0.00586     3.29291
      C    2    0.00381      0.99948     1.98626    0.01045     2.99619
      C    3   -0.10126      0.99944     2.09178    0.01004     3.10126
      C    4   -0.20366      0.99961     2.19480    0.00925     3.20366
      C    5   -0.20336      0.99961     2.19441    0.00935     3.20336
      C    6   -0.09012      0.99950     2.08151    0.00912     3.09012
      C    7   -0.09052      0.99950     2.08178    0.00925     3.09052
      C    8   -0.19946      0.99960     2.19021    0.00965     3.19946
      C    9   -0.20540      0.99960     2.19669    0.00911     3.20540
      C   10   -0.09992      0.99952     2.08964    0.01075     3.09992
      C   11   -0.08477      0.99952     2.07475    0.01050     3.08477
      C   12   -0.20298      0.99959     2.19484    0.00855     3.20298
      C   13   -0.21889      0.99956     2.20988    0.00945     3.21889
      H   14    0.10079      0.00000     0.39797    0.00124     0.39921
      H   15    0.10105      0.00000     0.39784    0.00111     0.39895
      H   16    0.10149      0.00000     0.39714    0.00137     0.39851
      H   17    0.09193      0.00000     0.40686    0.00121     0.40807
      H   18    0.09956      0.00000     0.39875    0.00169     0.40044
      H   19    0.09988      0.00000     0.39893    0.00119     0.40012
      H   20    0.10036      0.00000     0.39856    0.00108     0.39964
      H   21    0.09982      0.00000     0.39898    0.00119     0.40018
      H   22    0.09229      0.00000     0.40658    0.00113     0.40771
      H   23    0.09307      0.00000     0.40551    0.00141     0.40693
      H   24    0.09869      0.00000     0.40007    0.00124     0.40131
      H   25    0.09954      0.00000     0.39921    0.00124     0.40046
      H   26    0.10331      0.00000     0.39472    0.00197     0.39669
      H   27    0.10078      0.00000     0.39735    0.00187     0.39922
      H   28    0.09454      0.00000     0.40394    0.00153     0.40546
      H   29    0.09359      0.00000     0.40526    0.00115     0.40641
      H   30    0.10267      0.00000     0.39620    0.00113     0.39733
      H   31    0.10300      0.00000     0.39550    0.00150     0.39700
      H   32    0.11399      0.00000     0.38223    0.00378     0.38601
      H   33    0.09909      0.00000     0.39945    0.00145     0.40091
 =======================================================================
   * Total *   -0.00000     12.99416    35.85503    0.15080    49.00000

 Normal termination of Gaussian 16 at Mon Dec 14 13:43:41 2020.
