 Gaussian 16, Revision A.03,

 -----------------------------------------------------------
 # opt freq B3LYP/6-31G(d) empiricaldispersion=gd3bj scf=xqc
 -----------------------------------------------------------

 ------------------------------
 CID_76847179_JID_1198_neutraal
 ------------------------------
 Symbolic Z-matrix:
 Charge =  0 Multiplicity = 1

 SCF Done:  E(RB3LYP) =  -490.569387064     A.U. after   14 cycles
 SCF Done:  E(RB3LYP) =  -490.574562548     A.U. after   12 cycles
 SCF Done:  E(RB3LYP) =  -490.575404428     A.U. after   11 cycles
 SCF Done:  E(RB3LYP) =  -490.575801232     A.U. after   12 cycles
 SCF Done:  E(RB3LYP) =  -490.576292926     A.U. after   14 cycles
 SCF Done:  E(RB3LYP) =  -490.576913751     A.U. after   11 cycles
 SCF Done:  E(RB3LYP) =  -490.577448167     A.U. after   12 cycles
 SCF Done:  E(RB3LYP) =  -490.577574885     A.U. after   12 cycles
 SCF Done:  E(RB3LYP) =  -490.577586736     A.U. after   10 cycles
 SCF Done:  E(RB3LYP) =  -490.577594936     A.U. after    9 cycles
 SCF Done:  E(RB3LYP) =  -490.577595728     A.U. after    8 cycles
 SCF Done:  E(RB3LYP) =  -490.577595994     A.U. after    7 cycles
 SCF Done:  E(RB3LYP) =  -490.577596076     A.U. after    7 cycles
 Optimization completed.
    -- Stationary point found.
 Normal termination of Gaussian 16 at Tue Dec  8 19:15:12 2020.

 --------------------------------------------------------------------
 #N Geom=AllCheck Guess=TCheck SCRF=Check GenChk RB3LYP/6-31G(d) Freq
 --------------------------------------------------------------------

 Structure from the checkpoint file:  "JID_1198.chk"
 ------------------------------
 CID_76847179_JID_1198_neutraal
 ------------------------------
 Charge =  0 Multiplicity = 1

 SCF Done:  E(RB3LYP) =  -490.577596076     A.U. after    1 cycles

  Exact polarizability: 116.109  -0.845 115.009  -4.633   2.012  45.195
 Approx polarizability: 192.240  11.404 199.909  -9.765   4.631  69.762

                      1                      2                      3
                      A                      A                      A
 Frequencies --     72.1868               134.5326               202.5720
 Red. masses --      2.7880                 2.9900                 4.4089
 Frc consts  --      0.0086                 0.0319                 0.1066
 IR Inten    --      1.2293                 6.5854                 1.0178

                      4                      5                      6
                      A                      A                      A
 Frequencies --    218.4620               265.9968               298.1311
 Red. masses --      4.9630                 2.2426                 1.6710
 Frc consts  --      0.1396                 0.0935                 0.0875
 IR Inten    --      3.1514                30.3768                27.1907

                      7                      8                      9
                      A                      A                      A
 Frequencies --    369.2762               409.5593               470.4369
 Red. masses --      3.8848                 1.4136                 4.6052
 Frc consts  --      0.3121                 0.1397                 0.6005
 IR Inten    --     13.8945                62.8085                 0.4632

                     10                     11                     12
                      A                      A                      A
 Frequencies --    517.2639               575.3867               593.6394
 Red. masses --      3.4006                 3.8116                 6.6213
 Frc consts  --      0.5361                 0.7435                 1.3748
 IR Inten    --      7.2235                11.1539                 1.4980

                     13                     14                     15
                      A                      A                      A
 Frequencies --    641.8071               674.0212               697.6756
 Red. masses --      4.9639                 3.5961                 5.0573
 Frc consts  --      1.2047                 0.9626                 1.4504
 IR Inten    --      6.8220                24.5692                 5.5018

                     16                     17                     18
                      A                      A                      A
 Frequencies --    792.0224               820.9909               877.6098
 Red. masses --      3.7361                 1.4186                 3.5333
 Frc consts  --      1.3808                 0.5634                 1.6034
 IR Inten    --      3.1448                19.4415                13.5052

                     19                     20                     21
                      A                      A                      A
 Frequencies --    882.6797               905.5295               957.7909
 Red. masses --      1.4727                 1.3934                 3.8490
 Frc consts  --      0.6760                 0.6732                 2.0803
 IR Inten    --     66.1286                23.7384                79.9169

                     22                     23                     24
                      A                      A                      A
 Frequencies --    963.9137               990.5123              1052.7968
 Red. masses --      1.3571                 1.8488                 3.4367
 Frc consts  --      0.7429                 1.0687                 2.2443
 IR Inten    --      0.6267                34.1329                 4.2388

                     25                     26                     27
                      A                      A                      A
 Frequencies --   1090.3536              1103.5483              1127.4398
 Red. masses --      3.8985                 2.0786                 3.0863
 Frc consts  --      2.7307                 1.4914                 2.3114
 IR Inten    --     23.4162                 4.3945                 1.2159

                     28                     29                     30
                      A                      A                      A
 Frequencies --   1182.8774              1212.9559              1265.5079
 Red. masses --      1.1986                 1.7080                 1.6124
 Frc consts  --      0.9881                 1.4806                 1.5215
 IR Inten    --      3.4350                 6.2561                 2.9416

                     31                     32                     33
                      A                      A                      A
 Frequencies --   1301.8910              1322.4428              1340.0282
 Red. masses --      1.7097                 1.7239                 2.8462
 Frc consts  --      1.7073                 1.7763                 3.0112
 IR Inten    --     27.0723                 3.5258                 9.6584

                     34                     35                     36
                      A                      A                      A
 Frequencies --   1367.2498              1433.2432              1441.7191
 Red. masses --      5.4273                 1.5966                 2.4077
 Frc consts  --      5.9776                 1.9323                 2.9485
 IR Inten    --     15.9129                19.6187                 4.7328

                     37                     38                     39
                      A                      A                      A
 Frequencies --   1455.4710              1506.6598              1527.3009
 Red. masses --      2.9307                 3.4534                 1.1091
 Frc consts  --      3.6579                 4.6187                 1.5243
 IR Inten    --      1.7189                13.0728                 1.5214

                     40                     41                     42
                      A                      A                      A
 Frequencies --   1537.4665              1628.5550              1660.0908
 Red. masses --      3.6878                 5.6581                 7.1636
 Frc consts  --      5.1360                 8.8415                11.6318
 IR Inten    --      3.1193                34.3330                61.3778

                     43                     44                     45
                      A                      A                      A
 Frequencies --   1696.6064              3012.6402              3050.0640
 Red. masses --      1.0942                 1.0609                 1.1012
 Frc consts  --      1.8557                 5.6732                 6.0359
 IR Inten    --     34.1677                45.5676                24.4985

                     46                     47                     48
                      A                      A                      A
 Frequencies --   3179.8008              3216.0357              3302.4957
 Red. masses --      1.0889                 1.0945                 1.0968
 Frc consts  --      6.4867                 6.6695                 7.0478
 IR Inten    --     23.7935                17.3330                 1.2663

                     49                     50                     51
                      A                      A                      A
 Frequencies --   3470.0038              3556.7226              3677.2073
 Red. masses --      1.0500                 1.0926                 1.0810
 Frc consts  --      7.4491                 8.1437                 8.6126
 IR Inten    --      1.0606                 0.1690                76.8969

 - Thermochemistry -
 -------------------
 Temperature   298.150 Kelvin.  Pressure   1.00000 Atm.
 Atom     1 has atomic number  6 and mass  12.00000

 Molecular mass:   148.07490 amu.
 Principal axes and moments of inertia in atomic units:
                           1         2         3
     Eigenvalues --  1117.203751493.691782551.33981
           X            0.99515  -0.09839  -0.00102
           Y            0.09839   0.99515  -0.00077
           Z            0.00110   0.00066   1.00000
 This molecule is an asymmetric top.
 Rotational symmetry number  1.
 Warning -- assumption of classical behavior for rotation
           may cause significant error
 Rotational temperatures (Kelvin)      0.07753     0.05799     0.03395
 Rotational constants (GHZ):           1.61541     1.20824     0.70737
 Zero-point vibrational energy     401055.1 (Joules/Mol)
                                   95.85446 (Kcal/Mol)
 Warning -- explicit consideration of  12 degrees of freedom as
           vibrations may cause significant error
 Vibrational temperatures:    103.86   193.56   291.46   314.32   382.71
          (Kelvin)            428.94   531.31   589.26   676.85   744.23
                              827.85   854.11   923.42   969.77  1003.80
                             1139.54  1181.22  1262.68  1269.98  1302.86
                             1378.05  1386.86  1425.13  1514.74  1568.78
                             1587.76  1622.13  1701.90  1745.17  1820.78
                             1873.13  1902.70  1928.00  1967.17  2062.12
                             2074.31  2094.10  2167.75  2197.45  2212.07
                             2343.13  2388.50  2441.04  4334.52  4388.36
                             4575.02  4627.16  4751.55  4992.56  5117.33
                             5290.68

 Zero-point correction=                           0.152754 (Hartree/Particle)
 Thermal correction to Energy=                    0.161509
 Thermal correction to Enthalpy=                  0.162454
 Thermal correction to Gibbs Free Energy=         0.118791
 Sum of electronic and zero-point Energies=           -490.424842
 Sum of electronic and thermal Energies=              -490.416087
 Sum of electronic and thermal Enthalpies=            -490.415142
 Sum of electronic and thermal Free Energies=         -490.458805

                     E (Thermal)             CV                S
                      KCal/Mol        Cal/Mol-Kelvin    Cal/Mol-Kelvin
 Total                  101.349             34.135             91.897
 Electronic               0.000              0.000              0.000
 Translational            0.889              2.981             40.888
 Rotational               0.889              2.981             29.833
 Vibrational             99.571             28.173             21.175
 Vibration     1          0.598              1.967              4.093
 Vibration     2          0.613              1.919              2.880
 Vibration     3          0.639              1.836              2.110
 Vibration     4          0.646              1.813              1.972
 Vibration     5          0.672              1.735              1.622
 Vibration     6          0.691              1.677              1.427
 Vibration     7          0.742              1.535              1.083
 Vibration     8          0.774              1.449              0.928
 Vibration     9          0.827              1.316              0.736
 Vibration    10          0.872              1.212              0.616
 Vibration    11          0.932              1.084              0.494
 Vibration    12          0.951              1.045              0.461

 Optimization completed.
    -- Stationary point found.
 Normal termination of Gaussian 16 at Tue Dec  8 19:18:55 2020.

 ----------------------------------------------------------------------
 # B3LYP/6-311++G(d,p) empiricaldispersion=gd3bj scf=xqc pop=npa geom=c
 heck
 ----------------------------------------------------------------------

 --------------------------------------
 CID_76847179_JID_1198_Energie_neutraal
 --------------------------------------
 Structure from the checkpoint file:  "JID_1198.chk"
 Charge =  0 Multiplicity = 1

 SCF Done:  E(RB3LYP) =  -490.715778889     A.U. after   15 cycles
 Normal termination of Gaussian 16 at Tue Dec  8 19:20:16 2020.

 ----------------------------------------------------------------------
 # B3LYP/6-311++G(d,p) empiricaldispersion=gd3bj scf=xqc pop=npa geom=c
 heck
 ----------------------------------------------------------------------

 ------------------------------------
 CID_76847179_JID_1198_Energie_kation
 ------------------------------------
 Structure from the checkpoint file:  "JID_1198.chk"
 Charge =  1 Multiplicity = 2

 SCF Done:  E(UB3LYP) =  -490.406016416     A.U. after   25 cycles
 Normal termination of Gaussian 16 at Tue Dec  8 19:23:55 2020.
 Gaussian 16:  ES64L-G16RevA.03 25-Dec-2016

 ----------------------------------------------------------------------
 # B3LYP/6-311++G(d,p) empiricaldispersion=gd3bj scf=xqc pop=npa geom=c
 heck
 ----------------------------------------------------------------------

 -----------------------------------
 CID_76847179_JID_1198_Energie_anion
 -----------------------------------
 Structure from the checkpoint file:  "JID_1198.chk"
 Charge = -1 Multiplicity = 2

                         Standard orientation:
 ---------------------------------------------------------------------
 Center     Atomic      Atomic             Coordinates (Angstroms)
 Number     Number       Type             X           Y           Z
 ---------------------------------------------------------------------
      1          6           0       -1.644087    1.544633    0.120487
      2          6           0       -0.507512    2.334371    0.073559
      3          7           0        0.761188    1.873857   -0.044636
      4          6           0        0.971333    0.561888   -0.130889
      5          6           0       -0.102442   -0.352349   -0.086218
      6          6           0       -1.417569    0.163560    0.037436
      7          7           0       -2.239444   -0.921441    0.042067
      8          7           0       -1.555450   -2.101968   -0.067071
      9          6           0       -0.280038   -1.772730   -0.143807
     10          6           0        2.404726    0.118702   -0.316296
     11          7           0        2.685040   -1.136064    0.391844
     12          1           0       -2.634499    1.977045    0.216772
     13          1           0       -0.602188    3.416262    0.136792
     14          1           0       -3.243887   -0.949563    0.118746
     15          1           0        0.485406   -2.529155   -0.222411
     16          1           0        2.572234   -0.067849   -1.386528
     17          1           0        3.043871    0.969934   -0.038014
     18          1           0        3.640326   -1.428780    0.196499
     19          1           0        2.632938   -0.977023    1.397085
 ---------------------------------------------------------------------

 SCF Done:  E(UB3LYP) =  -490.708482366     A.U. after   33 cycles
 SCF Done:  E(UB3LYP) =  -490.708540488     a.u. after    4 cycles

 The electronic state is 2-A.
 Alpha  occ. eigenvalues --  -14.25420 -14.20388 -14.17187 -14.16678 -10.09160
 Alpha  occ. eigenvalues --  -10.06979 -10.06949 -10.06710 -10.06019 -10.04447
 Alpha  occ. eigenvalues --  -10.04275  -0.91594  -0.80508  -0.75873  -0.70502
 Alpha  occ. eigenvalues --   -0.66720  -0.63589  -0.55933  -0.50203  -0.49610
 Alpha  occ. eigenvalues --   -0.47599  -0.41176  -0.37783  -0.36172  -0.35191
 Alpha  occ. eigenvalues --   -0.32627  -0.32336  -0.31184  -0.28995  -0.28755
 Alpha  occ. eigenvalues --   -0.27272  -0.23877  -0.22263  -0.17342  -0.17101
 Alpha  occ. eigenvalues --   -0.13525  -0.12664  -0.12394  -0.10614   0.04972
 Alpha virt. eigenvalues --    0.07023   0.08029   0.09154   0.10410   0.11061
 Alpha virt. eigenvalues --    0.11352   0.12179   0.12295   0.13760   0.15140
 Alpha virt. eigenvalues --    0.16101   0.16636   0.16718   0.17760   0.18429

  Beta  occ. eigenvalues --  -14.25386 -14.20157 -14.17124 -14.16686 -10.09188
  Beta  occ. eigenvalues --  -10.06911 -10.06721 -10.06677 -10.05980 -10.04276
  Beta  occ. eigenvalues --  -10.04263  -0.91397  -0.80295  -0.75745  -0.70282
  Beta  occ. eigenvalues --   -0.66586  -0.63231  -0.55668  -0.50088  -0.49393
  Beta  occ. eigenvalues --   -0.47487  -0.41025  -0.37588  -0.36015  -0.35050
  Beta  occ. eigenvalues --   -0.32529  -0.31935  -0.31054  -0.28808  -0.28679
  Beta  occ. eigenvalues --   -0.27018  -0.23393  -0.22135  -0.17046  -0.16453
  Beta  occ. eigenvalues --   -0.13052  -0.12604  -0.12267  -0.09694
  Beta virt. eigenvalues --    0.07714   0.08295   0.09332   0.09797   0.10932
  Beta virt. eigenvalues --    0.11379   0.11449   0.12446   0.12697   0.13820
  Beta virt. eigenvalues --    0.15385   0.16214   0.16673   0.16725   0.18056

 Mulliken charges and spin densities:
               1          2
     1  C   -0.185314   0.136764
     2  C    0.445328  -0.512802
     3  N   -0.042616   0.043443
     4  C   -2.737956   1.514439
     5  C    1.478794  -0.075626
     6  C    0.407326  -0.564897
     7  N   -0.040457  -0.037475
     8  N   -0.207578   0.097440
     9  C    0.454706  -0.545675
    10  C    0.504748  -1.319216
    11  N   -0.404427   0.025220
    12  H   -0.481793   0.611402
    13  H    0.153339  -0.003423
    14  H    0.007558   0.294441
    15  H    0.126218   0.081142
    16  H   -0.276012   0.465845
    17  H   -0.003925   0.151954
    18  H   -0.204519   0.443234
    19  H    0.006579   0.193790
 Sum of Mulliken charges =  -1.00000   1.00000

 Dipole moment (field-independent basis, Debye):
    X=             -2.2965    Y=              1.4438    Z=              0.3194  Tot=              2.7314
 Quadrupole moment (field-independent basis, Debye-Ang):
   XX=           -108.9460   YY=            -97.4857   ZZ=            -80.2236
   XY=              1.9162   XZ=              3.5921   YZ=             -0.6947

 Summary of Natural Population Analysis:

                                       Natural Population
                Natural  -----------------------------------------------
    Atom  No    Charge         Core      Valence    Rydberg      Total
 -----------------------------------------------------------------------
      C    1   -0.12245      0.99952     2.11398    0.00895     3.12245
      C    2    0.03118      0.99959     1.95507    0.01416     2.96882
      N    3   -0.26126      0.99968     2.75093    0.01065     3.76126
      C    4    0.16688      0.99951     1.82029    0.01332     2.83312
      C    5   -0.08439      0.99945     2.07684    0.00809     3.08439
      C    6    0.08029      0.99949     1.90922    0.01100     2.91971
      N    7   -0.18458      0.99965     2.67244    0.01250     3.68458
      N    8   -0.12020      0.99973     2.60685    0.01361     3.62020
      C    9    0.00544      0.99961     1.98065    0.01430     2.99456
      C   10   -0.10394      0.99960     2.09071    0.01363     3.10394
      N   11   -0.42138      0.99978     2.91044    0.01116     3.92138
      H   12    0.09939      0.00000     0.39939    0.00122     0.40061
      H   13    0.08207      0.00000     0.41685    0.00109     0.41793
      H   14    0.19412      0.00000     0.30223    0.00365     0.30588
      H   15    0.10685      0.00000     0.39150    0.00165     0.39315
      H   16    0.09795      0.00000     0.39983    0.00222     0.40205
      H   17    0.08682      0.00000     0.41088    0.00230     0.41318
      H   18    0.17574      0.00000     0.31962    0.00464     0.32426
      H   19    0.17147      0.00000     0.32665    0.00189     0.32853
 =======================================================================
   * Total *    0.00000     10.99562    27.85434    0.15004    39.00000

 Normal termination of Gaussian 16 at Tue Dec  8 19:41:13 2020.
