 Gaussian 16, Revision A.03,

 -----------------------------------------------------------
 # opt freq B3LYP/6-31G(d) empiricaldispersion=gd3bj scf=xqc
 -----------------------------------------------------------

 -------------------------------
 CID_115654474_JID_4906_neutraal
 -------------------------------
 Symbolic Z-matrix:
 Charge =  0 Multiplicity = 1

 SCF Done:  E(RB3LYP) =  -602.366344664     A.U. after   12 cycles
 SCF Done:  E(RB3LYP) =  -602.369545416     A.U. after   11 cycles
 SCF Done:  E(RB3LYP) =  -602.369762649     A.U. after   10 cycles
 SCF Done:  E(RB3LYP) =  -602.369833870     A.U. after   10 cycles
 SCF Done:  E(RB3LYP) =  -602.369936748     A.U. after    9 cycles
 SCF Done:  E(RB3LYP) =  -602.369942840     A.U. after    8 cycles
 SCF Done:  E(RB3LYP) =  -602.369944117     A.U. after    8 cycles
 SCF Done:  E(RB3LYP) =  -602.369944427     A.U. after    7 cycles
 SCF Done:  E(RB3LYP) =  -602.369944618     A.U. after    8 cycles
 SCF Done:  E(RB3LYP) =  -602.369944705     A.U. after    7 cycles
 SCF Done:  E(RB3LYP) =  -602.369944757     A.U. after    7 cycles
 SCF Done:  E(RB3LYP) =  -602.369944773     A.U. after    6 cycles
 Optimization completed on the basis of negligible forces.
    -- Stationary point found.
 Normal termination of Gaussian 16 at Thu Dec 10 10:55:26 2020.

 --------------------------------------------------------------------
 #N Geom=AllCheck Guess=TCheck SCRF=Check GenChk RB3LYP/6-31G(d) Freq
 --------------------------------------------------------------------

 Structure from the checkpoint file:  "JID_4906.chk"
 -------------------------------
 CID_115654474_JID_4906_neutraal
 -------------------------------
 Charge =  0 Multiplicity = 1

 SCF Done:  E(RB3LYP) =  -602.369944773     A.U. after    1 cycles

  Exact polarizability: 157.867  -1.516 128.777  -0.414   0.683 119.448
 Approx polarizability: 188.856  -0.227 182.969  -3.111   0.827 179.286

                      1                      2                      3
                      A                      A                      A
 Frequencies --     14.6763                19.9074                44.8980
 Red. masses --      2.9424                 3.4756                 3.3085
 Frc consts  --      0.0004                 0.0008                 0.0039
 IR Inten    --      0.7920                 0.6464                 0.2033

                      4                      5                      6
                      A                      A                      A
 Frequencies --     63.7473               100.1937               117.0844
 Red. masses --      3.6377                 2.6250                 3.0231
 Frc consts  --      0.0087                 0.0155                 0.0244
 IR Inten    --      0.4839                 1.4959                 0.7969

                      7                      8                      9
                      A                      A                      A
 Frequencies --    186.0140               202.5189               219.5541
 Red. masses --      2.6458                 1.9222                 2.3384
 Frc consts  --      0.0539                 0.0464                 0.0664
 IR Inten    --      0.2642                 1.2656                 0.3172

                     10                     11                     12
                      A                      A                      A
 Frequencies --    235.5402               241.0496               254.4833
 Red. masses --      2.5681                 1.1617                 1.3477
 Frc consts  --      0.0839                 0.0398                 0.0514
 IR Inten    --      0.2415                 1.7631                 3.4702

                     13                     14                     15
                      A                      A                      A
 Frequencies --    298.7134               309.4834               337.5783
 Red. masses --      1.3232                 1.7860                 2.1354
 Frc consts  --      0.0696                 0.1008                 0.1434
 IR Inten    --     50.9218                31.5751                 1.1736

                     16                     17                     18
                      A                      A                      A
 Frequencies --    375.5465               387.1468               412.2675
 Red. masses --      2.3752                 2.2339                 2.2889
 Frc consts  --      0.1974                 0.1973                 0.2292
 IR Inten    --     14.4647                 4.1445                 3.8055

                     19                     20                     21
                      A                      A                      A
 Frequencies --    418.6593               453.2176               465.2658
 Red. masses --      2.3673                 2.6495                 2.1478
 Frc consts  --      0.2445                 0.3206                 0.2739
 IR Inten    --      5.7486                 5.6729                 6.0397

                     22                     23                     24
                      A                      A                      A
 Frequencies --    492.0907               512.8437               600.2705
 Red. masses --      1.7564                 2.8068                 2.6260
 Frc consts  --      0.2506                 0.4349                 0.5575
 IR Inten    --      2.1305                 1.8733                 3.2098

                     25                     26                     27
                      A                      A                      A
 Frequencies --    669.4278               771.7326               799.6479
 Red. masses --      2.3079                 1.6121                 1.7871
 Frc consts  --      0.6094                 0.5657                 0.6733
 IR Inten    --      6.0392                33.5509                 1.0331

                     28                     29                     30
                      A                      A                      A
 Frequencies --    810.3036               816.5547               848.5949
 Red. masses --      2.1988                 2.6997                 2.2764
 Frc consts  --      0.8506                 1.0606                 0.9658
 IR Inten    --     14.4744                 1.5391                 1.2538

                     31                     32                     33
                      A                      A                      A
 Frequencies --    866.5693               882.2742               887.8162
 Red. masses --      2.4403                 2.1709                 1.5350
 Frc consts  --      1.0797                 0.9956                 0.7129
 IR Inten    --      0.8481                 1.5330                 0.9061

                     34                     35                     36
                      A                      A                      A
 Frequencies --    897.8551               943.8464               949.5682
 Red. masses --      1.4652                 1.3056                 1.9826
 Frc consts  --      0.6959                 0.6853                 1.0533
 IR Inten    --      3.7986                 3.8177                11.4161

                     37                     38                     39
                      A                      A                      A
 Frequencies --    956.5707               988.9387              1006.0812
 Red. masses --      1.3931                 1.8773                 2.0761
 Frc consts  --      0.7510                 1.0817                 1.2381
 IR Inten    --      1.6071                 3.2795                 1.1056

                     40                     41                     42
                      A                      A                      A
 Frequencies --   1036.9138              1044.3941              1048.4109
 Red. masses --      1.5516                 2.1677                 2.2521
 Frc consts  --      0.9829                 1.3931                 1.4585
 IR Inten    --     51.0888                 8.7897                 3.5057

                     43                     44                     45
                      A                      A                      A
 Frequencies --   1051.9507              1069.6860              1098.0648
 Red. masses --      1.8899                 1.7332                 1.6642
 Frc consts  --      1.2322                 1.1685                 1.1823
 IR Inten    --      0.8515                 9.4603                 0.9889

                     46                     47                     48
                      A                      A                      A
 Frequencies --   1106.5240              1126.7616              1144.7384
 Red. masses --      1.6186                 2.7698                 1.1980
 Frc consts  --      1.1677                 2.0719                 0.9250
 IR Inten    --     55.6316                50.2044                 0.8188

                     49                     50                     51
                      A                      A                      A
 Frequencies --   1149.6130              1161.0715              1186.0334
 Red. masses --      1.7649                 1.7803                 2.1939
 Frc consts  --      1.3743                 1.4140                 1.8183
 IR Inten    --     11.3636                 6.6597                25.5248

                     52                     53                     54
                      A                      A                      A
 Frequencies --   1197.9844              1212.4827              1262.5790
 Red. masses --      2.0235                 1.8056                 1.3564
 Frc consts  --      1.7110                 1.5640                 1.2740
 IR Inten    --      7.2091                 1.3925                15.5950

                     55                     56                     57
                      A                      A                      A
 Frequencies --   1274.5572              1287.4743              1296.3176
 Red. masses --      1.2340                 1.2689                 1.2516
 Frc consts  --      1.1811                 1.2393                 1.2391
 IR Inten    --     19.1478                14.7813                 1.5242

                     58                     59                     60
                      A                      A                      A
 Frequencies --   1305.2512              1314.3664              1341.6556
 Red. masses --      1.2334                 1.2439                 1.3366
 Frc consts  --      1.2381                 1.2661                 1.4175
 IR Inten    --      1.4454                 1.2298                 1.7219

                     61                     62                     63
                      A                      A                      A
 Frequencies --   1363.7307              1371.3127              1378.5772
 Red. masses --      1.5365                 1.3344                 1.3595
 Frc consts  --      1.6836                 1.4784                 1.5222
 IR Inten    --      3.3712                 0.3900                24.4211

                     64                     65                     66
                      A                      A                      A
 Frequencies --   1383.4543              1385.2800              1403.9782
 Red. masses --      1.4047                 1.4639                 1.4280
 Frc consts  --      1.5840                 1.6551                 1.6585
 IR Inten    --      9.3801                 1.9980                 0.3710

                     67                     68                     69
                      A                      A                      A
 Frequencies --   1405.2690              1410.6595              1418.5302
 Red. masses --      1.4339                 1.4169                 1.4903
 Frc consts  --      1.6683                 1.6612                 1.7669
 IR Inten    --      1.5875                 1.6440                 9.2963

                     70                     71                     72
                      A                      A                      A
 Frequencies --   1420.3079              1428.8052              1434.7830
 Red. masses --      1.3369                 1.3926                 1.2722
 Frc consts  --      1.5889                 1.6751                 1.5431
 IR Inten    --      8.4425                27.9739                 8.4444

                     73                     74                     75
                      A                      A                      A
 Frequencies --   1446.6073              1450.9469              1503.1718
 Red. masses --      1.2688                 1.2736                 1.1222
 Frc consts  --      1.5644                 1.5797                 1.4939
 IR Inten    --     31.1359                12.3914                 5.9115

                     76                     77                     78
                      A                      A                      A
 Frequencies --   1510.0077              1512.3010              1516.2711
 Red. masses --      1.0916                 1.1037                 1.0924
 Frc consts  --      1.4665                 1.4872                 1.4797
 IR Inten    --      1.5217                 4.6633                 3.3385

                     79                     80                     81
                      A                      A                      A
 Frequencies --   1520.4391              1522.0765              1523.6567
 Red. masses --      1.0901                 1.0794                 1.0786
 Frc consts  --      1.4847                 1.4734                 1.4753
 IR Inten    --     12.1167                 0.3161                 6.9637

                     82                     83                     84
                      A                      A                      A
 Frequencies --   1528.7163              1534.8556              1536.1033
 Red. masses --      1.0567                 1.0915                 1.0545
 Frc consts  --      1.4550                 1.5149                 1.4660
 IR Inten    --      2.7996                16.4938                10.0406

                     85                     86                     87
                      A                      A                      A
 Frequencies --   1544.3274              1550.6039              2911.3728
 Red. masses --      1.1388                 1.0791                 1.0821
 Frc consts  --      1.6002                 1.5287                 5.4041
 IR Inten    --     10.2619                 2.5270                66.9517

                     88                     89                     90
                      A                      A                      A
 Frequencies --   2935.8153              3007.5256              3016.1216
 Red. masses --      1.0723                 1.0678                 1.0671
 Frc consts  --      5.4452                 5.6909                 5.7192
 IR Inten    --     98.6523                22.3598                31.8419

                     91                     92                     93
                      A                      A                      A
 Frequencies --   3024.5602              3033.5475              3037.6857
 Red. masses --      1.0624                 1.0833                 1.0667
 Frc consts  --      5.7263                 5.8738                 5.7993
 IR Inten    --     36.8389                17.1758                42.2597

                     94                     95                     96
                      A                      A                      A
 Frequencies --   3041.0369              3045.6755              3046.5062
 Red. masses --      1.0457                 1.0363                 1.0646
 Frc consts  --      5.6978                 5.6638                 5.8216
 IR Inten    --     16.1011                14.5627                20.3110

                     97                     98                     99
                      A                      A                      A
 Frequencies --   3047.6744              3061.2522              3067.6149
 Red. masses --      1.0634                 1.0999                 1.0906
 Frc consts  --      5.8196                 6.0730                 6.0467
 IR Inten    --     42.6183                34.7535                29.4732

                    100                    101                    102
                      A                      A                      A
 Frequencies --   3069.7570              3070.8805              3082.3389
 Red. masses --      1.0921                 1.0887                 1.0916
 Frc consts  --      6.0634                 6.0488                 6.1104
 IR Inten    --     54.6486                16.3569                16.1298

                    103                    104                    105
                      A                      A                      A
 Frequencies --   3083.7413              3089.7604              3095.9141
 Red. masses --      1.0909                 1.1028                 1.1019
 Frc consts  --      6.1120                 6.2031                 6.2228
 IR Inten    --     91.2506                 0.8814               115.6117

                    106                    107                    108
                      A                      A                      A
 Frequencies --   3106.6951              3114.5889              3118.3050
 Red. masses --      1.1008                 1.1009                 1.0948
 Frc consts  --      6.2595                 6.2920                 6.2725
 IR Inten    --     45.1565                22.5175                53.2948

                    109                    110                    111
                      A                      A                      A
 Frequencies --   3145.1728              3486.1864              3717.6549
 Red. masses --      1.1010                 1.0730                 1.0658
 Frc consts  --      6.4170                 7.6837                 8.6788
 IR Inten    --     26.0866                 1.1674                 6.1748

 - Thermochemistry -
 -------------------
 Temperature   298.150 Kelvin.  Pressure   1.00000 Atm.
 Atom     1 has atomic number  6 and mass  12.00000

 Molecular mass:   199.19361 amu.
 Principal axes and moments of inertia in atomic units:
                           1         2         3
     Eigenvalues --  1267.390636902.910797325.13260
           X            0.99999   0.00110   0.00380
           Y           -0.00109   1.00000  -0.00103
           Z           -0.00380   0.00102   0.99999
 This molecule is an asymmetric top.
 Rotational symmetry number  1.
 Warning -- assumption of classical behavior for rotation
           may cause significant error
 Rotational temperatures (Kelvin)      0.06834     0.01255     0.01182
 Rotational constants (GHZ):           1.42398     0.26145     0.24638
 Zero-point vibrational energy     957236.9 (Joules/Mol)
                                  228.78512 (Kcal/Mol)
 Warning -- explicit consideration of  24 degrees of freedom as
           vibrations may cause significant error
 Vibrational temperatures:     21.12    28.64    64.60    91.72   144.16
          (Kelvin)            168.46   267.63   291.38   315.89   338.89
                              346.82   366.14   429.78   445.28   485.70
                              540.33   557.02   593.16   602.36   652.08
                              669.41   708.01   737.87   863.66   963.16
                             1110.35  1150.51  1165.85  1174.84  1220.94
                             1246.80  1269.40  1277.37  1291.81  1357.98
                             1366.22  1376.29  1422.86  1447.53  1491.89
                             1502.65  1508.43  1513.52  1539.04  1579.87
                             1592.04  1621.16  1647.02  1654.04  1670.52
                             1706.44  1723.63  1744.49  1816.57  1833.80
                             1852.39  1865.11  1877.97  1891.08  1930.34
                             1962.10  1973.01  1983.47  1990.48  1993.11
                             2020.01  2021.87  2029.62  2040.95  2043.51
                             2055.73  2064.33  2081.35  2087.59  2162.73
                             2172.56  2175.86  2181.58  2187.57  2189.93
                             2192.20  2199.48  2208.31  2210.11  2221.94
                             2230.97  4188.82  4223.98  4327.16  4339.53
                             4351.67  4364.60  4370.55  4375.37  4382.05
                             4383.24  4384.92  4404.46  4413.61  4416.70
                             4418.31  4434.80  4436.82  4445.48  4454.33
                             4469.84  4481.20  4486.55  4525.20  5015.84
                             5348.88

 Zero-point correction=                           0.364592 (Hartree/Particle)
 Thermal correction to Energy=                    0.380562
 Thermal correction to Enthalpy=                  0.381506
 Thermal correction to Gibbs Free Energy=         0.319313
 Sum of electronic and zero-point Energies=           -602.005352
 Sum of electronic and thermal Energies=              -601.989383
 Sum of electronic and thermal Enthalpies=            -601.988438
 Sum of electronic and thermal Free Energies=         -602.050632

                     E (Thermal)             CV                S
                      KCal/Mol        Cal/Mol-Kelvin    Cal/Mol-Kelvin
 Total                  238.806             60.950            130.898
 Electronic               0.000              0.000              0.000
 Translational            0.889              2.981             41.772
 Rotational               0.889              2.981             32.527
 Vibrational            237.029             54.988             56.598
 Vibration     1          0.593              1.986              7.249
 Vibration     2          0.593              1.986              6.643
 Vibration     3          0.595              1.979              5.030
 Vibration     4          0.597              1.972              4.338
 Vibration     5          0.604              1.949              3.451
 Vibration     6          0.608              1.935              3.148
 Vibration     7          0.632              1.859              2.267
 Vibration     8          0.639              1.836              2.110
 Vibration     9          0.647              1.811              1.963
 Vibration    10          0.655              1.786              1.836
 Vibration    11          0.658              1.778              1.795
 Vibration    12          0.665              1.755              1.699
 Vibration    13          0.692              1.676              1.424
 Vibration    14          0.699              1.656              1.365
 Vibration    15          0.718              1.600              1.224
 Vibration    16          0.746              1.522              1.057
 Vibration    17          0.756              1.498              1.011
 Vibration    18          0.776              1.444              0.919
 Vibration    19          0.782              1.430              0.897
 Vibration    20          0.812              1.354              0.786
 Vibration    21          0.823              1.327              0.751
 Vibration    22          0.848              1.268              0.678
 Vibration    23          0.868              1.222              0.627
 Vibration    24          0.958              1.031              0.449

 Optimization completed on the basis of negligible forces.
    -- Stationary point found.
 Normal termination of Gaussian 16 at Thu Dec 10 11:07:57 2020.

 ----------------------------------------------------------------------
 # B3LYP/6-311++G(d,p) empiricaldispersion=gd3bj scf=xqc pop=npa geom=c
 heck
 ----------------------------------------------------------------------

 ---------------------------------------
 CID_115654474_JID_4906_Energie_neutraal
 ---------------------------------------
 Structure from the checkpoint file:  "JID_4906.chk"
 Charge =  0 Multiplicity = 1

 SCF Done:  E(RB3LYP) =  -602.551100091     A.U. after   13 cycles
 Normal termination of Gaussian 16 at Thu Dec 10 11:13:31 2020.

 ----------------------------------------------------------------------
 # B3LYP/6-311++G(d,p) empiricaldispersion=gd3bj scf=xqc pop=npa geom=c
 heck
 ----------------------------------------------------------------------

 -------------------------------------
 CID_115654474_JID_4906_Energie_kation
 -------------------------------------
 Structure from the checkpoint file:  "JID_4906.chk"
 Charge =  1 Multiplicity = 2

 SCF Done:  E(UB3LYP) =  -602.248910126     A.U. after   22 cycles
 Normal termination of Gaussian 16 at Thu Dec 10 11:25:12 2020.
 Gaussian 16:  ES64L-G16RevA.03 25-Dec-2016

 ----------------------------------------------------------------------
 # B3LYP/6-311++G(d,p) empiricaldispersion=gd3bj scf=xqc pop=npa geom=c
 heck
 ----------------------------------------------------------------------

 ------------------------------------
 CID_115654474_JID_4906_Energie_anion
 ------------------------------------
 Structure from the checkpoint file:  "JID_4906.chk"
 Charge = -1 Multiplicity = 2

                         Standard orientation:
 ---------------------------------------------------------------------
 Center     Atomic      Atomic             Coordinates (Angstroms)
 Number     Number       Type             X           Y           Z
 ---------------------------------------------------------------------
      1          6           0        1.776768    2.233202    0.100246
      2          6           0        1.443744    0.898188   -0.583473
      3          6           0        2.718773    0.120053   -0.974324
      4          6           0        3.753403   -0.222084    0.110816
      5          6           0        3.324152   -1.317849    1.086310
      6          8           0        4.992525   -0.583409   -0.513581
      7          6           0        0.426888    0.078217    0.227419
      8          7           0       -0.917785    0.630891    0.087981
      9          6           0       -1.920284    0.042335    0.984049
     10          6           0       -3.201897    0.889529    0.922979
     11          6           0       -3.869328    0.830501   -0.458428
     12          6           0       -4.157466   -0.619026   -0.872878
     13          6           0       -2.887872   -1.479791   -0.812090
     14          6           0       -2.240596   -1.407367    0.576265
     15          1           0        2.196675    2.077218    1.100785
     16          1           0        0.888436    2.865407    0.213490
     17          1           0        2.506914    2.803904   -0.484575
     18          1           0        0.936845    1.125523   -1.531345
     19          1           0        2.422752   -0.814154   -1.477177
     20          1           0        3.256706    0.717119   -1.720771
     21          1           0        4.001198    0.683493    0.674769
     22          1           0        3.025631   -2.224269    0.542070
     23          1           0        4.161822   -1.573158    1.742565
     24          1           0        2.478632   -1.010341    1.707555
     25          1           0        4.820691   -1.381962   -1.038987
     26          1           0        0.416549   -0.951576   -0.147582
     27          1           0        0.737743    0.023745    1.288250
     28          1           0       -0.880894    1.631157    0.276474
     29          1           0       -1.554845    0.030412    2.030149
     30          1           0       -3.898589    0.516914    1.686051
     31          1           0       -2.971753    1.929734    1.194578
     32          1           0       -3.202911    1.290779   -1.197337
     33          1           0       -4.797155    1.416196   -0.449601
     34          1           0       -4.589038   -0.646051   -1.881278
     35          1           0       -4.913833   -1.044603   -0.196071
     36          1           0       -2.169686   -1.119182   -1.558104
     37          1           0       -3.122467   -2.521907   -1.062730
     38          1           0       -1.335890   -2.025270    0.613475
     39          1           0       -2.926953   -1.823550    1.326781
 ---------------------------------------------------------------------

 SCF Done:  E(UB3LYP) =  -602.538292438     A.U. after   25 cycles

 The electronic state is 2-A.
 Alpha  occ. eigenvalues --  -19.02572 -14.19370 -10.12632 -10.09488 -10.08916
 Alpha  occ. eigenvalues --  -10.08094 -10.07075 -10.06637 -10.06621 -10.06509
 Alpha  occ. eigenvalues --  -10.06442 -10.06355 -10.06216 -10.06178  -0.92751
 Alpha  occ. eigenvalues --   -0.81207  -0.72728  -0.70500  -0.65583  -0.64320
 Alpha  occ. eigenvalues --   -0.63003  -0.59352  -0.57118  -0.51825  -0.51059
 Alpha  occ. eigenvalues --   -0.49866  -0.46768  -0.44490  -0.40029  -0.38929
 Alpha  occ. eigenvalues --   -0.38316  -0.37538  -0.36266  -0.34895  -0.34115
 Alpha  occ. eigenvalues --   -0.33178  -0.32766  -0.31837  -0.31509  -0.30078
 Alpha  occ. eigenvalues --   -0.28704  -0.28159  -0.27859  -0.27119  -0.26901
 Alpha  occ. eigenvalues --   -0.26734  -0.25380  -0.24222  -0.23726  -0.22813
 Alpha  occ. eigenvalues --   -0.22180  -0.21970  -0.20452  -0.20010  -0.18133
 Alpha  occ. eigenvalues --   -0.12787   0.04190
 Alpha virt. eigenvalues --    0.06009   0.06588   0.07185   0.07858   0.08354
 Alpha virt. eigenvalues --    0.08566   0.09342   0.09581   0.10262   0.10508
 Alpha virt. eigenvalues --    0.10856   0.11117   0.11355   0.12554   0.12758

  Beta  occ. eigenvalues --  -19.02548 -14.19354 -10.12626 -10.09480 -10.08901
  Beta  occ. eigenvalues --  -10.08089 -10.07058 -10.06610 -10.06608 -10.06488
  Beta  occ. eigenvalues --  -10.06415 -10.06347 -10.06202 -10.06168  -0.92702
  Beta  occ. eigenvalues --   -0.81183  -0.72703  -0.70473  -0.65548  -0.64289
  Beta  occ. eigenvalues --   -0.62970  -0.59301  -0.57072  -0.51772  -0.51012
  Beta  occ. eigenvalues --   -0.49827  -0.46724  -0.44449  -0.39988  -0.38880
  Beta  occ. eigenvalues --   -0.38279  -0.37492  -0.36235  -0.34872  -0.34080
  Beta  occ. eigenvalues --   -0.33153  -0.32738  -0.31797  -0.31477  -0.30045
  Beta  occ. eigenvalues --   -0.28672  -0.28127  -0.27823  -0.27094  -0.26872
  Beta  occ. eigenvalues --   -0.26706  -0.25346  -0.24198  -0.23693  -0.22788
  Beta  occ. eigenvalues --   -0.22155  -0.21933  -0.20421  -0.19981  -0.18108
  Beta  occ. eigenvalues --   -0.12747
  Beta virt. eigenvalues --    0.06233   0.06848   0.07289   0.07542   0.08290
  Beta virt. eigenvalues --    0.08597   0.08861   0.09729   0.09977   0.10544
  Beta virt. eigenvalues --    0.10701   0.11018   0.11344   0.11548   0.12854

 Mulliken charges and spin densities:
               1          2
     1  C    0.276336  -0.892678
     2  C    0.868700  -0.317914
     3  C   -0.167257  -0.210973
     4  C   -0.797849   0.429474
     5  C    0.588395  -1.026197
     6  O   -0.229270   0.015022
     7  C   -1.104719   0.083818
     8  N    0.148686   0.006141
     9  C    0.469850  -0.263218
    10  C   -0.026824  -0.435803
    11  C   -0.121261  -0.070234
    12  C    0.168904  -0.685584
    13  C   -0.095488  -0.106476
    14  C   -0.199007  -0.192996
    15  H   -0.037698   0.186366
    16  H   -0.588741   0.716843
    17  H   -0.060623   0.210710
    18  H    0.202342  -0.006511
    19  H   -0.380044   0.528798
    20  H    0.016415   0.164002
    21  H    0.117951   0.063973
    22  H   -0.379004   0.531534
    23  H   -0.054178   0.209211
    24  H    0.021441   0.116229
    25  H    0.099200   0.145014
    26  H    0.652628  -0.541898
    27  H    0.186033  -0.050257
    28  H    0.801997  -0.614366
    29  H   -0.316276   0.493592
    30  H   -0.104988   0.242298
    31  H   -0.445390   0.608512
    32  H   -0.003797   0.123243
    33  H   -0.082000   0.244341
    34  H    0.040782   0.113680
    35  H   -0.019023   0.134266
    36  H   -0.012852   0.142721
    37  H   -0.076308   0.235945
    38  H   -0.208621   0.372711
    39  H   -0.148442   0.296659
 Sum of Mulliken charges =  -1.00000   1.00000

 Dipole moment (field-independent basis, Debye):
    X=             -0.6820    Y=              0.1732    Z=             -1.3668  Tot=              1.5373
 Quadrupole moment (field-independent basis, Debye-Ang):
   XX=           -181.0444   YY=           -139.6891   ZZ=           -125.8187
   XY=              6.0080   XZ=              5.3654   YZ=             -3.6569

 Summary of Natural Population Analysis:

                                       Natural Population
                Natural  -----------------------------------------------
    Atom  No    Charge         Core      Valence    Rydberg      Total
 -----------------------------------------------------------------------
      C    1   -0.28737      0.99965     2.28179    0.00594     3.28737
      C    2   -0.11667      0.99959     2.10735    0.00973     3.11667
      C    3   -0.19693      0.99959     2.18753    0.00981     3.19693
      C    4    0.06017      0.99958     1.92802    0.01223     2.93983
      C    5   -0.29916      0.99964     2.29391    0.00561     3.29916
      O    6   -0.37288      0.99990     3.36644    0.00654     4.37288
      C    7   -0.08214      0.99959     2.07331    0.00923     3.08214
      N    8   -0.34431      0.99972     2.83423    0.01036     3.84431
      C    9   -0.00550      0.99959     1.99287    0.01304     3.00550
      C   10   -0.19053      0.99961     2.18105    0.00987     3.19053
      C   11   -0.19246      0.99963     2.18416    0.00867     3.19246
      C   12   -0.18666      0.99963     2.18004    0.00699     3.18666
      C   13   -0.19328      0.99962     2.18501    0.00864     3.19328
      C   14   -0.19333      0.99961     2.18463    0.00909     3.19333
      H   15    0.09676      0.00000     0.40208    0.00116     0.40324
      H   16    0.09982      0.00000     0.39901    0.00117     0.40018
      H   17    0.09964      0.00000     0.39949    0.00087     0.40036
      H   18    0.09948      0.00000     0.39857    0.00195     0.40052
      H   19    0.09683      0.00000     0.40174    0.00143     0.40317
      H   20    0.10294      0.00000     0.39583    0.00123     0.39706
      H   21    0.08438      0.00000     0.41365    0.00197     0.41562
      H   22    0.09769      0.00000     0.40079    0.00152     0.40231
      H   23    0.10192      0.00000     0.39713    0.00094     0.39808
      H   24    0.10293      0.00000     0.39579    0.00128     0.39707
      H   25    0.22529      0.00000     0.27154    0.00317     0.27471
      H   26    0.09312      0.00000     0.40494    0.00194     0.40688
      H   27    0.07732      0.00000     0.42074    0.00194     0.42268
      H   28    0.17210      0.00000     0.32414    0.00376     0.32790
      H   29    0.08256      0.00000     0.41515    0.00229     0.41744
      H   30    0.09697      0.00000     0.40179    0.00124     0.40303
      H   31    0.09893      0.00000     0.39958    0.00148     0.40107
      H   32    0.09911      0.00000     0.39935    0.00154     0.40089
      H   33    0.09543      0.00000     0.40365    0.00092     0.40457
      H   34    0.09542      0.00000     0.40365    0.00093     0.40458
      H   35    0.08990      0.00000     0.40883    0.00127     0.41010
      H   36    0.10007      0.00000     0.39836    0.00157     0.39993
      H   37    0.09580      0.00000     0.40327    0.00092     0.40420
      H   38    0.10070      0.00000     0.39811    0.00119     0.39930
      H   39    0.09591      0.00000     0.40280    0.00129     0.40409
 =======================================================================
   * Total *   -0.00000     13.99496    41.84029    0.16475    56.00000

 Normal termination of Gaussian 16 at Thu Dec 10 11:37:40 2020.
