 Gaussian 16, Revision A.03,

 -----------------------------------------------------------
 # opt freq B3LYP/6-31G(d) empiricaldispersion=gd3bj scf=xqc
 -----------------------------------------------------------

 -------------------------------
 CID_151553349_JID_4151_neutraal
 -------------------------------
 Symbolic Z-matrix:
 Charge =  0 Multiplicity = 1

 SCF Done:  E(RB3LYP) =  -666.634981423     A.U. after   15 cycles
 SCF Done:  E(RB3LYP) =  -666.645444773     A.U. after   13 cycles
 SCF Done:  E(RB3LYP) =  -666.646442245     A.U. after   13 cycles
 SCF Done:  E(RB3LYP) =  -666.647173539     A.U. after   13 cycles
 SCF Done:  E(RB3LYP) =  -666.647414146     A.U. after   13 cycles
 SCF Done:  E(RB3LYP) =  -666.647532948     A.U. after   13 cycles
 SCF Done:  E(RB3LYP) =  -666.647682884     A.U. after   12 cycles
 SCF Done:  E(RB3LYP) =  -666.647829344     A.U. after   13 cycles
 SCF Done:  E(RB3LYP) =  -666.647893208     A.U. after   13 cycles
 SCF Done:  E(RB3LYP) =  -666.647934132     A.U. after   12 cycles
 SCF Done:  E(RB3LYP) =  -666.647969508     A.U. after   13 cycles
 SCF Done:  E(RB3LYP) =  -666.647972101     A.U. after    9 cycles
 SCF Done:  E(RB3LYP) =  -666.647972630     A.U. after    9 cycles
 SCF Done:  E(RB3LYP) =  -666.647972719     A.U. after    8 cycles
 SCF Done:  E(RB3LYP) =  -666.647972823     A.U. after    8 cycles
 SCF Done:  E(RB3LYP) =  -666.647972828     A.U. after    7 cycles
 Optimization completed.
    -- Stationary point found.
 Normal termination of Gaussian 16 at Thu Dec 10 09:19:59 2020.

 --------------------------------------------------------------------
 #N Geom=AllCheck Guess=TCheck SCRF=Check GenChk RB3LYP/6-31G(d) Freq
 --------------------------------------------------------------------

 Structure from the checkpoint file:  "JID_4151.chk"
 -------------------------------
 CID_151553349_JID_4151_neutraal
 -------------------------------
 Charge =  0 Multiplicity = 1

 SCF Done:  E(RB3LYP) =  -666.647972828     A.U. after    1 cycles

  Exact polarizability: 139.766 -10.570 112.347   2.075 -10.358 104.616
 Approx polarizability: 172.187 -24.276 177.824  12.957 -38.456 186.020

                      1                      2                      3
                      A                      A                      A
 Frequencies --     25.9040                34.1082                44.7788
 Red. masses --      4.5758                 6.2577                 5.6814
 Frc consts  --      0.0018                 0.0043                 0.0067
 IR Inten    --      0.3738                 0.4237                 0.3470

                      4                      5                      6
                      A                      A                      A
 Frequencies --     69.4417               103.1936               121.6488
 Red. masses --      3.6627                 2.8627                 4.3280
 Frc consts  --      0.0104                 0.0180                 0.0377
 IR Inten    --      0.5760                 2.7185                 0.5910

                      7                      8                      9
                      A                      A                      A
 Frequencies --    136.6641               163.0213               168.5918
 Red. masses --      2.4134                 1.7060                 1.4697
 Frc consts  --      0.0266                 0.0267                 0.0246
 IR Inten    --      0.9235                 0.0768                 0.2357

                     10                     11                     12
                      A                      A                      A
 Frequencies --    206.7033               223.1238               244.9901
 Red. masses --      2.8644                 3.9331                 1.6078
 Frc consts  --      0.0721                 0.1154                 0.0569
 IR Inten    --      5.6670                 1.0123                 0.0494

                     13                     14                     15
                      A                      A                      A
 Frequencies --    313.7594               339.1012               398.5370
 Red. masses --      2.1471                 2.2801                 3.1787
 Frc consts  --      0.1245                 0.1545                 0.2975
 IR Inten    --      0.6091                 1.9144                 0.9022

                     16                     17                     18
                      A                      A                      A
 Frequencies --    408.3269               438.0369               475.6369
 Red. masses --      2.2403                 6.0564                 3.1847
 Frc consts  --      0.2201                 0.6847                 0.4245
 IR Inten    --      0.5429                 2.8199                 3.3946

                     19                     20                     21
                      A                      A                      A
 Frequencies --    531.9627               573.1338               593.2549
 Red. masses --      4.2058                13.1333                 4.0838
 Frc consts  --      0.7012                 2.5418                 0.8468
 IR Inten    --      6.0595                15.0788                 0.7767

                     22                     23                     24
                      A                      A                      A
 Frequencies --    646.0126               678.3247               760.4508
 Red. masses --      5.0609                 5.9754                 1.2920
 Frc consts  --      1.2444                 1.6199                 0.4402
 IR Inten    --      8.8871                20.7327                 4.7518

                     25                     26                     27
                      A                      A                      A
 Frequencies --    804.4121               817.2030               828.6790
 Red. masses --      4.3096                 2.7880                 3.8552
 Frc consts  --      1.6430                 1.0970                 1.5598
 IR Inten    --     26.4362                18.1254                22.6847

                     28                     29                     30
                      A                      A                      A
 Frequencies --    862.7266               886.4189               929.1607
 Red. masses --      6.3960                 1.5292                 2.1680
 Frc consts  --      2.8048                 0.7079                 1.1028
 IR Inten    --     29.7594                 4.7908                 2.4883

                     31                     32                     33
                      A                      A                      A
 Frequencies --    969.5268               987.4278               990.6237
 Red. masses --      1.4800                 2.7781                 2.2620
 Frc consts  --      0.8196                 1.5959                 1.3079
 IR Inten    --     11.4057                58.8649                11.4571

                     34                     35                     36
                      A                      A                      A
 Frequencies --   1043.2219              1062.3279              1069.8405
 Red. masses --      4.5290                 2.0441                 1.3604
 Frc consts  --      2.9040                 1.3592                 0.9174
 IR Inten    --     29.8781                27.9536                 0.5847

                     37                     38                     39
                      A                      A                      A
 Frequencies --   1078.1002              1092.8148              1102.9214
 Red. masses --      2.5180                 1.8718                 1.8799
 Frc consts  --      1.7243                 1.3170                 1.3473
 IR Inten    --    102.6970                41.5348                76.1767

                     40                     41                     42
                      A                      A                      A
 Frequencies --   1132.0592              1155.2235              1181.4679
 Red. masses --      1.9977                 3.2608                 2.5658
 Frc consts  --      1.5084                 2.5639                 2.1101
 IR Inten    --     33.4250                66.4405               128.5875

                     43                     44                     45
                      A                      A                      A
 Frequencies --   1235.4241              1247.4476              1272.0043
 Red. masses --      1.3235                 1.6529                 1.5185
 Frc consts  --      1.1901                 1.5155                 1.4475
 IR Inten    --      0.7660               111.7045                 1.1591

                     46                     47                     48
                      A                      A                      A
 Frequencies --   1289.6388              1309.4414              1336.7560
 Red. masses --      1.6158                 4.7614                 1.3478
 Frc consts  --      1.5833                 4.8102                 1.4189
 IR Inten    --      4.9189               159.3678                11.6547

                     49                     50                     51
                      A                      A                      A
 Frequencies --   1339.1603              1377.0796              1396.6438
 Red. masses --      1.3362                 1.4663                 1.5129
 Frc consts  --      1.4118                 1.6383                 1.7388
 IR Inten    --     13.2130                 5.9925                11.0618

                     52                     53                     54
                      A                      A                      A
 Frequencies --   1400.0743              1410.8349              1419.6448
 Red. masses --      1.3223                 1.5007                 1.3156
 Frc consts  --      1.5271                 1.7599                 1.5622
 IR Inten    --      1.7323                 5.7029                11.0761

                     55                     56                     57
                      A                      A                      A
 Frequencies --   1442.4937              1446.9127              1513.0584
 Red. masses --      1.2591                 1.2638                 1.0754
 Frc consts  --      1.5436                 1.5589                 1.4505
 IR Inten    --      7.4235                 0.8840                 1.6025

                     58                     59                     60
                      A                      A                      A
 Frequencies --   1514.7805              1520.3833              1525.9460
 Red. masses --      1.0527                 1.0740                 1.0650
 Frc consts  --      1.4232                 1.4628                 1.4611
 IR Inten    --      1.8836                 9.4628                 3.0230

                     61                     62                     63
                      A                      A                      A
 Frequencies --   1527.2401              1536.0543              1537.9987
 Red. masses --      1.0653                 1.0616                 1.0893
 Frc consts  --      1.4640                 1.4758                 1.5181
 IR Inten    --      1.0173                 6.4809                 6.4534

                     64                     65                     66
                      A                      A                      A
 Frequencies --   1541.2460              1812.9342              2269.6935
 Red. masses --      1.0661                 9.0349                13.8809
 Frc consts  --      1.4920                17.4959                42.1310
 IR Inten    --      1.3757               236.2287               355.2683

                     67                     68                     69
                      A                      A                      A
 Frequencies --   3025.8345              3030.6256              3036.0552
 Red. masses --      1.0652                 1.0409                 1.0619
 Frc consts  --      5.7463                 5.6325                 5.7670
 IR Inten    --     26.5660                42.5537                25.8618

                     70                     71                     72
                      A                      A                      A
 Frequencies --   3044.1504              3048.6504              3049.9788
 Red. masses --      1.0405                 1.0688                 1.0587
 Frc consts  --      5.6809                 5.8529                 5.8023
 IR Inten    --     13.3579                65.1487                20.2542

                     73                     74                     75
                      A                      A                      A
 Frequencies --   3067.0956              3073.0319              3073.4937
 Red. masses --      1.0979                 1.0998                 1.1010
 Frc consts  --      6.0852                 6.1194                 6.1276
 IR Inten    --     35.0923                22.8716                31.8422

                     76                     77                     78
                      A                      A                      A
 Frequencies --   3089.7807              3108.3218              3117.8197
 Red. masses --      1.1018                 1.1015                 1.1012
 Frc consts  --      6.1971                 6.2702                 6.3070
 IR Inten    --     58.0293                47.6554                54.4490

                     79                     80                     81
                      A                      A                      A
 Frequencies --   3142.7484              3162.8173              3171.8958
 Red. masses --      1.0970                 1.0984                 1.0902
 Frc consts  --      6.3835                 6.4739                 6.4622
 IR Inten    --     14.8921                14.3447                21.2752

 - Thermochemistry -
 -------------------
 Temperature   298.150 Kelvin.  Pressure   1.00000 Atm.
 Atom     1 has atomic number  6 and mass  12.00000

 Molecular mass:   197.11643 amu.
 Principal axes and moments of inertia in atomic units:
                           1         2         3
     Eigenvalues --  1228.756234993.673955215.33675
           X            0.99989  -0.01424   0.00300
           Y            0.01399   0.99730   0.07208
           Z           -0.00401  -0.07203   0.99739
 This molecule is an asymmetric top.
 Rotational symmetry number  1.
 Warning -- assumption of classical behavior for rotation
           may cause significant error
 Rotational temperatures (Kelvin)      0.07049     0.01734     0.01661
 Rotational constants (GHZ):           1.46875     0.36141     0.34604
 Zero-point vibrational energy     640947.5 (Joules/Mol)
                                  153.19013 (Kcal/Mol)
 Warning -- explicit consideration of  21 degrees of freedom as
           vibrations may cause significant error
 Vibrational temperatures:     37.27    49.07    64.43    99.91   148.47
          (Kelvin)            175.03   196.63   234.55   242.57   297.40
                              321.03   352.49   451.43   487.89   573.41
                              587.49   630.24   684.34   765.38   824.61
                              853.56   929.47   975.96  1094.12  1157.37
                             1175.77  1192.28  1241.27  1275.36  1336.85
                             1394.93  1420.69  1425.29  1500.96  1528.45
                             1539.26  1551.15  1572.32  1586.86  1628.78
                             1662.11  1699.87  1777.50  1794.80  1830.13
                             1855.50  1883.99  1923.29  1926.75  1981.31
                             2009.46  2014.39  2029.88  2042.55  2075.43
                             2081.78  2176.95  2179.43  2187.49  2195.50
                             2197.36  2210.04  2212.84  2217.51  2608.41
                             3265.58  4353.50  4360.39  4368.21  4379.85
                             4386.33  4388.24  4412.87  4421.41  4422.07
                             4445.51  4472.18  4485.85  4521.71  4550.59
                             4563.65

 Zero-point correction=                           0.244124 (Hartree/Particle)
 Thermal correction to Energy=                    0.258940
 Thermal correction to Enthalpy=                  0.259884
 Thermal correction to Gibbs Free Energy=         0.200334
 Sum of electronic and zero-point Energies=           -666.403849
 Sum of electronic and thermal Energies=              -666.389033
 Sum of electronic and thermal Enthalpies=            -666.388089
 Sum of electronic and thermal Free Energies=         -666.447639

                     E (Thermal)             CV                S
                      KCal/Mol        Cal/Mol-Kelvin    Cal/Mol-Kelvin
 Total                  162.487             53.031            125.333
 Electronic               0.000              0.000              0.000
 Translational            0.889              2.981             41.741
 Rotational               0.889              2.981             31.837
 Vibrational            160.710             47.070             51.755
 Vibration     1          0.593              1.985              6.121
 Vibration     2          0.594              1.983              5.575
 Vibration     3          0.595              1.979              5.036
 Vibration     4          0.598              1.969              4.169
 Vibration     5          0.605              1.947              3.393
 Vibration     6          0.609              1.931              3.074
 Vibration     7          0.614              1.917              2.850
 Vibration     8          0.623              1.888              2.514
 Vibration     9          0.625              1.881              2.451
 Vibration    10          0.641              1.830              2.073
 Vibration    11          0.649              1.806              1.934
 Vibration    12          0.660              1.771              1.766
 Vibration    13          0.702              1.647              1.342
 Vibration    14          0.719              1.597              1.216
 Vibration    15          0.765              1.473              0.968
 Vibration    16          0.773              1.452              0.933
 Vibration    17          0.798              1.387              0.833
 Vibration    18          0.832              1.304              0.722
 Vibration    19          0.887              1.179              0.583
 Vibration    20          0.929              1.089              0.498
 Vibration    21          0.951              1.046              0.461

 Optimization completed.
    -- Stationary point found.
 Normal termination of Gaussian 16 at Thu Dec 10 09:27:25 2020.

 ----------------------------------------------------------------------
 # B3LYP/6-311++G(d,p) empiricaldispersion=gd3bj scf=xqc pop=npa geom=c
 heck
 ----------------------------------------------------------------------

 ---------------------------------------
 CID_151553349_JID_4151_Energie_neutraal
 ---------------------------------------
 Structure from the checkpoint file:  "JID_4151.chk"
 Charge =  0 Multiplicity = 1

 SCF Done:  E(RB3LYP) =  -666.833112664     A.U. after   15 cycles
 Normal termination of Gaussian 16 at Thu Dec 10 09:30:22 2020.

 ----------------------------------------------------------------------
 # B3LYP/6-311++G(d,p) empiricaldispersion=gd3bj scf=xqc pop=npa geom=c
 heck
 ----------------------------------------------------------------------

 -------------------------------------
 CID_151553349_JID_4151_Energie_kation
 -------------------------------------
 Structure from the checkpoint file:  "JID_4151.chk"
 Charge =  1 Multiplicity = 2

 SCF Done:  E(UB3LYP) =  -666.550845541     A.U. after   23 cycles
 Normal termination of Gaussian 16 at Thu Dec 10 09:36:31 2020.
 Gaussian 16:  ES64L-G16RevA.03 25-Dec-2016

 ----------------------------------------------------------------------
 # B3LYP/6-311++G(d,p) empiricaldispersion=gd3bj scf=xqc pop=npa geom=c
 heck
 ----------------------------------------------------------------------

 ------------------------------------
 CID_151553349_JID_4151_Energie_anion
 ------------------------------------
 Structure from the checkpoint file:  "JID_4151.chk"
 Charge = -1 Multiplicity = 2

                         Standard orientation:
 ---------------------------------------------------------------------
 Center     Atomic      Atomic             Coordinates (Angstroms)
 Number     Number       Type             X           Y           Z
 ---------------------------------------------------------------------
      1          6           0       -4.553154    0.324266    0.235770
      2          6           0       -3.491824   -0.776582    0.324457
      3          6           0       -2.577435   -0.862705   -0.904451
      4          6           0       -1.681802    0.371731   -1.136166
      5          6           0       -0.754862    0.688220    0.020591
      6          6           0        0.336389   -0.053221    0.208368
      7          8           0        0.751313   -1.064093   -0.629024
      8          6           0        1.770247   -1.793109    0.053801
      9          6           0        2.361873   -0.730895    0.989856
     10          8           0        1.232600    0.087746    1.256391
     11          7           0        3.493770    0.011349    0.418225
     12          7           0        3.230973    0.723969   -0.563504
     13          7           0        3.131704    1.431241   -1.450694
     14          6           0       -1.078352    1.833588    0.942486
     15          1           0       -4.102595    1.320808    0.173523
     16          1           0       -5.208945    0.314440    1.113670
     17          1           0       -5.182634    0.191447   -0.652977
     18          1           0       -2.875655   -0.627369    1.220978
     19          1           0       -3.992624   -1.744769    0.457340
     20          1           0       -1.926723   -1.740426   -0.807532
     21          1           0       -3.191164   -1.025521   -1.802170
     22          1           0       -1.097507    0.201339   -2.048510
     23          1           0       -2.304982    1.252415   -1.332112
     24          1           0        2.481294   -2.178313   -0.677439
     25          1           0        1.332531   -2.619236    0.629517
     26          1           0        2.732198   -1.128402    1.933021
     27          1           0       -1.170243    2.771431    0.377738
     28          1           0       -2.037204    1.677082    1.453880
     29          1           0       -0.308657    1.972174    1.705666
 ---------------------------------------------------------------------

 SCF Done:  E(UB3LYP) =  -666.826875897     A.U. after   32 cycles

 The electronic state is 2-A.
 Alpha  occ. eigenvalues --  -19.05948 -19.05876 -14.33457 -14.24068 -14.22886
 Alpha  occ. eigenvalues --  -10.16789 -10.16429 -10.13106 -10.06880 -10.06789
 Alpha  occ. eigenvalues --  -10.06707 -10.06533 -10.06479 -10.05832  -1.02947
 Alpha  occ. eigenvalues --   -1.00265  -0.92963  -0.84735  -0.72613  -0.69184
 Alpha  occ. eigenvalues --   -0.65628  -0.61858  -0.58041  -0.55821  -0.54566
 Alpha  occ. eigenvalues --   -0.48268  -0.46617  -0.45841  -0.41803  -0.39117
 Alpha  occ. eigenvalues --   -0.38166  -0.37114  -0.36223  -0.36053  -0.35215
 Alpha  occ. eigenvalues --   -0.33788  -0.31852  -0.31717  -0.30935  -0.29580
 Alpha  occ. eigenvalues --   -0.29191  -0.28437  -0.27679  -0.26888  -0.26595
 Alpha  occ. eigenvalues --   -0.25407  -0.23535  -0.22943  -0.22247  -0.21949
 Alpha  occ. eigenvalues --   -0.18091  -0.13886  -0.10056   0.04516
 Alpha virt. eigenvalues --    0.05993   0.07345   0.07932   0.08321   0.09211
 Alpha virt. eigenvalues --    0.09340   0.10566   0.10926   0.11117   0.11765
 Alpha virt. eigenvalues --    0.11907   0.12817   0.12995   0.14022   0.14238

  Beta  occ. eigenvalues --  -19.05943 -19.05879 -14.33166 -14.23676 -14.22934
  Beta  occ. eigenvalues --  -10.16785 -10.16331 -10.13070 -10.06878 -10.06777
  Beta  occ. eigenvalues --  -10.06689 -10.06528 -10.06470 -10.05834  -1.02874
  Beta  occ. eigenvalues --   -0.99755  -0.92941  -0.84456  -0.72589  -0.69134
  Beta  occ. eigenvalues --   -0.65544  -0.61840  -0.57878  -0.55756  -0.54529
  Beta  occ. eigenvalues --   -0.48215  -0.46508  -0.45760  -0.41502  -0.39012
  Beta  occ. eigenvalues --   -0.37831  -0.37036  -0.36109  -0.35429  -0.35014
  Beta  occ. eigenvalues --   -0.33516  -0.31697  -0.31070  -0.30894  -0.29563
  Beta  occ. eigenvalues --   -0.29167  -0.28406  -0.27635  -0.26871  -0.26505
  Beta  occ. eigenvalues --   -0.25389  -0.23494  -0.22912  -0.22221  -0.21826
  Beta  occ. eigenvalues --   -0.17429  -0.13779  -0.10031
  Beta virt. eigenvalues --    0.06330   0.07789   0.08060   0.08435   0.09222
  Beta virt. eigenvalues --    0.09786   0.10290   0.10896   0.11028   0.11429
  Beta virt. eigenvalues --    0.11915   0.12090   0.13012   0.13202   0.13971

 Mulliken charges and spin densities:
               1          2
     1  C    0.279229  -0.901113
     2  C   -0.598681   0.331968
     3  C    0.219995  -0.375503
     4  C   -0.647450   0.111442
     5  C    0.408797  -0.024340
     6  C   -0.107249  -0.226884
     7  O   -0.054848   0.040900
     8  C    1.831146  -1.954279
     9  C   -0.745087   0.576759
    10  O   -0.037441   0.019500
    11  N   -0.164379   0.157500
    12  N    0.528878   0.044675
    13  N   -0.378351   0.001504
    14  C   -0.403831  -0.300009
    15  H    0.033988   0.105944
    16  H   -0.141916   0.274819
    17  H   -0.016134   0.143958
    18  H    0.082952   0.073130
    19  H   -0.242509   0.389447
    20  H    0.099706   0.048967
    21  H   -0.038679   0.155463
    22  H    0.191816   0.008181
    23  H    0.125585   0.007404
    24  H   -0.159040   0.339973
    25  H   -0.273064   0.434051
    26  H   -1.122043   1.384851
    27  H    0.107169   0.033944
    28  H    0.151658  -0.004122
    29  H    0.069785   0.101871
 Sum of Mulliken charges =  -1.00000   1.00000

 Dipole moment (field-independent basis, Debye):
    X=             -3.9676    Y=              2.1785    Z=             -2.0426  Tot=              4.9659
 Quadrupole moment (field-independent basis, Debye-Ang):
   XX=           -163.6457   YY=           -116.2328   ZZ=           -115.8566
   XY=             -2.0276   XZ=             -1.4002   YZ=              8.5778

 Summary of Natural Population Analysis:

                                       Natural Population
                Natural  -----------------------------------------------
    Atom  No    Charge         Core      Valence    Rydberg      Total
 -----------------------------------------------------------------------
      C    1   -0.28917      0.99967     2.28352    0.00599     3.28917
      C    2   -0.19416      0.99964     2.18671    0.00780     3.19416
      C    3   -0.18605      0.99962     2.17744    0.00899     3.18605
      C    4   -0.19331      0.99961     2.18571    0.00799     3.19331
      C    5   -0.09419      0.99943     2.08425    0.01051     3.09419
      C    6    0.30680      0.99926     1.67529    0.01865     2.69320
      O    7   -0.27799      0.99987     3.27079    0.00733     4.27799
      C    8   -0.02449      0.99956     2.01278    0.01215     3.02449
      C    9    0.13396      0.99957     1.84670    0.01978     2.86604
      O   10   -0.27956      0.99986     3.27246    0.00723     4.27956
      N   11   -0.21844      0.99970     2.70396    0.01478     3.71844
      N   12    0.13651      0.99970     2.34711    0.01668     3.36349
      N   13    0.00373      0.99981     2.48387    0.01258     3.49627
      C   14   -0.28618      0.99964     2.28204    0.00451     3.28618
      H   15    0.09548      0.00000     0.40366    0.00086     0.40452
      H   16    0.09801      0.00000     0.40115    0.00085     0.40199
      H   17    0.09387      0.00000     0.40519    0.00095     0.40613
      H   18    0.09769      0.00000     0.40107    0.00124     0.40231
      H   19    0.09485      0.00000     0.40404    0.00110     0.40515
      H   20    0.10146      0.00000     0.39714    0.00140     0.39854
      H   21    0.08942      0.00000     0.40959    0.00098     0.41058
      H   22    0.10592      0.00000     0.39301    0.00107     0.39408
      H   23    0.09402      0.00000     0.40487    0.00111     0.40598
      H   24    0.09975      0.00000     0.39862    0.00163     0.40025
      H   25    0.08918      0.00000     0.40868    0.00213     0.41082
      H   26    0.10144      0.00000     0.39331    0.00525     0.39856
      H   27    0.09546      0.00000     0.40343    0.00111     0.40454
      H   28    0.09632      0.00000     0.40251    0.00117     0.40368
      H   29    0.10966      0.00000     0.38944    0.00091     0.39034
 =======================================================================
   * Total *    0.00000     13.99495    38.82832    0.17673    53.00000

 Normal termination of Gaussian 16 at Thu Dec 10 09:44:57 2020.
