 Gaussian 16, Revision A.03,

 -----------------------------------------------------------
 # opt freq B3LYP/6-31G(d) empiricaldispersion=gd3bj scf=xqc
 -----------------------------------------------------------

 -------------------------------
 CID_150373360_JID_2676_neutraal
 -------------------------------
 Symbolic Z-matrix:
 Charge =  0 Multiplicity = 1

 SCF Done:  E(RB3LYP) =  -579.324902170     A.U. after   18 cycles
 SCF Done:  E(RB3LYP) =  -579.334514806     A.U. after   17 cycles
 SCF Done:  E(RB3LYP) =  -579.335246596     A.U. after   16 cycles
 SCF Done:  E(RB3LYP) =  -579.336467111     A.U. after   13 cycles
 SCF Done:  E(RB3LYP) =  -579.336524657     A.U. after   11 cycles
 SCF Done:  E(RB3LYP) =  -579.336531337     A.U. after   10 cycles
 Optimization completed.
    -- Stationary point found.
 Normal termination of Gaussian 16 at Wed Dec  9 17:46:00 2020.

 --------------------------------------------------------------------
 #N Geom=AllCheck Guess=TCheck SCRF=Check GenChk RB3LYP/6-31G(d) Freq
 --------------------------------------------------------------------

 Structure from the checkpoint file:  "JID_2676.chk"
 -------------------------------
 CID_150373360_JID_2676_neutraal
 -------------------------------
 Charge =  0 Multiplicity = 1

 SCF Done:  E(RB3LYP) =  -579.336531337     A.U. after    1 cycles

  Exact polarizability: 145.773   8.275 121.015  -0.002  -0.003  34.986
 Approx polarizability: 264.548  35.291 263.894  -0.008  -0.018  55.130

                      1                      2                      3
                      A                      A                      A
 Frequencies --     65.2244               106.3072               167.8703
 Red. masses --     10.3463                10.5197                 7.8517
 Frc consts  --      0.0259                 0.0700                 0.1304
 IR Inten    --      0.1213                 0.8412                 0.0416

                      4                      5                      6
                      A                      A                      A
 Frequencies --    224.7236               293.7024               331.7611
 Red. masses --      5.4388                10.4410                 6.4059
 Frc consts  --      0.1618                 0.5307                 0.4154
 IR Inten    --      3.4115                 0.4770                 0.9944

                      7                      8                      9
                      A                      A                      A
 Frequencies --    459.3705               493.6804               498.7084
 Red. masses --     12.5000                11.5732                12.6774
 Frc consts  --      1.5541                 1.6619                 1.8577
 IR Inten    --      7.4096                 0.7617                 7.1134

                     10                     11                     12
                      A                      A                      A
 Frequencies --    535.1399               570.0064               580.4474
 Red. masses --      6.1824                10.6687                 3.3701
 Frc consts  --      1.0431                 2.0423                 0.6690
 IR Inten    --     10.2067                 1.2688                 2.2818

                     13                     14                     15
                      A                      A                      A
 Frequencies --    638.6300               660.3172               675.3201
 Red. masses --      3.3036                 9.9459                 1.6107
 Frc consts  --      0.7938                 2.5551                 0.4328
 IR Inten    --     16.3573                12.7890                17.6269

                     16                     17                     18
                      A                      A                      A
 Frequencies --    751.0067               779.0469               795.2202
 Red. masses --     11.8339                 9.6692                 9.7481
 Frc consts  --      3.9325                 3.4576                 3.6320
 IR Inten    --      9.7682                 9.1212                 0.9872

                     19                     20                     21
                      A                      A                      A
 Frequencies --    879.9083               941.6588               975.6749
 Red. masses --      1.2080                 5.5486                 1.4629
 Frc consts  --      0.5511                 2.8988                 0.8205
 IR Inten    --     12.1161                37.6376                 0.0623

                     22                     23                     24
                      A                      A                      A
 Frequencies --   1019.6736              1095.9945              1138.4102
 Red. masses --      2.8143                 5.7626                 3.8316
 Frc consts  --      1.7240                 4.0783                 2.9257
 IR Inten    --      6.4057                70.4375                21.0120

                     25                     26                     27
                      A                      A                      A
 Frequencies --   1214.6379              1251.7904              1310.1819
 Red. masses --      3.4227                 4.7400                 2.2259
 Frc consts  --      2.9752                 4.3761                 2.2512
 IR Inten    --      0.2099                20.6027                 3.7855

                     28                     29                     30
                      A                      A                      A
 Frequencies --   1350.8400              1390.8140              1411.6365
 Red. masses --      4.0421                 2.3022                 4.0987
 Frc consts  --      4.3457                 2.6238                 4.8122
 IR Inten    --     34.9079                29.4450                13.7037

                     31                     32                     33
                      A                      A                      A
 Frequencies --   1435.5212              1521.4201              1598.2779
 Red. masses --      2.4022                 5.5199                 6.9052
 Frc consts  --      2.9166                 7.5279                10.3927
 IR Inten    --     26.5098                74.0877                 8.0255

                     34                     35                     36
                      A                      A                      A
 Frequencies --   1619.2852              1625.5539              2286.7153
 Red. masses --      6.9243                 8.2979                13.9971
 Frc consts  --     10.6972                12.9187                43.1233
 IR Inten    --     36.8376               136.8642               806.6971

                     37                     38                     39
                      A                      A                      A
 Frequencies --   3169.7460              3189.0410              3324.4038
 Red. masses --      1.0889                 1.0936                 1.0988
 Frc consts  --      6.4462                 6.5528                 7.1548
 IR Inten    --     14.9791                32.0774                 2.1866

 - Thermochemistry -
 -------------------
 Temperature   298.150 Kelvin.  Pressure   1.00000 Atm.
 Atom     1 has atomic number  6 and mass  12.00000

 Molecular mass:   161.03376 amu.
 Principal axes and moments of inertia in atomic units:
                           1         2         3
     Eigenvalues --  1004.666112152.229113156.89515
           X            0.99981  -0.01945   0.00000
           Y            0.01945   0.99981   0.00000
           Z           -0.00000  -0.00000   1.00000
 This molecule is an asymmetric top.
 Rotational symmetry number  1.
 Warning -- assumption of classical behavior for rotation
           may cause significant error
 Rotational temperatures (Kelvin)      0.08621     0.04024     0.02744
 Rotational constants (GHZ):           1.79636     0.83855     0.57168
 Zero-point vibrational energy     253474.7 (Joules/Mol)
                                   60.58192 (Kcal/Mol)
 Warning -- explicit consideration of  12 degrees of freedom as
           vibrations may cause significant error
 Vibrational temperatures:     93.84   152.95   241.53   323.33   422.57
          (Kelvin)            477.33   660.93   710.30   717.53   769.95
                              820.11   835.13   918.85   950.05   971.63
                             1080.53  1120.87  1144.14  1265.99  1354.84
                             1403.78  1467.08  1576.89  1637.92  1747.59
                             1801.05  1885.06  1943.56  2001.07  2031.03
                             2065.39  2188.98  2299.57  2329.79  2338.81
                             3290.07  4560.56  4588.32  4783.08

 Zero-point correction=                           0.096543 (Hartree/Particle)
 Thermal correction to Energy=                    0.105066
 Thermal correction to Enthalpy=                  0.106010
 Thermal correction to Gibbs Free Energy=         0.062123
 Sum of electronic and zero-point Energies=           -579.239988
 Sum of electronic and thermal Energies=              -579.231465
 Sum of electronic and thermal Enthalpies=            -579.230521
 Sum of electronic and thermal Free Energies=         -579.274409

                     E (Thermal)             CV                S
                      KCal/Mol        Cal/Mol-Kelvin    Cal/Mol-Kelvin
 Total                   65.930             32.305             92.369
 Electronic               0.000              0.000              0.000
 Translational            0.889              2.981             41.138
 Rotational               0.889              2.981             30.302
 Vibrational             64.152             26.344             20.929
 Vibration     1          0.597              1.971              4.293
 Vibration     2          0.605              1.944              3.335
 Vibration     3          0.625              1.882              2.459
 Vibration     4          0.649              1.803              1.921
 Vibration     5          0.688              1.685              1.453
 Vibration     6          0.714              1.612              1.251
 Vibration     7          0.817              1.340              0.768
 Vibration     8          0.849              1.264              0.674
 Vibration     9          0.854              1.253              0.661
 Vibration    10          0.890              1.172              0.576
 Vibration    11          0.926              1.096              0.504
 Vibration    12          0.937              1.074              0.485

 Optimization completed.
    -- Stationary point found.
 Normal termination of Gaussian 16 at Wed Dec  9 17:48:50 2020.

 ----------------------------------------------------------------------
 # B3LYP/6-311++G(d,p) empiricaldispersion=gd3bj scf=xqc pop=npa geom=c
 heck
 ----------------------------------------------------------------------

 ---------------------------------------
 CID_150373360_JID_2676_Energie_neutraal
 ---------------------------------------
 Structure from the checkpoint file:  "JID_2676.chk"
 Charge =  0 Multiplicity = 1

 SCF Done:  E(RB3LYP) =  -579.486603735     A.U. after   16 cycles
 Normal termination of Gaussian 16 at Wed Dec  9 17:49:47 2020.

 ----------------------------------------------------------------------
 # B3LYP/6-311++G(d,p) empiricaldispersion=gd3bj scf=xqc pop=npa geom=c
 heck
 ----------------------------------------------------------------------

 -------------------------------------
 CID_150373360_JID_2676_Energie_kation
 -------------------------------------
 Structure from the checkpoint file:  "JID_2676.chk"
 Charge =  1 Multiplicity = 2

 SCF Done:  E(UB3LYP) =  -579.195695773     A.U. after   22 cycles
 Normal termination of Gaussian 16 at Wed Dec  9 17:52:12 2020.
 Gaussian 16:  ES64L-G16RevA.03 25-Dec-2016

 ----------------------------------------------------------------------
 # B3LYP/6-311++G(d,p) empiricaldispersion=gd3bj scf=xqc pop=npa geom=c
 heck
 ----------------------------------------------------------------------

 ------------------------------------
 CID_150373360_JID_2676_Energie_anion
 ------------------------------------
 Structure from the checkpoint file:  "JID_2676.chk"
 Charge = -1 Multiplicity = 2

                         Standard orientation:
 ---------------------------------------------------------------------
 Center     Atomic      Atomic             Coordinates (Angstroms)
 Number     Number       Type             X           Y           Z
 ---------------------------------------------------------------------
      1          6           0        2.652588   -1.103478    0.000034
      2          7           0        2.643822    0.205557    0.000166
      3          6           0        1.384939    0.749397    0.000095
      4          6           0        0.949575    2.051221    0.000160
      5          8           0       -0.421453    2.054410    0.000036
      6          6           0       -0.878049    0.783229   -0.000129
      7          6           0        0.199961   -0.086117   -0.000091
      8          7           0        0.245117   -1.446710   -0.000199
      9          6           0        1.463977   -1.930304   -0.000144
     10          7           0       -2.252694    0.664457   -0.000485
     11          7           0       -2.728055   -0.485483    0.000014
     12          7           0       -3.321431   -1.456343    0.000510
     13          1           0        3.625247   -1.593197    0.000083
     14          1           0        1.426762    3.016640    0.000270
     15          1           0        1.574353   -3.012742   -0.000234
 ---------------------------------------------------------------------

 SCF Done:  E(UB3LYP) =  -579.525823937     A.U. after   23 cycles

 The electronic state is 2-A.
 Alpha  occ. eigenvalues --  -19.03990 -14.35551 -14.25779 -14.25117 -14.14514
 Alpha  occ. eigenvalues --  -14.14279 -10.11218 -10.06459 -10.05186 -10.05031
 Alpha  occ. eigenvalues --  -10.04486 -10.04167  -1.02097  -0.97630  -0.86490
 Alpha  occ. eigenvalues --   -0.80878  -0.74593  -0.64091  -0.63129  -0.52403
 Alpha  occ. eigenvalues --   -0.51765  -0.48116  -0.40117  -0.39415  -0.38979
 Alpha  occ. eigenvalues --   -0.36560  -0.35961  -0.33348  -0.32642  -0.31994
 Alpha  occ. eigenvalues --   -0.28926  -0.25328  -0.25326  -0.23513  -0.20018
 Alpha  occ. eigenvalues --   -0.19755  -0.17251  -0.15424  -0.12502  -0.08500
 Alpha  occ. eigenvalues --   -0.05769   0.02600
 Alpha virt. eigenvalues --    0.08428   0.09988   0.10758   0.10784   0.12243
 Alpha virt. eigenvalues --    0.13571   0.15120   0.15723   0.16869   0.17104
 Alpha virt. eigenvalues --    0.17981   0.18517   0.19197   0.19607   0.20265

  Beta  occ. eigenvalues --  -19.03626 -14.35444 -14.25606 -14.25211 -14.13995
  Beta  occ. eigenvalues --  -14.13717 -10.11011 -10.06280 -10.05288 -10.05118
  Beta  occ. eigenvalues --  -10.04404 -10.04028  -1.01891  -0.97058  -0.86401
  Beta  occ. eigenvalues --   -0.80178  -0.73649  -0.63829  -0.62762  -0.51672
  Beta  occ. eigenvalues --   -0.51456  -0.47913  -0.39907  -0.38853  -0.38652
  Beta  occ. eigenvalues --   -0.36274  -0.35730  -0.33011  -0.31749  -0.31373
  Beta  occ. eigenvalues --   -0.28753  -0.25075  -0.23553  -0.23264  -0.19744
  Beta  occ. eigenvalues --   -0.18853  -0.15399  -0.14721  -0.11345  -0.07938
  Beta  occ. eigenvalues --   -0.04259
  Beta virt. eigenvalues --    0.08580   0.08862   0.09963   0.10747   0.12197
  Beta virt. eigenvalues --    0.12222   0.13575   0.15678   0.15713   0.17125
  Beta virt. eigenvalues --    0.17220   0.17979   0.19154   0.19290   0.19777

 Mulliken charges and spin densities:
               1          2
     1  C   -0.079383   0.092213
     2  N   -0.137131   0.249955
     3  C   -0.297485  -0.060177
     4  C   -0.295534   0.163935
     5  O   -0.070628   0.074871
     6  C   -1.110214   0.138522
     7  C    0.868084  -0.075095
     8  N   -0.149130   0.229150
     9  C   -0.003674   0.141559
    10  N   -0.101329  -0.047779
    11  N    0.373356   0.032925
    12  N   -0.388491   0.089505
    13  H    0.127866  -0.008369
    14  H    0.133693  -0.009517
    15  H    0.130003  -0.011698
 Sum of Mulliken charges =  -1.00000   1.00000

 Dipole moment (field-independent basis, Debye):
    X=             -1.3624    Y=              1.0160    Z=             -0.0002  Tot=              1.6995
 Quadrupole moment (field-independent basis, Debye-Ang):
   XX=            -98.9788   YY=            -83.8966   ZZ=            -73.2703
   XY=             -4.3651   XZ=              0.0003   YZ=              0.0013

 Summary of Natural Population Analysis:

                                       Natural Population
                Natural  -----------------------------------------------
    Atom  No    Charge         Core      Valence    Rydberg      Total
 -----------------------------------------------------------------------
      C    1    0.01736      0.99964     1.96771    0.01529     2.98264
      N    2   -0.14962      0.99968     2.63667    0.01326     3.64962
      C    3    0.00817      0.99948     1.97655    0.01580     2.99183
      C    4    0.06742      0.99950     1.91791    0.01518     2.93258
      O    5   -0.19428      0.99985     3.18579    0.00864     4.19428
      C    6    0.23921      0.99939     1.74451    0.01689     2.76079
      C    7   -0.00677      0.99943     1.99356    0.01378     3.00677
      N    8   -0.15551      0.99968     2.64412    0.01171     3.65551
      C    9    0.02369      0.99964     1.96100    0.01567     2.97631
      N   10   -0.19238      0.99963     2.67802    0.01473     3.69238
      N   11    0.12913      0.99971     2.35502    0.01614     3.37087
      N   12   -0.02348      0.99982     2.50961    0.01406     3.52348
      H   13    0.07545      0.00000     0.42297    0.00158     0.42455
      H   14    0.08534      0.00000     0.41353    0.00113     0.41466
      H   15    0.07628      0.00000     0.42229    0.00143     0.42372
 =======================================================================
   * Total *    0.00000     11.99544    28.82926    0.17529    41.00000

 Normal termination of Gaussian 16 at Wed Dec  9 17:54:32 2020.
