 Gaussian 16, Revision A.03,

 -----------------------------------------------------------
 # opt freq B3LYP/6-31G(d) empiricaldispersion=gd3bj scf=xqc
 -----------------------------------------------------------

 -------------------------------
 CID_63221240_JID_10980_neutraal
 -------------------------------
 Symbolic Z-matrix:
 Charge =  0 Multiplicity = 1

 SCF Done:  E(RB3LYP) =  -895.191747019     A.U. after   14 cycles
 SCF Done:  E(RB3LYP) =  -895.191105271     A.U. after   13 cycles
 SCF Done:  E(RB3LYP) =  -895.200162207     A.U. after   13 cycles
 SCF Done:  E(RB3LYP) =  -895.201430259     A.U. after   11 cycles
 SCF Done:  E(RB3LYP) =  -895.201267734     A.U. after   13 cycles
 SCF Done:  E(RB3LYP) =  -895.201715063     A.U. after   12 cycles
 SCF Done:  E(RB3LYP) =  -895.201797842     A.U. after   10 cycles
 SCF Done:  E(RB3LYP) =  -895.201828346     A.U. after   11 cycles
 SCF Done:  E(RB3LYP) =  -895.201841734     A.U. after   10 cycles
 SCF Done:  E(RB3LYP) =  -895.201844190     A.U. after    8 cycles
 SCF Done:  E(RB3LYP) =  -895.201844662     A.U. after    8 cycles
 SCF Done:  E(RB3LYP) =  -895.201844923     A.U. after    7 cycles
 SCF Done:  E(RB3LYP) =  -895.201845035     A.U. after    7 cycles
 Optimization completed.
    -- Stationary point found.
 Normal termination of Gaussian 16 at Sat Dec 12 16:31:26 2020.

 --------------------------------------------------------------------
 #N Geom=AllCheck Guess=TCheck SCRF=Check GenChk RB3LYP/6-31G(d) Freq
 --------------------------------------------------------------------

 Structure from the checkpoint file:  "JID_10980.chk"
 -------------------------------
 CID_63221240_JID_10980_neutraal
 -------------------------------
 Charge =  0 Multiplicity = 1

 SCF Done:  E(RB3LYP) =  -895.201845035     A.U. after    1 cycles

  Exact polarizability: 197.376  -0.799 187.990 -24.905  -8.702 140.268
 Approx polarizability: 282.868  -0.022 305.533 -53.646 -24.375 223.259

                      1                      2                      3
                      A                      A                      A
 Frequencies --     33.3632                46.0528                50.8353
 Red. masses --      4.6102                 3.8961                 3.7809
 Frc consts  --      0.0030                 0.0049                 0.0058
 IR Inten    --      0.0338                 0.0345                 0.2524

                      4                      5                      6
                      A                      A                      A
 Frequencies --     89.9461                92.2579               109.7893
 Red. masses --      2.8195                 1.5850                 2.2158
 Frc consts  --      0.0134                 0.0079                 0.0157
 IR Inten    --      0.6181                 0.7378                 1.8491

                      7                      8                      9
                      A                      A                      A
 Frequencies --    133.2623               152.3292               212.0101
 Red. masses --      3.9781                 3.8610                 3.7937
 Frc consts  --      0.0416                 0.0528                 0.1005
 IR Inten    --      4.2928                 2.1272                 5.5181

                     10                     11                     12
                      A                      A                      A
 Frequencies --    219.4537               240.1145               243.2778
 Red. masses --      2.0411                 3.0670                 3.7813
 Frc consts  --      0.0579                 0.1042                 0.1319
 IR Inten    --      2.8521                 2.0553                 3.5132

                     13                     14                     15
                      A                      A                      A
 Frequencies --    249.9633               259.4241               301.4188
 Red. masses --      1.5121                 2.6238                 2.4260
 Frc consts  --      0.0557                 0.1040                 0.1299
 IR Inten    --      3.3623                 2.9865                 1.8705

                     16                     17                     18
                      A                      A                      A
 Frequencies --    305.4329               315.2107               356.9803
 Red. masses --      2.4898                 2.8956                 2.4357
 Frc consts  --      0.1369                 0.1695                 0.1829
 IR Inten    --      2.2987                 0.5740                38.8738

                     19                     20                     21
                      A                      A                      A
 Frequencies --    365.4434               371.2923               405.3870
 Red. masses --      2.8850                 1.4273                 4.0403
 Frc consts  --      0.2270                 0.1159                 0.3912
 IR Inten    --      7.3578               269.0309                 5.8636

                     22                     23                     24
                      A                      A                      A
 Frequencies --    407.5670               431.3562               477.8258
 Red. masses --      2.6849                 1.9313                 3.4130
 Frc consts  --      0.2628                 0.2117                 0.4591
 IR Inten    --      4.3347                 1.4839                 2.3837

                     25                     26                     27
                      A                      A                      A
 Frequencies --    504.4250               505.5742               522.0160
 Red. masses --      1.5853                 1.7305                 4.5524
 Frc consts  --      0.2377                 0.2606                 0.7309
 IR Inten    --     49.8900                36.1094                10.4787

                     28                     29                     30
                      A                      A                      A
 Frequencies --    549.5112               609.6540               619.2715
 Red. masses --      5.3941                 4.8569                 3.9088
 Frc consts  --      0.9597                 1.0636                 0.8832
 IR Inten    --      2.8144                 5.4173                 2.1540

                     31                     32                     33
                      A                      A                      A
 Frequencies --    650.1993               691.5957               693.4322
 Red. masses --      5.8564                 7.0166                 3.8116
 Frc consts  --      1.4587                 1.9773                 1.0799
 IR Inten    --      0.7298                 4.9636                 3.8316

                     34                     35                     36
                      A                      A                      A
 Frequencies --    724.4676               752.7826               773.8982
 Red. masses --      5.6522                 6.3692                 1.5871
 Frc consts  --      1.7479                 2.1266                 0.5600
 IR Inten    --     15.6932                16.8501                 0.5754

                     37                     38                     39
                      A                      A                      A
 Frequencies --    783.1104               807.2021               813.3402
 Red. masses --      2.7453                 3.7250                 2.5859
 Frc consts  --      0.9920                 1.4300                 1.0079
 IR Inten    --      1.4356                32.6146                 3.8934

                     40                     41                     42
                      A                      A                      A
 Frequencies --    843.9481               877.1649               885.4207
 Red. masses --      1.5852                 6.8926                 2.2555
 Frc consts  --      0.6652                 3.1246                 1.0418
 IR Inten    --      2.5304                33.7418                 0.7337

                     43                     44                     45
                      A                      A                      A
 Frequencies --    906.9796               947.9093               973.9377
 Red. masses --      2.5977                 1.3984                 2.1617
 Frc consts  --      1.2590                 0.7403                 1.2081
 IR Inten    --     11.3140                 3.6470                 0.7846

                     46                     47                     48
                      A                      A                      A
 Frequencies --    981.2131               988.3476              1000.7523
 Red. masses --      3.1580                 1.7632                 1.5959
 Frc consts  --      1.7914                 1.0148                 0.9417
 IR Inten    --     14.9315                24.7354                 3.6473

                     49                     50                     51
                      A                      A                      A
 Frequencies --   1019.8065              1036.7026              1061.2729
 Red. masses --      2.1770                 2.3592                 1.9715
 Frc consts  --      1.3340                 1.4939                 1.3083
 IR Inten    --      0.7870                18.0732                 4.9904

                     52                     53                     54
                      A                      A                      A
 Frequencies --   1098.1404              1108.0998              1110.5170
 Red. masses --      2.9235                 2.8977                 2.5409
 Frc consts  --      2.0771                 2.0964                 1.8463
 IR Inten    --     37.4564                27.7542                 8.1200

                     55                     56                     57
                      A                      A                      A
 Frequencies --   1127.1979              1130.9278              1135.9367
 Red. masses --      1.5605                 2.6896                 1.3302
 Frc consts  --      1.1682                 2.0268                 1.0113
 IR Inten    --      1.7920                54.8751                 0.5940

                     58                     59                     60
                      A                      A                      A
 Frequencies --   1167.1363              1178.8758              1196.2502
 Red. masses --      1.2947                 1.6440                 2.7878
 Frc consts  --      1.0391                 1.3461                 2.3505
 IR Inten    --      0.0593                12.0743                59.6980

                     61                     62                     63
                      A                      A                      A
 Frequencies --   1227.3200              1246.8274              1262.2365
 Red. masses --      1.5206                 1.4937                 3.4216
 Frc consts  --      1.3495                 1.3682                 3.2119
 IR Inten    --      3.1669                 0.4900                48.9629

                     64                     65                     66
                      A                      A                      A
 Frequencies --   1301.1681              1304.1165              1310.1789
 Red. masses --      1.3582                 2.0423                 1.3490
 Frc consts  --      1.3549                 2.0465                 1.3643
 IR Inten    --      9.9610                36.7331                 1.5480

                     67                     68                     69
                      A                      A                      A
 Frequencies --   1311.9901              1339.6852              1355.1879
 Red. masses --      2.5469                 3.8276                 1.2993
 Frc consts  --      2.5830                 4.0474                 1.4059
 IR Inten    --      8.7355                 1.1850                 0.6577

                     70                     71                     72
                      A                      A                      A
 Frequencies --   1359.0744              1371.4714              1377.8771
 Red. masses --      1.3037                 1.6856                 2.0088
 Frc consts  --      1.4188                 1.8680                 2.2470
 IR Inten    --     15.4851                11.6190                25.6006

                     73                     74                     75
                      A                      A                      A
 Frequencies --   1399.6251              1404.8520              1411.1759
 Red. masses --      1.3958                 1.4314                 1.5045
 Frc consts  --      1.6110                 1.6644                 1.7652
 IR Inten    --      1.1203                 1.5832                 3.5024

                     76                     77                     78
                      A                      A                      A
 Frequencies --   1418.9579              1424.5408              1436.6497
 Red. masses --      2.0511                 1.4669                 1.2596
 Frc consts  --      2.4332                 1.7539                 1.5317
 IR Inten    --     44.4909                 0.9001                 5.2592

                     79                     80                     81
                      A                      A                      A
 Frequencies --   1440.7449              1446.4807              1467.0597
 Red. masses --      1.5959                 2.0838                 1.3608
 Frc consts  --      1.9517                 2.5688                 1.7257
 IR Inten    --     10.6552                21.8775                 8.2322

                     82                     83                     84
                      A                      A                      A
 Frequencies --   1489.4255              1494.8979              1498.2055
 Red. masses --      3.3489                 3.9574                 1.0943
 Frc consts  --      4.3771                 5.2105                 1.4472
 IR Inten    --     16.4662                83.0940                 4.5720

                     85                     86                     87
                      A                      A                      A
 Frequencies --   1510.2280              1514.1351              1516.1992
 Red. masses --      1.1141                 1.0440                 1.0810
 Frc consts  --      1.4972                 1.4102                 1.4642
 IR Inten    --     20.9096                 6.2814                 2.4541

                     88                     89                     90
                      A                      A                      A
 Frequencies --   1522.8019              1526.4384              1527.6192
 Red. masses --      1.1521                 1.5054                 1.0743
 Frc consts  --      1.5741                 2.0667                 1.4772
 IR Inten    --      2.9708                 9.5969                 4.6105

                     91                     92                     93
                      A                      A                      A
 Frequencies --   1533.6208              1541.5156              1555.5360
 Red. masses --      1.0644                 1.1006                 2.1858
 Frc consts  --      1.4751                 1.5410                 3.1162
 IR Inten    --      0.3614                 6.5030                18.9310

                     94                     95                     96
                      A                      A                      A
 Frequencies --   1616.9232              1643.5738              1676.4526
 Red. masses --      4.1053                 5.6608                 1.6743
 Frc consts  --      6.3237                 9.0095                 2.7724
 IR Inten    --    116.3151               213.2884               373.2166

                     97                     98                     99
                      A                      A                      A
 Frequencies --   2990.5163              3021.1587              3027.9715
 Red. masses --      1.0826                 1.0709                 1.0681
 Frc consts  --      5.7044                 5.7591                 5.7696
 IR Inten    --     28.6780                16.3809                 6.2794

                    100                    101                    102
                      A                      A                      A
 Frequencies --   3034.2340              3039.1644              3044.6325
 Red. masses --      1.0397                 1.0641                 1.0718
 Frc consts  --      5.6399                 5.7908                 5.8538
 IR Inten    --     17.2403                67.2901                49.7139

                    103                    104                    105
                      A                      A                      A
 Frequencies --   3053.8148              3060.4982              3072.7796
 Red. masses --      1.0640                 1.0811                 1.0326
 Frc consts  --      5.8461                 5.9661                 5.7447
 IR Inten    --     48.6908                67.5015                49.7589

                    106                    107                    108
                      A                      A                      A
 Frequencies --   3075.9817              3094.5858              3100.6343
 Red. masses --      1.0966                 1.0992                 1.1011
 Frc consts  --      6.1134                 6.2018                 6.2368
 IR Inten    --     30.3014                 7.2215                72.7055

                    109                    110                    111
                      A                      A                      A
 Frequencies --   3102.5017              3104.1658              3106.5951
 Red. masses --      1.0932                 1.1023                 1.0992
 Frc consts  --      6.1999                 6.2581                 6.2502
 IR Inten    --      8.4176                36.3340                15.6457

                    112                    113                    114
                      A                      A                      A
 Frequencies --   3135.1073              3139.2162              3179.1807
 Red. masses --      1.0875                 1.1065                 1.1039
 Frc consts  --      6.2976                 6.4248                 6.5739
 IR Inten    --     39.9253                15.7300                 1.7423

                    115                    116                    117
                      A                      A                      A
 Frequencies --   3252.2570              3587.4120              3707.6278
 Red. masses --      1.0956                 1.0462                 1.1025
 Frc consts  --      6.8280                 7.9328                 8.9293
 IR Inten    --      8.2290                57.3491                30.0683

 - Thermochemistry -
 -------------------
 Temperature   298.150 Kelvin.  Pressure   1.00000 Atm.
 Atom     1 has atomic number  6 and mass  12.00000

 Molecular mass:   275.17461 amu.
 Principal axes and moments of inertia in atomic units:
                           1         2         3
     Eigenvalues --  3473.027846609.595437638.29847
           X            0.99980   0.01960   0.00242
           Y           -0.01960   0.99981  -0.00147
           Z           -0.00245   0.00143   1.00000
 This molecule is an asymmetric top.
 Rotational symmetry number  1.
 Warning -- assumption of classical behavior for rotation
           may cause significant error
 Rotational temperatures (Kelvin)      0.02494     0.01310     0.01134
 Rotational constants (GHZ):           0.51964     0.27305     0.23628
 Zero-point vibrational energy     929270.2 (Joules/Mol)
                                  222.10090 (Kcal/Mol)
 Warning -- explicit consideration of  30 degrees of freedom as
           vibrations may cause significant error
 Vibrational temperatures:     48.00    66.26    73.14   129.41   132.74
          (Kelvin)            157.96   191.73   219.17   305.04   315.74
                              345.47   350.02   359.64   373.25   433.67
                              439.45   453.52   513.62   525.79   534.21
                              583.26   586.40   620.63   687.48   725.76
                              727.41   751.06   790.62   877.16   890.99
                              935.49   995.05   997.69  1042.35  1083.09
                             1113.47  1126.72  1161.38  1170.22  1214.25
                             1262.04  1273.92  1304.94  1363.83  1401.28
                             1411.75  1422.01  1439.86  1467.27  1491.58
                             1526.94  1579.98  1594.31  1597.79  1621.79
                             1627.15  1634.36  1679.25  1696.14  1721.14
                             1765.84  1793.91  1816.08  1872.09  1876.33
                             1885.06  1887.66  1927.51  1949.81  1955.40
                             1973.24  1982.46  2013.75  2021.27  2030.37
                             2041.56  2049.60  2067.02  2072.91  2081.16
                             2110.77  2142.95  2150.82  2155.58  2172.88
                             2178.50  2181.47  2190.97  2196.20  2197.90
                             2206.54  2217.90  2238.07  2326.39  2364.74
                             2412.04  4302.69  4346.77  4356.58  4365.59
                             4372.68  4380.55  4393.76  4403.37  4421.04
                             4425.65  4452.42  4461.12  4463.81  4466.20
                             4469.70  4510.72  4516.63  4574.13  4679.27
                             5161.49  5334.45

 Zero-point correction=                           0.353940 (Hartree/Particle)
 Thermal correction to Energy=                    0.372280
 Thermal correction to Enthalpy=                  0.373225
 Thermal correction to Gibbs Free Energy=         0.307793
 Sum of electronic and zero-point Energies=           -894.847905
 Sum of electronic and thermal Energies=              -894.829565
 Sum of electronic and thermal Enthalpies=            -894.828620
 Sum of electronic and thermal Free Energies=         -894.894052

                     E (Thermal)             CV                S
                      KCal/Mol        Cal/Mol-Kelvin    Cal/Mol-Kelvin
 Total                  233.609             72.039            137.713
 Electronic               0.000              0.000              0.000
 Translational            0.889              2.981             42.735
 Rotational               0.889              2.981             33.527
 Vibrational            231.832             66.077             61.450
 Vibration     1          0.594              1.983              5.619
 Vibration     2          0.595              1.979              4.980
 Vibration     3          0.595              1.977              4.785
 Vibration     4          0.602              1.956              3.661
 Vibration     5          0.602              1.955              3.612
 Vibration     6          0.606              1.941              3.273
 Vibration     7          0.613              1.920              2.898
 Vibration     8          0.619              1.900              2.643
 Vibration     9          0.643              1.823              2.026
 Vibration    10          0.647              1.811              1.964
 Vibration    11          0.657              1.779              1.802
 Vibration    12          0.659              1.774              1.779
 Vibration    13          0.663              1.763              1.731
 Vibration    14          0.668              1.747              1.666
 Vibration    15          0.693              1.671              1.409
 Vibration    16          0.696              1.663              1.387
 Vibration    17          0.703              1.645              1.335
 Vibration    18          0.732              1.561              1.135
 Vibration    19          0.739              1.543              1.099
 Vibration    20          0.743              1.531              1.074
 Vibration    21          0.770              1.458              0.943
 Vibration    22          0.772              1.454              0.935
 Vibration    23          0.792              1.402              0.854
 Vibration    24          0.834              1.299              0.716
 Vibration    25          0.860              1.240              0.647
 Vibration    26          0.861              1.238              0.644
 Vibration    27          0.877              1.201              0.605
 Vibration    28          0.905              1.141              0.545
 Vibration    29          0.969              1.011              0.433
 Vibration    30          0.979              0.991              0.418

                           ! Non-Optimized Parameters !
 Normal termination of Gaussian 16 at Sat Dec 12 16:56:17 2020.

 ----------------------------------------------------------------------
 # B3LYP/6-311++G(d,p) empiricaldispersion=gd3bj scf=xqc pop=npa geom=c
 heck
 ----------------------------------------------------------------------

 ---------------------------------------
 CID_63221240_JID_10980_Energie_neutraal
 ---------------------------------------
 Structure from the checkpoint file:  "JID_10980.chk"
 Charge =  0 Multiplicity = 1

 SCF Done:  E(RB3LYP) =  -895.443794318     A.U. after   15 cycles
 Normal termination of Gaussian 16 at Sat Dec 12 17:05:53 2020.

 ----------------------------------------------------------------------
 # B3LYP/6-311++G(d,p) empiricaldispersion=gd3bj scf=xqc pop=npa geom=c
 heck
 ----------------------------------------------------------------------

 -------------------------------------
 CID_63221240_JID_10980_Energie_kation
 -------------------------------------
 Structure from the checkpoint file:  "JID_10980.chk"
 Charge =  1 Multiplicity = 2

 SCF Done:  E(UB3LYP) =  -895.149053816     A.U. after   27 cycles
 Normal termination of Gaussian 16 at Sat Dec 12 17:28:17 2020.
 Gaussian 16:  ES64L-G16RevA.03 25-Dec-2016

 ----------------------------------------------------------------------
 # B3LYP/6-311++G(d,p) empiricaldispersion=gd3bj scf=xqc pop=npa geom=c
 heck
 ----------------------------------------------------------------------

 ------------------------------------
 CID_63221240_JID_10980_Energie_anion
 ------------------------------------
 Structure from the checkpoint file:  "JID_10980.chk"
 Charge = -1 Multiplicity = 2

                         Standard orientation:
 ---------------------------------------------------------------------
 Center     Atomic      Atomic             Coordinates (Angstroms)
 Number     Number       Type             X           Y           Z
 ---------------------------------------------------------------------
      1          6           0        1.888526    2.512929    1.556523
      2          6           0        2.437907    1.100004    1.343993
      3          6           0        1.358674    0.039737    1.606897
      4          6           0        1.862342   -1.389791    1.367171
      5          6           0        2.601747   -1.636042    0.035755
      6          6           0        3.560049   -0.481807   -0.309112
      7          6           0        3.005624    0.931903   -0.073752
      8          8           0        1.740108   -2.069025   -1.032915
      9          6           0        1.123076   -1.139433   -1.894409
     10          6           0       -0.100073   -0.450269   -1.318193
     11          7           0       -0.165469    0.885214   -1.521465
     12          6           0       -1.201771    1.567752   -1.016667
     13          6           0       -2.201541    0.886361   -0.286567
     14          6           0       -3.413406    1.134627    0.418389
     15          7           0       -3.909289    0.014338    0.920588
     16          7           0       -3.046897   -0.983189    0.562158
     17          6           0       -2.002098   -0.506783   -0.166143
     18          7           0       -0.977198   -1.211989   -0.666814
     19          6           0       -3.283826   -2.354514    0.958713
     20          7           0       -1.242387    2.909652   -1.257746
     21          1           0        1.068114    2.714666    0.855705
     22          1           0        1.498022    2.641032    2.573233
     23          1           0        2.662836    3.272309    1.393508
     24          1           0        3.258980    0.934940    2.060750
     25          1           0        1.001401    0.123949    2.642031
     26          1           0        0.495607    0.254425    0.971718
     27          1           0        1.038427   -2.107374    1.434951
     28          1           0        2.572101   -1.637862    2.169906
     29          1           0        3.214877   -2.532775    0.180334
     30          1           0        3.916404   -0.601616   -1.339528
     31          1           0        4.442104   -0.610728    0.333696
     32          1           0        2.214174    1.171080   -0.792743
     33          1           0        3.809688    1.661828   -0.238850
     34          1           0        1.815328   -0.373640   -2.258423
     35          1           0        0.802271   -1.731947   -2.760043
     36          1           0       -3.942361    2.065755    0.574637
     37          1           0       -3.315758   -2.430798    2.049132
     38          1           0       -4.231562   -2.709554    0.544306
     39          1           0       -2.459146   -2.952447    0.567653
     40          1           0       -1.813695    3.497908   -0.669866
     41          1           0       -0.391382    3.316833   -1.621428
 ---------------------------------------------------------------------

 SCF Done:  E(UB3LYP) =  -895.442425722     A.U. after   33 cycles
 SCF Done:  E(UB3LYP) =  -895.442425722     a.u. after    1 cycles

 The electronic state is 2-A.
 Alpha  occ. eigenvalues --  -19.00637 -14.26148 -14.20859 -14.20306 -14.17508
 Alpha  occ. eigenvalues --  -14.16928 -10.11938 -10.11557 -10.11481 -10.10396
 Alpha  occ. eigenvalues --  -10.10124 -10.09915 -10.07308 -10.06823 -10.06579
 Alpha  occ. eigenvalues --  -10.05788 -10.05529 -10.05127 -10.05049 -10.05038
 Alpha  occ. eigenvalues --   -0.93022  -0.91782  -0.85725  -0.80844  -0.74308
 Alpha  occ. eigenvalues --   -0.72713  -0.72206  -0.67196  -0.65656  -0.63999
 Alpha  occ. eigenvalues --   -0.60229  -0.59682  -0.56210  -0.53035  -0.51374
 Alpha  occ. eigenvalues --   -0.50590  -0.47469  -0.46142  -0.44240  -0.43935
 Alpha  occ. eigenvalues --   -0.41057  -0.39007  -0.38361  -0.37086  -0.36961
 Alpha  occ. eigenvalues --   -0.35888  -0.34303  -0.34121  -0.32948  -0.32547
 Alpha  occ. eigenvalues --   -0.32395  -0.31671  -0.30933  -0.30402  -0.29701
 Alpha  occ. eigenvalues --   -0.28443  -0.27641  -0.27406  -0.26578  -0.25967
 Alpha  occ. eigenvalues --   -0.25223  -0.24148  -0.22802  -0.21586  -0.20884
 Alpha  occ. eigenvalues --   -0.20266  -0.19448  -0.18143  -0.16537  -0.15794
 Alpha  occ. eigenvalues --   -0.14320  -0.13689  -0.13369  -0.10598   0.04378
 Alpha virt. eigenvalues --    0.06592   0.07027   0.07917   0.08424   0.08531
 Alpha virt. eigenvalues --    0.09589   0.09889   0.10318   0.10627   0.11221
 Alpha virt. eigenvalues --    0.11551   0.12252   0.12379   0.12599   0.12896

  Beta  occ. eigenvalues --  -19.00613 -14.26100 -14.20771 -14.19976 -14.17616
  Beta  occ. eigenvalues --  -14.16771 -10.11611 -10.11553 -10.11511 -10.10398
  Beta  occ. eigenvalues --  -10.09936 -10.09900 -10.07256 -10.06821 -10.06574
  Beta  occ. eigenvalues --  -10.05787 -10.05523 -10.05124 -10.05073 -10.05020
  Beta  occ. eigenvalues --   -0.92777  -0.91722  -0.85461  -0.80563  -0.74131
  Beta  occ. eigenvalues --   -0.72699  -0.72074  -0.67017  -0.65540  -0.63990
  Beta  occ. eigenvalues --   -0.60104  -0.59613  -0.56076  -0.52778  -0.51345
  Beta  occ. eigenvalues --   -0.50447  -0.47369  -0.46019  -0.44122  -0.43860
  Beta  occ. eigenvalues --   -0.40919  -0.38938  -0.38248  -0.36923  -0.36708
  Beta  occ. eigenvalues --   -0.35794  -0.34251  -0.34057  -0.32781  -0.32503
  Beta  occ. eigenvalues --   -0.32311  -0.31586  -0.30722  -0.30301  -0.29611
  Beta  occ. eigenvalues --   -0.28382  -0.27447  -0.27389  -0.26037  -0.25946
  Beta  occ. eigenvalues --   -0.25134  -0.24122  -0.22146  -0.21404  -0.20824
  Beta  occ. eigenvalues --   -0.20236  -0.19334  -0.17973  -0.16289  -0.15283
  Beta  occ. eigenvalues --   -0.14240  -0.13328  -0.13293  -0.09647
  Beta virt. eigenvalues --    0.06486   0.07697   0.07861   0.08395   0.08748
  Beta virt. eigenvalues --    0.09059   0.09698   0.10106   0.10389   0.10649
  Beta virt. eigenvalues --    0.11292   0.11629   0.12452   0.12561   0.12576

 Mulliken charges and spin densities:
               1          2
     1  C    0.177776  -0.900747
     2  C   -0.669897   0.738412
     3  C    0.334434  -0.070088
     4  C   -0.527692  -0.146511
     5  C   -0.287810   0.144714
     6  C   -0.344706  -0.218654
     7  C    0.045948  -0.259537
     8  O   -0.019845  -0.010796
     9  C   -0.657510   0.036679
    10  C   -0.377026  -0.118416
    11  N    0.177989  -0.114409
    12  C   -0.376620   0.249240
    13  C    0.377612   0.019214
    14  C   -0.052566  -0.182226
    15  N   -0.275285   0.145928
    16  N    0.272666   0.016876
    17  C    0.340105  -0.308747
    18  N    0.002957   0.100723
    19  C   -0.222637  -0.040094
    20  N   -0.336998   0.046604
    21  H   -0.246056   0.399683
    22  H   -0.059216   0.185575
    23  H   -0.106719   0.232802
    24  H    0.037426   0.102649
    25  H    0.166785   0.028626
    26  H    0.233466  -0.267936
    27  H    0.200685   0.004723
    28  H    0.083796   0.033938
    29  H    0.123937   0.063579
    30  H    0.135497   0.034226
    31  H    0.084598   0.037877
    32  H    0.186862  -0.030788
    33  H    0.038065   0.126090
    34  H    0.181626  -0.007480
    35  H    0.085278   0.073426
    36  H   -0.076017   0.218717
    37  H    0.144712  -0.001323
    38  H    0.116152   0.029658
    39  H    0.177011  -0.000832
    40  H   -0.199273   0.459358
    41  H    0.110493   0.149269
 Sum of Mulliken charges =  -1.00000   1.00000

 Dipole moment (field-independent basis, Debye):
    X=              3.1634    Y=             -4.2548    Z=              0.2941  Tot=              5.3101
 Quadrupole moment (field-independent basis, Debye-Ang):
   XX=           -168.5275   YY=           -165.5907   ZZ=           -143.0915
   XY=              5.5636   XZ=              2.6908   YZ=             -7.4460

 Summary of Natural Population Analysis:

                                       Natural Population
                Natural  -----------------------------------------------
    Atom  No    Charge         Core      Valence    Rydberg      Total
 -----------------------------------------------------------------------
      C    1   -0.28278      0.99965     2.27703    0.00610     3.28278
      C    2   -0.10808      0.99960     2.09905    0.00943     3.10808
      C    3   -0.19511      0.99960     2.18621    0.00930     3.19511
      C    4   -0.20100      0.99960     2.19341    0.00800     3.20100
      C    5    0.07381      0.99952     1.91239    0.01427     2.92619
      C    6   -0.20416      0.99961     2.19757    0.00699     3.20416
      C    7   -0.20166      0.99960     2.19263    0.00942     3.20166
      O    8   -0.30119      0.99988     3.29122    0.01009     4.30119
      C    9   -0.02577      0.99952     2.01305    0.01320     3.02577
      C   10    0.23872      0.99962     1.74460    0.01706     2.76128
      N   11   -0.31586      0.99965     2.80749    0.00872     3.81586
      C   12    0.27037      0.99952     1.71567    0.01443     2.72963
      C   13   -0.12668      0.99943     2.11829    0.00896     3.12668
      C   14    0.00033      0.99963     1.98411    0.01593     2.99967
      N   15   -0.10497      0.99973     2.59419    0.01105     3.60497
      N   16   -0.12062      0.99961     2.60944    0.01158     3.62062
      C   17    0.19727      0.99947     1.78863    0.01463     2.80273
      N   18   -0.26562      0.99963     2.75558    0.01040     3.76562
      C   19   -0.17380      0.99965     2.16762    0.00652     3.17380
      N   20   -0.38116      0.99970     2.87223    0.00923     3.88116
      H   21    0.10366      0.00000     0.39457    0.00177     0.39634
      H   22    0.09654      0.00000     0.40257    0.00089     0.40346
      H   23    0.09481      0.00000     0.40427    0.00092     0.40519
      H   24    0.08346      0.00000     0.41475    0.00180     0.41654
      H   25    0.09530      0.00000     0.40379    0.00091     0.40470
      H   26    0.10587      0.00000     0.39153    0.00260     0.39413
      H   27    0.10988      0.00000     0.38894    0.00117     0.39012
      H   28    0.09019      0.00000     0.40857    0.00124     0.40981
      H   29    0.08611      0.00000     0.41271    0.00118     0.41389
      H   30    0.10068      0.00000     0.39822    0.00109     0.39932
      H   31    0.09679      0.00000     0.40203    0.00119     0.40321
      H   32    0.11130      0.00000     0.38667    0.00203     0.38870
      H   33    0.09394      0.00000     0.40520    0.00086     0.40606
      H   34    0.08479      0.00000     0.41380    0.00141     0.41521
      H   35    0.09483      0.00000     0.40399    0.00118     0.40517
      H   36    0.09468      0.00000     0.40382    0.00150     0.40532
      H   37    0.09445      0.00000     0.40454    0.00101     0.40555
      H   38    0.09338      0.00000     0.40505    0.00158     0.40662
      H   39    0.11055      0.00000     0.38842    0.00103     0.38945
      H   40    0.19379      0.00000     0.30228    0.00393     0.30621
      H   41    0.19298      0.00000     0.30507    0.00196     0.30702
 =======================================================================
   * Total *   -0.00000     19.99224    53.76121    0.24655    74.00000

 Normal termination of Gaussian 16 at Sat Dec 12 17:56:12 2020.
