 Gaussian 16, Revision A.03,

 -----------------------------------------------------------
 # opt freq B3LYP/6-31G(d) empiricaldispersion=gd3bj scf=xqc
 -----------------------------------------------------------

 -------------------------------
 CID_116558473_JID_1940_neutraal
 -------------------------------
 Symbolic Z-matrix:
 Charge =  0 Multiplicity = 1

 SCF Done:  E(RB3LYP) =  -481.940320320     A.U. after   15 cycles
 SCF Done:  E(RB3LYP) =  -481.943109253     A.U. after   13 cycles
 SCF Done:  E(RB3LYP) =  -481.943695143     A.U. after   12 cycles
 SCF Done:  E(RB3LYP) =  -481.943976828     A.U. after   13 cycles
 SCF Done:  E(RB3LYP) =  -481.945258229     A.U. after   12 cycles
 SCF Done:  E(RB3LYP) =  -481.942343094     A.U. after   13 cycles
 SCF Done:  E(RB3LYP) =  -481.945341427     A.U. after   12 cycles
 SCF Done:  E(RB3LYP) =  -481.945662950     A.U. after   11 cycles
 SCF Done:  E(RB3LYP) =  -481.945721289     A.U. after   10 cycles
 SCF Done:  E(RB3LYP) =  -481.945733485     A.U. after   10 cycles
 SCF Done:  E(RB3LYP) =  -481.945735958     A.U. after    8 cycles
 SCF Done:  E(RB3LYP) =  -481.945736399     A.U. after    8 cycles
 SCF Done:  E(RB3LYP) =  -481.945736448     A.U. after    7 cycles
 SCF Done:  E(RB3LYP) =  -481.945736458     A.U. after    7 cycles
 Optimization completed.
    -- Stationary point found.
 Normal termination of Gaussian 16 at Tue Dec  8 21:39:31 2020.

 --------------------------------------------------------------------
 #N Geom=AllCheck Guess=TCheck SCRF=Check GenChk RB3LYP/6-31G(d) Freq
 --------------------------------------------------------------------

 Structure from the checkpoint file:  "JID_1940.chk"
 -------------------------------
 CID_116558473_JID_1940_neutraal
 -------------------------------
 Charge =  0 Multiplicity = 1

 SCF Done:  E(RB3LYP) =  -481.945736458     A.U. after    1 cycles

  Exact polarizability: 104.176   2.268  95.128   1.893  10.525  95.770
 Approx polarizability: 133.546   5.219 143.044   2.758  31.124 160.641

                      1                      2                      3
                      A                      A                      A
 Frequencies --     50.0798                68.8727                98.4720
 Red. masses --      4.1655                 2.6492                 2.9033
 Frc consts  --      0.0062                 0.0074                 0.0166
 IR Inten    --      1.4668                 1.3106                 0.7145

                      4                      5                      6
                      A                      A                      A
 Frequencies --    160.3385               174.7327               188.7427
 Red. masses --      1.6663                 1.3661                 1.8021
 Frc consts  --      0.0252                 0.0246                 0.0378
 IR Inten    --      1.3997                 0.6505                 1.2644

                      7                      8                      9
                      A                      A                      A
 Frequencies --    219.7687               250.3675               267.5293
 Red. masses --      2.4329                 2.1699                 2.0007
 Frc consts  --      0.0692                 0.0801                 0.0844
 IR Inten    --      0.9314                 1.0107                17.5656

                     10                     11                     12
                      A                      A                      A
 Frequencies --    287.4010               324.7458               355.9986
 Red. masses --      1.3748                 2.8152                 3.1969
 Frc consts  --      0.0669                 0.1749                 0.2387
 IR Inten    --     21.4504                 9.5204                 9.0983

                     13                     14                     15
                      A                      A                      A
 Frequencies --    371.6175               403.2859               429.3793
 Red. masses --      3.2550                 2.9765                 3.1523
 Frc consts  --      0.2648                 0.2852                 0.3424
 IR Inten    --      6.2120                10.4879                 2.5355

                     16                     17                     18
                      A                      A                      A
 Frequencies --    474.4895               554.5303               565.1991
 Red. masses --      2.8221                 3.0844                 3.7604
 Frc consts  --      0.3744                 0.5588                 0.7078
 IR Inten    --      7.9860                 2.0958                 3.8662

                     19                     20                     21
                      A                      A                      A
 Frequencies --    651.3826               681.4060               786.5575
 Red. masses --      2.1496                 1.7985                 1.3598
 Frc consts  --      0.5374                 0.4920                 0.4957
 IR Inten    --      2.7814                 3.1205                 2.8777

                     22                     23                     24
                      A                      A                      A
 Frequencies --    817.6376               838.0505               851.1407
 Red. masses --      1.8003                 1.4275                 1.5787
 Frc consts  --      0.7091                 0.5907                 0.6738
 IR Inten    --      3.6795                 4.3331                 0.3475

                     25                     26                     27
                      A                      A                      A
 Frequencies --    915.2466               926.7375               943.7010
 Red. masses --      3.1727                 2.4520                 3.0326
 Frc consts  --      1.5659                 1.2407                 1.5912
 IR Inten    --     27.1547                36.1304                31.7292

                     28                     29                     30
                      A                      A                      A
 Frequencies --    961.0968               973.8804              1010.0392
 Red. masses --      2.0966                 1.4002                 1.5620
 Frc consts  --      1.1410                 0.7825                 0.9389
 IR Inten    --     50.4478                27.9938                 1.1668

                     31                     32                     33
                      A                      A                      A
 Frequencies --   1018.0474              1060.3420              1065.8581
 Red. masses --      1.6855                 1.5084                 1.6222
 Frc consts  --      1.0292                 0.9992                 1.0858
 IR Inten    --     70.2717                66.3868                24.3543

                     34                     35                     36
                      A                      A                      A
 Frequencies --   1074.8710              1085.8541              1096.7574
 Red. masses --      1.3732                 1.5028                 1.3739
 Frc consts  --      0.9347                 1.0440                 0.9737
 IR Inten    --     21.1479                 3.6047                 2.9564

                     37                     38                     39
                      A                      A                      A
 Frequencies --   1101.6123              1149.7268              1210.1743
 Red. masses --      1.4936                 1.1151                 2.0274
 Frc consts  --      1.0679                 0.8685                 1.7494
 IR Inten    --      5.7440                 0.6590                 7.5131

                     40                     41                     42
                      A                      A                      A
 Frequencies --   1218.8673              1240.3089              1266.7037
 Red. masses --      1.6894                 2.3654                 2.4306
 Frc consts  --      1.4787                 2.1440                 2.2978
 IR Inten    --      1.5180                 2.1152                 6.2333

                     43                     44                     45
                      A                      A                      A
 Frequencies --   1327.4394              1343.8592              1411.7562
 Red. masses --      3.0885                 1.6431                 1.6952
 Frc consts  --      3.2064                 1.7483                 1.9906
 IR Inten    --     17.5412                11.7234                 4.9896

                     46                     47                     48
                      A                      A                      A
 Frequencies --   1434.8471              1438.7018              1470.3020
 Red. masses --      1.2420                 1.2284                 1.2307
 Frc consts  --      1.5065                 1.4981                 1.5675
 IR Inten    --      1.5375                 7.1556                 4.3462

                     49                     50                     51
                      A                      A                      A
 Frequencies --   1500.3218              1502.8807              1517.7693
 Red. masses --      1.0884                 1.0477                 1.0496
 Frc consts  --      1.4434                 1.3942                 1.4246
 IR Inten    --      2.3219                 7.4949                 3.9443

                     52                     53                     54
                      A                      A                      A
 Frequencies --   1521.4619              1533.3747              1539.3881
 Red. masses --      1.0553                 1.0570                 1.3292
 Frc consts  --      1.4393                 1.4642                 1.8559
 IR Inten    --     10.1463                11.4649                 3.5362

                     55                     56                     57
                      A                      A                      A
 Frequencies --   1705.3835              1710.9654              1740.3021
 Red. masses --      1.1073                 4.3405                11.8997
 Frc consts  --      1.8974                 7.4864                21.2342
 IR Inten    --     25.9343                 4.6404               122.2124

                     58                     59                     60
                      A                      A                      A
 Frequencies --   3058.6605              3061.4965              3118.3065
 Red. masses --      1.0367                 1.0426                 1.0984
 Frc consts  --      5.7142                 5.7577                 6.2930
 IR Inten    --     18.0851                22.2078                12.7952

                     61                     62                     63
                      A                      A                      A
 Frequencies --   3128.3289              3143.4985              3151.9465
 Red. masses --      1.0984                 1.1042                 1.0533
 Frc consts  --      6.3336                 6.4288                 6.1651
 IR Inten    --     19.3620                13.7170                12.0665

                     64                     65                     66
                      A                      A                      A
 Frequencies --   3154.1914              3159.9542              3173.0602
 Red. masses --      1.0695                 1.0765                 1.0850
 Frc consts  --      6.2690                 6.3334                 6.4362
 IR Inten    --     15.3775                11.5674                 2.9040

                     67                     68                     69
                      A                      A                      A
 Frequencies --   3180.2633              3228.9760              3243.4312
 Red. masses --      1.0777                 1.1185                 1.1144
 Frc consts  --      6.4223                 6.8712                 6.9075
 IR Inten    --     23.9476                 2.2658                17.2688

                     70                     71                     72
                      A                      A                      A
 Frequencies --   3276.3827              3450.3657              3540.8257
 Red. masses --      1.1098                 1.0520                 1.0882
 Frc consts  --      7.0193                 7.3792                 8.0386
 IR Inten    --      6.9535                 3.1522                 1.3580

 - Thermochemistry -
 -------------------
 Temperature   298.150 Kelvin.  Pressure   1.00000 Atm.
 Atom     1 has atomic number  6 and mass  12.00000

 Molecular mass:   153.11536 amu.
 Principal axes and moments of inertia in atomic units:
                           1         2         3
     Eigenvalues --  1230.691362023.393602169.48857
           X            1.00000  -0.00235   0.00207
           Y            0.00245   0.99885  -0.04798
           Z           -0.00195   0.04798   0.99885
 This molecule is an asymmetric top.
 Rotational symmetry number  1.
 Warning -- assumption of classical behavior for rotation
           may cause significant error
 Rotational temperatures (Kelvin)      0.07038     0.04281     0.03992
 Rotational constants (GHZ):           1.46645     0.89194     0.83187
 Zero-point vibrational energy     597893.5 (Joules/Mol)
                                  142.89998 (Kcal/Mol)
 Warning -- explicit consideration of  18 degrees of freedom as
           vibrations may cause significant error
 Vibrational temperatures:     72.05    99.09   141.68   230.69   251.40
          (Kelvin)            271.56   316.20   360.22   384.91   413.51
                              467.24   512.20   534.67   580.24   617.78
                              682.68   797.85   813.20   937.19   980.39
                             1131.68  1176.40  1205.77  1224.60  1316.84
                             1333.37  1357.78  1382.80  1401.20  1453.22
                             1464.74  1525.60  1533.53  1546.50  1562.30
                             1577.99  1584.97  1654.20  1741.17  1753.68
                             1784.53  1822.50  1909.89  1933.51  2031.20
                             2064.42  2069.97  2115.44  2158.63  2162.31
                             2183.73  2189.04  2206.18  2214.84  2453.67
                             2461.70  2503.91  4400.73  4404.81  4486.55
                             4500.97  4522.79  4534.95  4538.18  4546.47
                             4565.33  4575.69  4645.78  4666.57  4713.98
                             4964.31  5094.46

 Zero-point correction=                           0.227726 (Hartree/Particle)
 Thermal correction to Energy=                    0.240089
 Thermal correction to Enthalpy=                  0.241033
 Thermal correction to Gibbs Free Energy=         0.189911
 Sum of electronic and zero-point Energies=           -481.718011
 Sum of electronic and thermal Energies=              -481.705648
 Sum of electronic and thermal Enthalpies=            -481.704704
 Sum of electronic and thermal Free Energies=         -481.755826

                     E (Thermal)             CV                S
                      KCal/Mol        Cal/Mol-Kelvin    Cal/Mol-Kelvin
 Total                  150.658             46.716            107.595
 Electronic               0.000              0.000              0.000
 Translational            0.889              2.981             40.988
 Rotational               0.889              2.981             30.070
 Vibrational            148.881             40.755             36.538
 Vibration     1          0.595              1.978              4.814
 Vibration     2          0.598              1.969              4.185
 Vibration     3          0.604              1.950              3.484
 Vibration     4          0.622              1.891              2.546
 Vibration     5          0.627              1.874              2.384
 Vibration     6          0.633              1.855              2.240
 Vibration     7          0.647              1.811              1.961
 Vibration     8          0.663              1.762              1.728
 Vibration     9          0.673              1.733              1.612
 Vibration    10          0.685              1.697              1.489
 Vibration    11          0.709              1.626              1.286
 Vibration    12          0.732              1.563              1.140
 Vibration    13          0.743              1.530              1.073
 Vibration    14          0.769              1.463              0.951
 Vibration    15          0.791              1.406              0.861
 Vibration    16          0.831              1.307              0.725
 Vibration    17          0.910              1.130              0.535
 Vibration    18          0.921              1.107              0.514

 Optimization completed.
    -- Stationary point found.
 Normal termination of Gaussian 16 at Tue Dec  8 21:46:10 2020.

 ----------------------------------------------------------------------
 # B3LYP/6-311++G(d,p) empiricaldispersion=gd3bj scf=xqc pop=npa geom=c
 heck
 ----------------------------------------------------------------------

 ---------------------------------------
 CID_116558473_JID_1940_Energie_neutraal
 ---------------------------------------
 Structure from the checkpoint file:  "JID_1940.chk"
 Charge =  0 Multiplicity = 1

 SCF Done:  E(RB3LYP) =  -482.089136521     A.U. after   14 cycles
 Normal termination of Gaussian 16 at Tue Dec  8 21:49:10 2020.

 ----------------------------------------------------------------------
 # B3LYP/6-311++G(d,p) empiricaldispersion=gd3bj scf=xqc pop=npa geom=c
 heck
 ----------------------------------------------------------------------

 -------------------------------------
 CID_116558473_JID_1940_Energie_kation
 -------------------------------------
 Structure from the checkpoint file:  "JID_1940.chk"
 Charge =  1 Multiplicity = 2

 SCF Done:  E(UB3LYP) =  -481.767155685     A.U. after   24 cycles
 Normal termination of Gaussian 16 at Tue Dec  8 21:55:37 2020.
 Gaussian 16:  ES64L-G16RevA.03 25-Dec-2016

 ----------------------------------------------------------------------
 # B3LYP/6-311++G(d,p) empiricaldispersion=gd3bj scf=xqc pop=npa geom=c
 heck
 ----------------------------------------------------------------------

 ------------------------------------
 CID_116558473_JID_1940_Energie_anion
 ------------------------------------
 Structure from the checkpoint file:  "JID_1940.chk"
 Charge = -1 Multiplicity = 2

                         Standard orientation:
 ---------------------------------------------------------------------
 Center     Atomic      Atomic             Coordinates (Angstroms)
 Number     Number       Type             X           Y           Z
 ---------------------------------------------------------------------
      1          6           0        3.061109    0.005947   -0.588971
      2          6           0        1.774670    0.301104    0.141629
      3          6           0        1.717511    1.188056    1.145150
      4          6           0        0.569652   -0.399303   -0.418710
      5          8           0        0.633941   -0.803752   -1.573729
      6          6           0       -0.737138   -0.685499    0.384903
      7          6           0       -0.467539   -1.016366    1.863851
      8          6           0       -1.725037    0.480541    0.261812
      9          6           0       -1.371363    1.910627   -0.072931
     10          6           0       -2.094653    1.054123   -1.082490
     11          7           0       -1.424240   -1.854749   -0.184838
     12          1           0        3.899956    0.544058   -0.139023
     13          1           0        2.974985    0.289737   -1.642335
     14          1           0        3.283556   -1.067318   -0.575455
     15          1           0        0.794447    1.451327    1.644924
     16          1           0        2.611373    1.712233    1.473599
     17          1           0       -0.187779   -0.142474    2.451727
     18          1           0       -1.382737   -1.441548    2.285704
     19          1           0        0.332797   -1.758833    1.965037
     20          1           0       -2.556644    0.351270    0.951373
     21          1           0       -1.922970    2.696390    0.435973
     22          1           0       -0.339762    2.166800   -0.287966
     23          1           0       -1.523590    0.725161   -1.946275
     24          1           0       -3.143739    1.247419   -1.285450
     25          1           0       -1.474615   -1.720091   -1.193936
     26          1           0       -0.830393   -2.676260   -0.059646
 ---------------------------------------------------------------------

 SCF Done:  E(UB3LYP) =  -482.092783970     A.U. after   30 cycles

 The electronic state is 2-A.
 Alpha  occ. eigenvalues --  -18.89857 -14.14631 -10.06022 -10.04203 -10.03765
 Alpha  occ. eigenvalues --  -10.03722 -10.03568 -10.02021 -10.00937  -9.99753
 Alpha  occ. eigenvalues --   -9.97727  -0.84509  -0.75075  -0.71265  -0.62819
 Alpha  occ. eigenvalues --   -0.59430  -0.52504  -0.50157  -0.46898  -0.45454
 Alpha  occ. eigenvalues --   -0.40922  -0.36699  -0.35263  -0.33998  -0.32006
 Alpha  occ. eigenvalues --   -0.29897  -0.27854  -0.26466  -0.26313  -0.25581
 Alpha  occ. eigenvalues --   -0.23734  -0.23464  -0.22724  -0.22005  -0.20394
 Alpha  occ. eigenvalues --   -0.19387  -0.18544  -0.16226  -0.15428  -0.11196
 Alpha  occ. eigenvalues --   -0.09529  -0.06321   0.06222
 Alpha virt. eigenvalues --    0.09036   0.10102   0.10593   0.10896   0.12131
 Alpha virt. eigenvalues --    0.12452   0.13089   0.13367   0.14070   0.15017
 Alpha virt. eigenvalues --    0.15488   0.15663   0.16383   0.16792   0.17805

  Beta  occ. eigenvalues --  -18.89208 -14.14629 -10.06055 -10.04170 -10.03766
  Beta  occ. eigenvalues --  -10.03721 -10.03126 -10.01997 -10.00935  -9.99685
  Beta  occ. eigenvalues --   -9.97313  -0.83368  -0.74980  -0.71250  -0.62337
  Beta  occ. eigenvalues --   -0.59360  -0.52093  -0.49988  -0.46879  -0.44594
  Beta  occ. eigenvalues --   -0.40446  -0.36634  -0.35059  -0.33850  -0.31886
  Beta  occ. eigenvalues --   -0.29679  -0.27340  -0.26300  -0.25937  -0.25455
  Beta  occ. eigenvalues --   -0.23617  -0.23431  -0.22610  -0.21512  -0.19979
  Beta  occ. eigenvalues --   -0.18975  -0.16282  -0.16120  -0.15259  -0.10909
  Beta  occ. eigenvalues --   -0.07357  -0.05792
  Beta virt. eigenvalues --    0.08967   0.10037   0.10483   0.10794   0.12024
  Beta virt. eigenvalues --    0.12257   0.12908   0.13017   0.13710   0.14447
  Beta virt. eigenvalues --    0.15226   0.15487   0.15682   0.16353   0.16698

 Mulliken charges and spin densities:
               1          2
     1  C   -0.465885  -0.004623
     2  C    0.870789  -0.111513
     3  C   -1.230974   0.534509
     4  C   -0.640059   0.337343
     5  O   -0.362706   0.223059
     6  C    0.516673  -0.032393
     7  C   -0.547676   0.004248
     8  C   -0.037460  -0.027668
     9  C   -0.409031  -0.028742
    10  C   -0.435689   0.008477
    11  N   -0.253343  -0.004364
    12  H    0.091454   0.003883
    13  H    0.122652   0.044821
    14  H    0.125637  -0.001173
    15  H    0.091892  -0.015178
    16  H    0.086289  -0.026046
    17  H    0.094560   0.021685
    18  H    0.120416  -0.003143
    19  H    0.117289  -0.003665
    20  H    0.146802   0.039757
    21  H    0.117721   0.001542
    22  H    0.130221   0.032342
    23  H    0.171614   0.005288
    24  H    0.119698   0.001706
    25  H    0.246460  -0.001596
    26  H    0.212655   0.001445
 Sum of Mulliken charges =  -1.00000   1.00000

 Dipole moment (field-independent basis, Debye):
    X=             -2.5399    Y=              0.0456    Z=              1.3130  Tot=              2.8596
 Quadrupole moment (field-independent basis, Debye-Ang):
   XX=            -92.9575   YY=            -83.4322   ZZ=            -86.9778
   XY=             -5.8434   XZ=              0.7869   YZ=             -2.2774

 Summary of Natural Population Analysis:

                                       Natural Population
                Natural  -----------------------------------------------
    Atom  No    Charge         Core      Valence    Rydberg      Total
 -----------------------------------------------------------------------
      C    1   -0.28909      0.99964     2.28372    0.00573     3.28909
      C    2   -0.05029      0.99949     2.03857    0.01223     3.05029
      C    3   -0.11341      0.99953     2.10454    0.00934     3.11341
      C    4    0.31510      0.99957     1.66120    0.02413     2.68490
      O    5   -0.25821      0.99988     3.25181    0.00652     4.25821
      C    6    0.01445      0.99954     1.96972    0.01628     2.98555
      C    7   -0.27942      0.99963     2.27444    0.00534     3.27942
      C    8   -0.10285      0.99956     2.08987    0.01343     3.10285
      C    9   -0.20409      0.99962     2.19672    0.00775     3.20409
      C   10   -0.20435      0.99962     2.19876    0.00596     3.20435
      N   11   -0.42732      0.99976     2.91814    0.00941     3.92732
      H   12    0.08748      0.00000     0.41158    0.00094     0.41252
      H   13    0.10372      0.00000     0.39456    0.00172     0.39628
      H   14    0.09479      0.00000     0.40407    0.00114     0.40521
      H   15    0.08246      0.00000     0.41672    0.00082     0.41754
      H   16    0.07677      0.00000     0.42221    0.00101     0.42323
      H   17    0.10407      0.00000     0.39522    0.00071     0.39593
      H   18    0.09208      0.00000     0.40672    0.00120     0.40792
      H   19    0.09771      0.00000     0.40145    0.00083     0.40229
      H   20    0.09705      0.00000     0.40161    0.00134     0.40295
      H   21    0.09210      0.00000     0.40706    0.00084     0.40790
      H   22    0.11675      0.00000     0.38166    0.00159     0.38325
      H   23    0.11184      0.00000     0.38701    0.00115     0.38816
      H   24    0.09103      0.00000     0.40787    0.00110     0.40897
      H   25    0.18263      0.00000     0.31566    0.00170     0.31737
      H   26    0.16901      0.00000     0.32953    0.00147     0.33099
 =======================================================================
   * Total *    0.00000     10.99584    30.87047    0.13369    42.00000

 Normal termination of Gaussian 16 at Tue Dec  8 22:03:21 2020.
