 Gaussian 16, Revision A.03,

 ----------------------------------------------------------------------
 # opt=(cartesian,calcfc) freq B3LYP/6-31G(d) empiricaldispersion=gd3bj
  scf=xqc
 ----------------------------------------------------------------------

 ------------------------------
 CID_29554902_JID_8105_neutraal
 ------------------------------
 Symbolic Z-matrix:
 Charge =  0 Multiplicity = 1

 SCF Done:  E(RB3LYP) =  -748.775072422     A.U. after   15 cycles
 SCF Done:  E(RB3LYP) =  -748.775075764     A.U. after   10 cycles
 SCF Done:  E(RB3LYP) =  -748.775075260     A.U. after    9 cycles
 SCF Done:  E(RB3LYP) =  -748.775076420     A.U. after    9 cycles
 SCF Done:  E(RB3LYP) =  -748.775062173     A.U. after   10 cycles
 SCF Done:  E(RB3LYP) =  -748.775076027     A.U. after    9 cycles
 SCF Done:  E(RB3LYP) =  -748.775076438     A.U. after    8 cycles
 SCF Done:  E(RB3LYP) =  -748.775076625     A.U. after    7 cycles
 SCF Done:  E(RB3LYP) =  -748.775077031     A.U. after    8 cycles
 SCF Done:  E(RB3LYP) =  -748.775077352     A.U. after    8 cycles
 SCF Done:  E(RB3LYP) =  -748.775078067     A.U. after    6 cycles
 SCF Done:  E(RB3LYP) =  -748.775078091     A.U. after    7 cycles
 SCF Done:  E(RB3LYP) =  -748.775078114     A.U. after    7 cycles
 SCF Done:  E(RB3LYP) =  -748.775078096     A.U. after    7 cycles
 SCF Done:  E(RB3LYP) =  -748.775078122     A.U. after    6 cycles
 Optimization completed on the basis of negligible forces.
    -- Stationary point found.
 Normal termination of Gaussian 16 at Mon Jan  4 10:19:30 2021.

 --------------------------------------------------------------------
 #N Geom=AllCheck Guess=TCheck SCRF=Check GenChk RB3LYP/6-31G(d) Freq
 --------------------------------------------------------------------

 Structure from the checkpoint file:  "JID_8105.chk"
 ------------------------------
 CID_29554902_JID_8105_neutraal
 ------------------------------
 Charge =  0 Multiplicity = 1

 SCF Done:  E(RB3LYP) =  -748.775078122     A.U. after    1 cycles

  Exact polarizability: 213.595  -3.888 156.049  24.093   9.557 141.095
 Approx polarizability: 292.590  -4.696 267.271  48.016  31.084 247.389

                      1                      2                      3
                      A                      A                      A
 Frequencies --     22.8926                28.2660                35.0421
 Red. masses --      4.5546                 1.7849                 1.5544
 Frc consts  --      0.0014                 0.0008                 0.0011
 IR Inten    --      0.1323                 0.1650                 0.1030

                      4                      5                      6
                      A                      A                      A
 Frequencies --     36.6772               103.5635               137.8515
 Red. masses --      4.0755                 5.5615                 5.1434
 Frc consts  --      0.0032                 0.0351                 0.0576
 IR Inten    --      0.1707                 0.9004                 0.1917

                      7                      8                      9
                      A                      A                      A
 Frequencies --    206.2224               216.3515               220.9683
 Red. masses --      3.5513                 3.0794                 3.7276
 Frc consts  --      0.0890                 0.0849                 0.1072
 IR Inten    --      3.0015                 2.3874                 0.8441

                     10                     11                     12
                      A                      A                      A
 Frequencies --    255.0179               284.1641               320.1140
 Red. masses --      4.2484                 3.5407                 2.8314
 Frc consts  --      0.1628                 0.1685                 0.1709
 IR Inten    --      1.0680                 3.2492                 3.5044

                     13                     14                     15
                      A                      A                      A
 Frequencies --    371.7744               434.5640               437.1486
 Red. masses --      3.0050                 3.8580                 3.1681
 Frc consts  --      0.2447                 0.4293                 0.3567
 IR Inten    --      6.0589                12.8019                 2.5397

                     16                     17                     18
                      A                      A                      A
 Frequencies --    443.9946               470.1504               506.2629
 Red. masses --      2.8575                 2.5103                 3.9074
 Frc consts  --      0.3319                 0.3269                 0.5901
 IR Inten    --     12.8789                50.0564                28.9575

                     19                     20                     21
                      A                      A                      A
 Frequencies --    533.8027               573.6139               581.9698
 Red. masses --      4.8798                 4.2485                 3.9132
 Frc consts  --      0.8192                 0.8236                 0.7809
 IR Inten    --      3.4207                 2.8937                 0.4270

                     22                     23                     24
                      A                      A                      A
 Frequencies --    592.7821               604.3352               625.6602
 Red. masses --      2.8734                 3.9770                 6.5790
 Frc consts  --      0.5949                 0.8558                 1.5173
 IR Inten    --     30.0978                 3.1250                 1.8447

                     25                     26                     27
                      A                      A                      A
 Frequencies --    641.1004               702.9917               713.5645
 Red. masses --      3.1328                 2.6061                 3.8393
 Frc consts  --      0.7586                 0.7588                 1.1518
 IR Inten    --     26.4893                10.9953                12.9218

                     28                     29                     30
                      A                      A                      A
 Frequencies --    744.9161               755.9231               761.1406
 Red. masses --      4.7098                 1.9079                 1.9045
 Frc consts  --      1.5398                 0.6423                 0.6501
 IR Inten    --      1.1473                12.7956                35.5824

                     31                     32                     33
                      A                      A                      A
 Frequencies --    783.3789               823.8842               837.3869
 Red. masses --      1.4517                 1.3240                 4.0216
 Frc consts  --      0.5249                 0.5295                 1.6615
 IR Inten    --     42.5641                22.8141                11.6545

                     34                     35                     36
                      A                      A                      A
 Frequencies --    851.2911               867.2116               868.0994
 Red. masses --      1.3502                 1.4578                 1.4627
 Frc consts  --      0.5765                 0.6460                 0.6494
 IR Inten    --      8.9708                 1.2608                 7.8526

                     37                     38                     39
                      A                      A                      A
 Frequencies --    899.6966               929.5689               933.6477
 Red. masses --      4.9739                 1.3544                 2.6115
 Frc consts  --      2.3722                 0.6895                 1.3413
 IR Inten    --      3.3163                 1.3857                11.5860

                     40                     41                     42
                      A                      A                      A
 Frequencies --    957.2338               971.1086               978.3420
 Red. masses --      1.2513                 1.2318                 6.9288
 Frc consts  --      0.6755                 0.6844                 3.9074
 IR Inten    --      0.3182                 0.0130                10.2755

                     43                     44                     45
                      A                      A                      A
 Frequencies --   1011.7587              1022.9654              1041.2892
 Red. masses --      2.9370                 2.1835                 2.0763
 Frc consts  --      1.7713                 1.3462                 1.3264
 IR Inten    --      2.5550                 0.6662                 5.1830

                     46                     47                     48
                      A                      A                      A
 Frequencies --   1063.6506              1074.2669              1115.5431
 Red. masses --      1.8276                 1.5133                 2.4591
 Frc consts  --      1.2182                 1.0290                 1.8030
 IR Inten    --      3.9160                 8.3486                 8.8088

                     49                     50                     51
                      A                      A                      A
 Frequencies --   1134.0797              1143.5076              1171.9360
 Red. masses --      1.8513                 1.8810                 1.6156
 Frc consts  --      1.4028                 1.4492                 1.3073
 IR Inten    --      4.7965                12.7114                 9.9072

                     52                     53                     54
                      A                      A                      A
 Frequencies --   1182.1055              1204.7522              1206.0260
 Red. masses --      1.1919                 2.2933                 1.1626
 Frc consts  --      0.9813                 1.9611                 0.9963
 IR Inten    --      4.3909                56.0429                 8.1607

                     55                     56                     57
                      A                      A                      A
 Frequencies --   1223.1006              1268.5519              1269.9975
 Red. masses --      1.9725                 2.7770                 1.1842
 Frc consts  --      1.7386                 2.6330                 1.1253
 IR Inten    --     22.3364                 7.9353                 2.4851

                     58                     59                     60
                      A                      A                      A
 Frequencies --   1292.2554              1319.7216              1341.0324
 Red. masses --      2.8851                 2.6708                 1.8828
 Frc consts  --      2.8386                 2.7407                 1.9950
 IR Inten    --     57.3829                50.1927                27.0142

                     61                     62                     63
                      A                      A                      A
 Frequencies --   1353.4022              1378.5781              1403.6173
 Red. masses --      1.5278                 3.4028                 3.4909
 Frc consts  --      1.6488                 3.8102                 4.0522
 IR Inten    --     13.2625                27.6518                 4.5463

                     64                     65                     66
                      A                      A                      A
 Frequencies --   1420.4443              1441.3030              1480.7731
 Red. masses --      1.9683                 1.2446                 2.2591
 Frc consts  --      2.3398                 1.5233                 2.9185
 IR Inten    --     19.7963                 0.0879                27.7903

                     67                     68                     69
                      A                      A                      A
 Frequencies --   1499.5857              1511.6979              1516.7612
 Red. masses --      2.5013                 1.1708                 1.2442
 Frc consts  --      3.3141                 1.5765                 1.6864
 IR Inten    --     40.1481                 4.8312                15.9919

                     70                     71                     72
                      A                      A                      A
 Frequencies --   1518.9534              1524.5958              1538.7653
 Red. masses --      1.0938                 2.5494                 1.5398
 Frc consts  --      1.4869                 3.4914                 2.1481
 IR Inten    --      3.3156                 0.8184                29.0963

                     73                     74                     75
                      A                      A                      A
 Frequencies --   1568.8976              1642.8551              1653.4809
 Red. masses --      1.9917                 6.3316                 5.0522
 Frc consts  --      2.8885                10.0685                 8.1381
 IR Inten    --     85.6966                 1.9182                48.1192

                     76                     77                     78
                      A                      A                      A
 Frequencies --   1656.5703              1672.2500              1674.9069
 Red. masses --      6.8156                 5.6314                 7.0824
 Frc consts  --     11.0199                 9.2783                11.7061
 IR Inten    --     13.7113               111.4212                 1.6427

                     79                     80                     81
                      A                      A                      A
 Frequencies --   3042.3057              3047.2907              3078.0088
 Red. masses --      1.0395                 1.0605                 1.1027
 Frc consts  --      5.6686                 5.8020                 6.1554
 IR Inten    --     30.8272                34.0832                14.0044

                     82                     83                     84
                      A                      A                      A
 Frequencies --   3097.7026              3126.4929              3170.3471
 Red. masses --      1.0975                 1.1019                 1.0868
 Frc consts  --      6.2047                 6.3462                 6.4360
 IR Inten    --     20.1986                18.9478                 9.4730

                     85                     86                     87
                      A                      A                      A
 Frequencies --   3185.7169              3188.2050              3200.3735
 Red. masses --      1.0893                 1.0857                 1.0899
 Frc consts  --      6.5133                 6.5019                 6.5772
 IR Inten    --     20.6201                 1.5610                11.6549

                     88                     89                     90
                      A                      A                      A
 Frequencies --   3201.5532              3204.6254              3210.6439
 Red. masses --      1.0943                 1.0907                 1.0948
 Frc consts  --      6.6086                 6.5996                 6.6492
 IR Inten    --     45.5752                 1.1522                27.0516

                     91                     92                     93
                      A                      A                      A
 Frequencies --   3223.8668              3282.2943              3585.9453
 Red. masses --      1.0952                 1.0968                 1.0755
 Frc consts  --      6.7067                 6.9617                 8.1483
 IR Inten    --     11.8142                 2.0233                 9.8146

 - Thermochemistry -
 -------------------
 Temperature   298.150 Kelvin.  Pressure   1.00000 Atm.
 Atom     1 has atomic number  6 and mass  12.00000

 Molecular mass:   237.11536 amu.
 Principal axes and moments of inertia in atomic units:
                           1         2         3
     Eigenvalues --  2157.613818302.925088948.51443
           X            0.99999   0.00360  -0.00216
           Y           -0.00366   0.99949  -0.03173
           Z            0.00205   0.03174   0.99949
 This molecule is an asymmetric top.
 Rotational symmetry number  1.
 Warning -- assumption of classical behavior for rotation
           may cause significant error
 Rotational temperatures (Kelvin)      0.04014     0.01043     0.00968
 Rotational constants (GHZ):           0.83645     0.21736     0.20168
 Zero-point vibrational energy     714487.8 (Joules/Mol)
                                  170.76667 (Kcal/Mol)
 Warning -- explicit consideration of  23 degrees of freedom as
           vibrations may cause significant error
 Vibrational temperatures:     32.94    40.67    50.42    52.77   149.00
          (Kelvin)            198.34   296.71   311.28   317.92   366.91
                              408.85   460.57   534.90   625.24   628.96
                              638.81   676.44   728.40   768.02   825.30
                              837.32   852.88   869.50   900.19   922.40
                             1011.45  1026.66  1071.77  1087.60  1095.11
                             1127.11  1185.39  1204.81  1224.82  1247.72
                             1249.00  1294.46  1337.44  1343.31  1377.25
                             1397.21  1407.62  1455.70  1471.82  1498.18
                             1530.36  1545.63  1605.02  1631.69  1645.25
                             1686.15  1700.79  1733.37  1735.20  1759.77
                             1825.16  1827.24  1859.27  1898.79  1929.45
                             1947.24  1983.47  2019.49  2043.70  2073.71
                             2130.50  2157.57  2175.00  2182.28  2185.44
                             2193.55  2213.94  2257.29  2363.70  2378.99
                             2383.44  2405.99  2409.82  4377.20  4384.37
                             4428.57  4456.90  4498.33  4561.42  4583.54
                             4587.12  4604.62  4606.32  4610.74  4619.40
                             4638.43  4722.49  5159.38

 Zero-point correction=                           0.272134 (Hartree/Particle)
 Thermal correction to Energy=                    0.287204
 Thermal correction to Enthalpy=                  0.288148
 Thermal correction to Gibbs Free Energy=         0.227246
 Sum of electronic and zero-point Energies=           -748.502944
 Sum of electronic and thermal Energies=              -748.487874
 Sum of electronic and thermal Enthalpies=            -748.486930
 Sum of electronic and thermal Free Energies=         -748.547832

                     E (Thermal)             CV                S
                      KCal/Mol        Cal/Mol-Kelvin    Cal/Mol-Kelvin
 Total                  180.223             59.407            128.179
 Electronic               0.000              0.000              0.000
 Translational            0.889              2.981             42.292
 Rotational               0.889              2.981             33.438
 Vibrational            178.446             53.445             52.450
 Vibration     1          0.593              1.985              6.366
 Vibration     2          0.593              1.984              5.948
 Vibration     3          0.594              1.982              5.521
 Vibration     4          0.594              1.982              5.431
 Vibration     5          0.605              1.946              3.386
 Vibration     6          0.614              1.916              2.833
 Vibration     7          0.641              1.831              2.077
 Vibration     8          0.645              1.816              1.989
 Vibration     9          0.648              1.809              1.951
 Vibration    10          0.665              1.754              1.696
 Vibration    11          0.683              1.703              1.508
 Vibration    12          0.706              1.635              1.310
 Vibration    13          0.743              1.530              1.072
 Vibration    14          0.795              1.395              0.844
 Vibration    15          0.797              1.389              0.836
 Vibration    16          0.804              1.374              0.814
 Vibration    17          0.827              1.316              0.737
 Vibration    18          0.861              1.236              0.643
 Vibration    19          0.889              1.175              0.579
 Vibration    20          0.930              1.088              0.497
 Vibration    21          0.939              1.070              0.482
 Vibration    22          0.950              1.047              0.462
 Vibration    23          0.963              1.023              0.442

 Optimization completed on the basis of negligible forces.
    -- Stationary point found.
 Normal termination of Gaussian 16 at Mon Jan  4 10:30:51 2021.

 ----------------------------------------------------------------------
 # B3LYP/6-311++G(d,p) empiricaldispersion=gd3bj scf=xqc pop=npa geom=c
 heck
 ----------------------------------------------------------------------

 --------------------------------------
 CID_29554902_JID_8105_Energie_neutraal
 --------------------------------------
 Structure from the checkpoint file:  "JID_8105.chk"
 Charge =  0 Multiplicity = 1

 SCF Done:  E(RB3LYP) =  -748.970672300     A.U. after   15 cycles
 Normal termination of Gaussian 16 at Mon Jan  4 10:35:38 2021.

 ----------------------------------------------------------------------
 # B3LYP/6-311++G(d,p) empiricaldispersion=gd3bj scf=xqc pop=npa geom=c
 heck
 ----------------------------------------------------------------------

 ------------------------------------
 CID_29554902_JID_8105_Energie_kation
 ------------------------------------
 Structure from the checkpoint file:  "JID_8105.chk"
 Charge =  1 Multiplicity = 2

 SCF Done:  E(UB3LYP) =  -748.704376947     A.U. after   26 cycles
 Normal termination of Gaussian 16 at Mon Jan  4 10:46:48 2021.
 Gaussian 16:  ES64L-G16RevA.03 25-Dec-2016

 ----------------------------------------------------------------------
 # B3LYP/6-311++G(d,p) empiricaldispersion=gd3bj scf=xqc pop=npa geom=c
 heck
 ----------------------------------------------------------------------

 -----------------------------------
 CID_29554902_JID_8105_Energie_anion
 -----------------------------------
 Structure from the checkpoint file:  "JID_8105.chk"
 Charge = -1 Multiplicity = 2

                         Standard orientation:
 ---------------------------------------------------------------------
 Center     Atomic      Atomic             Coordinates (Angstroms)
 Number     Number       Type             X           Y           Z
 ---------------------------------------------------------------------
      1          6           0       -3.059616   -2.226582    1.779388
      2          6           0       -3.120431   -1.177193    0.695286
      3          6           0       -2.264390   -0.072057    0.750922
      4          6           0       -2.309417    0.930935   -0.227986
      5          6           0       -3.226980    0.801157   -1.286259
      6          6           0       -4.072853   -0.299308   -1.345903
      7          6           0       -4.027401   -1.289200   -0.362353
      8          7           0       -1.501074    2.071720   -0.171379
      9          6           0       -0.313541    2.130025    0.653365
     10          6           0        0.784130    1.199216    0.229085
     11          6           0        0.881186    0.266059   -0.752742
     12          6           0        2.207192   -0.297666   -0.651065
     13          6           0        2.936216   -1.280015   -1.335114
     14          6           0        4.237949   -1.549909   -0.920166
     15          6           0        4.820262   -0.860653    0.158516
     16          6           0        4.114524    0.120854    0.855512
     17          6           0        2.819819    0.372667    0.425575
     18          8           0        1.950277    1.288966    0.964380
     19          1           0       -2.024399   -2.459344    2.053003
     20          1           0       -3.566430   -1.884523    2.691215
     21          1           0       -3.543927   -3.155495    1.462696
     22          1           0       -1.544611   -0.010415    1.560476
     23          1           0       -3.271802    1.571717   -2.052750
     24          1           0       -4.773558   -0.388001   -2.171888
     25          1           0       -4.689228   -2.148803   -0.419229
     26          1           0       -1.392031    2.529699   -1.067166
     27          1           0        0.059821    3.161289    0.639702
     28          1           0       -0.585767    1.930597    1.697616
     29          1           0        0.098930   -0.009013   -1.444589
     30          1           0        2.495435   -1.818803   -2.168742
     31          1           0        4.817534   -2.308298   -1.438472
     32          1           0        5.837734   -1.095856    0.456182
     33          1           0        4.547717    0.661499    1.690189
 ---------------------------------------------------------------------

 SCF Done:  E(UB3LYP) =  -748.957449140     A.U. after   33 cycles
 SCF Done:  E(UB3LYP) =  -748.957449140     a.u. after    1 cycles

 The electronic state is 2-A.
 Alpha  occ. eigenvalues --  -19.08534 -14.22684 -10.13146 -10.12966 -10.12104
 Alpha  occ. eigenvalues --  -10.11489 -10.08288 -10.07958 -10.07864 -10.07703
 Alpha  occ. eigenvalues --  -10.07651 -10.07508 -10.07341 -10.07330 -10.06941
 Alpha  occ. eigenvalues --  -10.06521 -10.06468 -10.06259  -1.00936  -0.84309
 Alpha  occ. eigenvalues --   -0.75937  -0.75039  -0.70329  -0.67765  -0.66181
 Alpha  occ. eigenvalues --   -0.64676  -0.63156  -0.59854  -0.58052  -0.52552
 Alpha  occ. eigenvalues --   -0.50466  -0.49828  -0.49481  -0.47616  -0.42277
 Alpha  occ. eigenvalues --   -0.42170  -0.40528  -0.39788  -0.38219  -0.37136
 Alpha  occ. eigenvalues --   -0.36567  -0.34715  -0.34385  -0.33192  -0.32932
 Alpha  occ. eigenvalues --   -0.32505  -0.31021  -0.31017  -0.30190  -0.29433
 Alpha  occ. eigenvalues --   -0.28695  -0.27190  -0.26938  -0.25733  -0.25463
 Alpha  occ. eigenvalues --   -0.24523  -0.24148  -0.20198  -0.19768  -0.14848
 Alpha  occ. eigenvalues --   -0.14619  -0.12522  -0.10601   0.04464
 Alpha virt. eigenvalues --    0.06184   0.06536   0.06578   0.07189   0.07924
 Alpha virt. eigenvalues --    0.08244   0.08650   0.09036   0.09251   0.09539
 Alpha virt. eigenvalues --    0.09701   0.10666   0.10879   0.11012   0.11623

  Beta  occ. eigenvalues --  -19.08520 -14.22655 -10.13075 -10.12986 -10.12090
  Beta  occ. eigenvalues --  -10.11492 -10.08270 -10.07918 -10.07789 -10.07711
  Beta  occ. eigenvalues --  -10.07597 -10.07412 -10.07326 -10.07313 -10.06932
  Beta  occ. eigenvalues --  -10.06492 -10.06457 -10.06253  -1.00901  -0.84264
  Beta  occ. eigenvalues --   -0.75830  -0.75003  -0.70223  -0.67703  -0.66113
  Beta  occ. eigenvalues --   -0.64572  -0.63068  -0.59792  -0.57988  -0.52480
  Beta  occ. eigenvalues --   -0.50361  -0.49771  -0.49429  -0.47540  -0.42214
  Beta  occ. eigenvalues --   -0.42108  -0.40452  -0.39718  -0.38165  -0.37074
  Beta  occ. eigenvalues --   -0.36451  -0.34647  -0.34329  -0.33147  -0.32885
  Beta  occ. eigenvalues --   -0.32463  -0.30976  -0.30963  -0.30117  -0.29405
  Beta  occ. eigenvalues --   -0.28664  -0.27145  -0.26896  -0.25675  -0.25210
  Beta  occ. eigenvalues --   -0.24476  -0.24116  -0.20150  -0.19439  -0.14750
  Beta  occ. eigenvalues --   -0.14369  -0.12157  -0.10525
  Beta virt. eigenvalues --    0.06314   0.06661   0.07221   0.07509   0.07583
  Beta virt. eigenvalues --    0.08046   0.08481   0.09130   0.09332   0.09372
  Beta virt. eigenvalues --    0.09688   0.09770   0.10779   0.10951   0.11409

 Mulliken charges and spin densities:
               1          2
     1  C    1.020890  -1.608276
     2  C    0.219231   0.424268
     3  C    0.943963  -0.508096
     4  C   -0.816331   0.367519
     5  C   -1.068142   1.073552
     6  C    0.419176  -0.765202
     7  C   -0.243890  -0.592747
     8  N    0.041106   0.023740
     9  C    0.828117  -1.807143
    10  C   -0.376284   0.634708
    11  C    1.064873  -0.956808
    12  C    0.826390   0.146035
    13  C   -0.477378   0.326149
    14  C   -0.089029  -0.128951
    15  C    0.118202  -0.332754
    16  C   -1.061924   0.615666
    17  C   -0.850194   0.191970
    18  O   -0.040226   0.021630
    19  H    0.030229   0.105297
    20  H   -0.088308   0.256767
    21  H   -0.037419   0.176983
    22  H    0.309182  -0.178325
    23  H   -0.711110   0.854622
    24  H   -0.223015   0.389044
    25  H   -0.109996   0.225226
    26  H   -0.213335   0.479812
    27  H   -0.322264   0.529538
    28  H   -0.173078   0.379965
    29  H    0.078783   0.108326
    30  H   -0.039308   0.171274
    31  H    0.033046   0.104362
    32  H    0.039062   0.091167
    33  H   -0.031017   0.180683
 Sum of Mulliken charges =  -1.00000   1.00000

 Dipole moment (field-independent basis, Debye):
    X=              3.5608    Y=             -2.4263    Z=              1.8548  Tot=              4.6911
 Quadrupole moment (field-independent basis, Debye-Ang):
   XX=           -183.5756   YY=           -148.1101   ZZ=           -140.8250
   XY=              2.1384   XZ=             -3.2874   YZ=              7.5591

 Summary of Natural Population Analysis:

                                       Natural Population
                Natural  -----------------------------------------------
    Atom  No    Charge         Core      Valence    Rydberg      Total
 -----------------------------------------------------------------------
      C    1   -0.29063      0.99964     2.28610    0.00490     3.29063
      C    2   -0.00512      0.99952     1.99674    0.00886     3.00512
      C    3   -0.13051      0.99947     2.12336    0.00769     3.13051
      C    4    0.09158      0.99949     1.89648    0.01246     2.90842
      C    5   -0.12336      0.99952     2.11387    0.00997     3.12336
      C    6   -0.08958      0.99957     2.07900    0.01101     3.08958
      C    7   -0.12658      0.99951     2.11774    0.00933     3.12658
      N    8   -0.31000      0.99969     2.79799    0.01232     3.81000
      C    9   -0.10941      0.99957     2.09712    0.01273     3.10941
      C   10    0.17263      0.99944     1.81324    0.01468     2.82737
      C   11   -0.14716      0.99945     2.13926    0.00845     3.14716
      C   12   -0.04728      0.99949     2.03919    0.00861     3.04728
      C   13   -0.07964      0.99954     2.07172    0.00838     3.07964
      C   14   -0.11856      0.99958     2.10930    0.00969     3.11856
      C   15   -0.09905      0.99959     2.08926    0.01020     3.09905
      C   16   -0.11273      0.99951     2.10389    0.00933     3.11273
      C   17    0.15155      0.99935     1.83634    0.01277     2.84845
      O   18   -0.24661      0.99985     3.23911    0.00766     4.24661
      H   19    0.10250      0.00000     0.39634    0.00116     0.39750
      H   20    0.10319      0.00000     0.39530    0.00151     0.39681
      H   21    0.10009      0.00000     0.39887    0.00104     0.39991
      H   22    0.10076      0.00000     0.39749    0.00174     0.39924
      H   23    0.10171      0.00000     0.39586    0.00243     0.39829
      H   24    0.09908      0.00000     0.39997    0.00095     0.40092
      H   25    0.09734      0.00000     0.40171    0.00095     0.40266
      H   26    0.18955      0.00000     0.30456    0.00589     0.31045
      H   27    0.10896      0.00000     0.38982    0.00122     0.39104
      H   28    0.10507      0.00000     0.39328    0.00165     0.39493
      H   29    0.11645      0.00000     0.38251    0.00104     0.38355
      H   30    0.09887      0.00000     0.39990    0.00123     0.40113
      H   31    0.09703      0.00000     0.40219    0.00078     0.40297
      H   32    0.09614      0.00000     0.40309    0.00077     0.40386
      H   33    0.10370      0.00000     0.39529    0.00100     0.39630
 =======================================================================
   * Total *    0.00000     17.99176    44.80586    0.20238    63.00000

 Normal termination of Gaussian 16 at Mon Jan  4 11:01:09 2021.
