 Gaussian 16, Revision A.03,

 -----------------------------------------------------------
 # opt freq B3LYP/6-31G(d) empiricaldispersion=gd3bj scf=xqc
 -----------------------------------------------------------

 -------------------------------
 CID_84088780_JID_10873_neutraal
 -------------------------------
 Symbolic Z-matrix:
 Charge =  0 Multiplicity = 1

 SCF Done:  E(RB3LYP) =  -902.898186825     A.U. after   15 cycles
 SCF Done:  E(RB3LYP) =  -902.901326021     A.U. after   12 cycles
 SCF Done:  E(RB3LYP) =  -902.901745100     A.U. after   11 cycles
 SCF Done:  E(RB3LYP) =  -902.901767696     A.U. after   10 cycles
 SCF Done:  E(RB3LYP) =  -902.901768151     A.U. after   10 cycles
 SCF Done:  E(RB3LYP) =  -902.901789896     A.U. after   10 cycles
 SCF Done:  E(RB3LYP) =  -902.901797348     A.U. after   10 cycles
 SCF Done:  E(RB3LYP) =  -902.901837340     A.U. after   11 cycles
 SCF Done:  E(RB3LYP) =  -902.901796614     A.U. after   14 cycles
 SCF Done:  E(RB3LYP) =  -902.901884638     A.U. after   13 cycles
 SCF Done:  E(RB3LYP) =  -902.903390176     A.U. after    8 cycles
 SCF Done:  E(RB3LYP) =  -902.903389198     A.U. after    9 cycles
 SCF Done:  E(RB3LYP) =  -902.903390823     A.U. after    9 cycles
 SCF Done:  E(RB3LYP) =  -902.903390642     A.U. after    7 cycles
 SCF Done:  E(RB3LYP) =  -902.903391043     A.U. after    6 cycles
 Optimization completed.
    -- Stationary point found.
 Normal termination of Gaussian 16 at Sat Dec 12 16:45:02 2020.

 --------------------------------------------------------------------
 #N Geom=AllCheck Guess=TCheck SCRF=Check GenChk RB3LYP/6-31G(d) Freq
 --------------------------------------------------------------------

 Structure from the checkpoint file:  "JID_10873.chk"
 -------------------------------
 CID_84088780_JID_10873_neutraal
 -------------------------------
 Charge =  0 Multiplicity = 1

 SCF Done:  E(RB3LYP) =  -902.903391043     A.U. after    1 cycles

  Exact polarizability: 216.419  -0.061 170.344  -0.021  -3.225 130.388
 Approx polarizability: 277.705   4.103 270.198   0.864 -10.883 198.991

                      1                      2                      3
                      A                      A                      A
 Frequencies --     18.8285                37.7237                57.3099
 Red. masses --      3.9937                 2.7630                 4.4641
 Frc consts  --      0.0008                 0.0023                 0.0086
 IR Inten    --      0.0231                 0.0851                 0.0552

                      4                      5                      6
                      A                      A                      A
 Frequencies --     69.6784                79.1073               145.3207
 Red. masses --      8.1787                 4.7158                 3.9110
 Frc consts  --      0.0234                 0.0174                 0.0487
 IR Inten    --      2.3325                 0.0898                 0.1942

                      7                      8                      9
                      A                      A                      A
 Frequencies --    167.2654               175.9455               212.9494
 Red. masses --      3.1630                 7.4376                 1.6454
 Frc consts  --      0.0521                 0.1357                 0.0440
 IR Inten    --      1.1081                 1.2726                 0.4540

                     10                     11                     12
                      A                      A                      A
 Frequencies --    239.4771               276.7406               282.0509
 Red. masses --      4.6226                 1.8641                 3.0382
 Frc consts  --      0.1562                 0.0841                 0.1424
 IR Inten    --      0.6628                 1.9534                 1.0142

                     13                     14                     15
                      A                      A                      A
 Frequencies --    315.9226               330.2431               354.5468
 Red. masses --      1.9956                 2.5399                 3.0159
 Frc consts  --      0.1174                 0.1632                 0.2234
 IR Inten    --      0.0038                 1.2424                 1.0078

                     16                     17                     18
                      A                      A                      A
 Frequencies --    396.9886               407.8146               421.9081
 Red. masses --      3.8659                 4.7105                 3.9563
 Frc consts  --      0.3590                 0.4616                 0.4149
 IR Inten    --      0.1183                 0.2778                 0.9093

                     19                     20                     21
                      A                      A                      A
 Frequencies --    435.9526               444.1821               454.1269
 Red. masses --      2.4341                 2.7217                 2.0781
 Frc consts  --      0.2726                 0.3164                 0.2525
 IR Inten    --      0.4257                 3.1339                 0.1610

                     22                     23                     24
                      A                      A                      A
 Frequencies --    464.9191               485.1756               571.1359
 Red. masses --      2.8929                 2.3175                 4.7693
 Frc consts  --      0.3684                 0.3214                 0.9166
 IR Inten    --      0.0876                 2.5119                 6.3528

                     25                     26                     27
                      A                      A                      A
 Frequencies --    613.5391               657.6774               659.6385
 Red. masses --      1.4651                 3.7481                 3.6983
 Frc consts  --      0.3249                 0.9552                 0.9481
 IR Inten    --     58.6679                 0.2929                 4.1905

                     28                     29                     30
                      A                      A                      A
 Frequencies --    668.1199               693.0467               713.8967
 Red. masses --      3.7245                 4.1437                 4.1964
 Frc consts  --      0.9795                 1.1726                 1.2601
 IR Inten    --     20.2146                24.4971                53.7595

                     31                     32                     33
                      A                      A                      A
 Frequencies --    736.6339               753.2481               779.7103
 Red. masses --      4.0730                 7.8835                 3.9207
 Frc consts  --      1.3022                 2.6354                 1.4044
 IR Inten    --     36.9377                 2.6343                 3.2192

                     34                     35                     36
                      A                      A                      A
 Frequencies --    797.4658               799.3062               824.8072
 Red. masses --      3.8831                 1.5600                 2.6490
 Frc consts  --      1.4550                 0.5872                 1.0618
 IR Inten    --     12.7301                 4.5746                 1.1802

                     37                     38                     39
                      A                      A                      A
 Frequencies --    828.3075               869.4603               902.7917
 Red. masses --      2.8056                 4.1571                 1.5902
 Frc consts  --      1.1341                 1.8516                 0.7636
 IR Inten    --      0.0465                 2.4468                 0.0300

                     40                     41                     42
                      A                      A                      A
 Frequencies --    906.6219               908.0442               947.7615
 Red. masses --      1.5678                 1.5745                 2.6862
 Frc consts  --      0.7592                 0.7649                 1.4216
 IR Inten    --      0.0169                 0.0004                 3.4283

                     43                     44                     45
                      A                      A                      A
 Frequencies --    951.1763               962.8397               978.4301
 Red. masses --      2.1239                 3.9107                 2.5118
 Frc consts  --      1.1321                 2.1360                 1.4167
 IR Inten    --      0.0851                 5.0208                 5.1012

                     46                     47                     48
                      A                      A                      A
 Frequencies --    993.1782               996.2025              1001.1000
 Red. masses --      2.2344                 2.1575                 2.4478
 Frc consts  --      1.2986                 1.2615                 1.4454
 IR Inten    --      1.5037                 0.0220                 0.1116

                     49                     50                     51
                      A                      A                      A
 Frequencies --   1051.4343              1057.8989              1063.4853
 Red. masses --      3.1231                 1.9759                 1.7973
 Frc consts  --      2.0342                 1.3029                 1.1977
 IR Inten    --     96.2932                 0.0523                 0.0217

                     52                     53                     54
                      A                      A                      A
 Frequencies --   1065.2988              1074.5678              1094.3204
 Red. masses --      3.0024                 2.3093                 1.8075
 Frc consts  --      2.0075                 1.5711                 1.2753
 IR Inten    --     24.4399                17.8188                29.8453

                     55                     56                     57
                      A                      A                      A
 Frequencies --   1128.5787              1130.4024              1132.5642
 Red. masses --      1.9461                 1.4297                 1.9987
 Frc consts  --      1.4604                 1.0764                 1.5105
 IR Inten    --     44.1539                 2.4714                77.9292

                     58                     59                     60
                      A                      A                      A
 Frequencies --   1135.8518              1143.3447              1148.4832
 Red. masses --      1.6021                 1.0151                 1.0272
 Frc consts  --      1.2178                 0.7818                 0.7983
 IR Inten    --     22.9861                 0.0110                 0.0210

                     61                     62                     63
                      A                      A                      A
 Frequencies --   1214.8910              1217.7487              1221.5133
 Red. masses --      2.1929                 1.2119                 2.1685
 Frc consts  --      1.9069                 1.0588                 1.9063
 IR Inten    --     37.9911                 0.2453               140.0086

                     64                     65                     66
                      A                      A                      A
 Frequencies --   1226.4852              1272.2619              1292.9929
 Red. masses --      2.0643                 2.7027                 1.7496
 Frc consts  --      1.8296                 2.5775                 1.7234
 IR Inten    --     65.3101                 0.2707                 8.8640

                     67                     68                     69
                      A                      A                      A
 Frequencies --   1295.2064              1306.8898              1331.8646
 Red. masses --      1.4080                 1.5889                 1.7278
 Frc consts  --      1.3917                 1.5989                 1.8058
 IR Inten    --      0.0493                 1.9339                 0.0144

                     70                     71                     72
                      A                      A                      A
 Frequencies --   1332.7141              1335.1754              1358.2310
 Red. masses --      1.7102                 1.7375                 1.6174
 Frc consts  --      1.7897                 1.8249                 1.7580
 IR Inten    --      0.0215                 0.1465                 3.1058

                     73                     74                     75
                      A                      A                      A
 Frequencies --   1361.7839              1363.0069              1368.4639
 Red. masses --      1.4805                 1.5457                 1.7916
 Frc consts  --      1.6177                 1.6918                 1.9768
 IR Inten    --      0.2589                 1.7159                 8.5587

                     76                     77                     78
                      A                      A                      A
 Frequencies --   1369.2241              1394.0194              1397.2802
 Red. masses --      1.3117                 2.0417                 1.5313
 Frc consts  --      1.4488                 2.3377                 1.7615
 IR Inten    --      0.0064                 0.5095                 0.0013

                     79                     80                     81
                      A                      A                      A
 Frequencies --   1399.1275              1415.4075              1415.8459
 Red. masses --      1.5769                 1.5090                 1.5229
 Frc consts  --      1.8187                 1.7812                 1.7986
 IR Inten    --      0.1224                 0.0867                 0.2666

                     82                     83                     84
                      A                      A                      A
 Frequencies --   1419.6409              1429.9563              1451.0585
 Red. masses --      1.5756                 1.2666                 3.9862
 Frc consts  --      1.8709                 1.5259                 4.9451
 IR Inten    --      0.4994                 4.2643                97.1479

                     85                     86                     87
                      A                      A                      A
 Frequencies --   1497.8737              1507.4643              1509.4385
 Red. masses --      1.1086                 1.0866                 1.0873
 Frc consts  --      1.4654                 1.4548                 1.4596
 IR Inten    --      5.2443                 0.2890                 0.1802

                     88                     89                     90
                      A                      A                      A
 Frequencies --   1520.4887              1523.3394              1523.8576
 Red. masses --      1.0966                 1.0962                 1.0993
 Frc consts  --      1.4937                 1.4988                 1.5040
 IR Inten    --      8.3240                 6.8656                10.7026

                     91                     92                     93
                      A                      A                      A
 Frequencies --   1527.1779              1536.8495              1546.1163
 Red. masses --      1.0446                 1.0626                 1.0923
 Frc consts  --      1.4354                 1.4787                 1.5384
 IR Inten    --      3.8402                 6.7425                 0.4978

                     94                     95                     96
                      A                      A                      A
 Frequencies --   1632.4577              1650.9881              1798.9658
 Red. masses --     11.7207                 9.7989                 9.2220
 Frc consts  --     18.4029                15.7367                17.5842
 IR Inten    --     19.5831               141.7737               303.0634

                     97                     98                     99
                      A                      A                      A
 Frequencies --   3029.3063              3029.8973              3030.3321
 Red. masses --      1.0650                 1.0613                 1.0628
 Frc consts  --      5.7580                 5.7405                 5.7503
 IR Inten    --     10.9769                14.0988                16.8257

                    100                    101                    102
                      A                      A                      A
 Frequencies --   3038.8800              3041.0250              3050.3331
 Red. masses --      1.0647                 1.0652                 1.0773
 Frc consts  --      5.7929                 5.8037                 5.9061
 IR Inten    --      0.1952                32.9779                67.7592

                    103                    104                    105
                      A                      A                      A
 Frequencies --   3052.2282              3056.7624              3060.0978
 Red. masses --      1.0781                 1.0739                 1.0348
 Frc consts  --      5.9173                 5.9123                 5.7093
 IR Inten    --    133.1289                68.7375                31.9656

                    106                    107                    108
                      A                      A                      A
 Frequencies --   3066.0619              3068.0513              3068.1902
 Red. masses --      1.0764                 1.0978                 1.1051
 Frc consts  --      5.9618                 6.0885                 6.1291
 IR Inten    --     12.4917                23.4828                18.0460

                    109                    110                    111
                      A                      A                      A
 Frequencies --   3072.3560              3073.9781              3083.8432
 Red. masses --      1.0623                 1.1034                 1.1048
 Frc consts  --      5.9080                 6.1430                 6.1902
 IR Inten    --     14.4681               103.0182                 6.6364

                    112                    113                    114
                      A                      A                      A
 Frequencies --   3088.2769              3099.9363              3121.4362
 Red. masses --      1.1034                 1.1046                 1.1024
 Frc consts  --      6.2004                 6.2541                 6.3285
 IR Inten    --     52.6489                31.3853                 9.7507

                    115                    116                    117
                      A                      A                      A
 Frequencies --   3133.8491              3149.2658              3693.4490
 Red. masses --      1.1017                 1.1039                 1.0639
 Frc consts  --      6.3747                 6.4507                 8.5511
 IR Inten    --     23.2238                19.3351                72.3880

 - Thermochemistry -
 -------------------
 Temperature   298.150 Kelvin.  Pressure   1.00000 Atm.
 Atom     1 has atomic number  6 and mass  12.00000

 Molecular mass:   275.15214 amu.
 Principal axes and moments of inertia in atomic units:
                           1         2         3
     Eigenvalues --  2376.918409341.82635**********
           X            0.99987  -0.01617  -0.00212
           Y            0.01619   0.99983   0.00865
           Z            0.00198  -0.00868   0.99996
 This molecule is an asymmetric top.
 Rotational symmetry number  1.
 Warning -- assumption of classical behavior for rotation
           may cause significant error
 Rotational temperatures (Kelvin)      0.03644     0.00927     0.00826
 Rotational constants (GHZ):           0.75928     0.19319     0.17207
 Zero-point vibrational energy     933613.0 (Joules/Mol)
                                  223.13887 (Kcal/Mol)
 Warning -- explicit consideration of  25 degrees of freedom as
           vibrations may cause significant error
 Vibrational temperatures:     27.09    54.28    82.46   100.25   113.82
          (Kelvin)            209.08   240.66   253.15   306.39   344.55
                              398.17   405.81   454.54   475.15   510.11
                              571.18   586.75   607.03   627.24   639.08
                              653.39   668.91   698.06   821.74   882.75
                              946.25   949.07   961.28   997.14  1027.14
                             1059.85  1083.76  1121.83  1147.38  1150.02
                             1186.71  1191.75  1250.96  1298.92  1304.43
                             1306.47  1363.62  1368.53  1385.31  1407.74
                             1428.96  1433.31  1440.36  1512.78  1522.08
                             1530.12  1532.73  1546.06  1574.48  1623.77
                             1626.40  1629.51  1634.24  1645.02  1652.41
                             1747.96  1752.07  1757.49  1764.64  1830.50
                             1860.33  1863.51  1880.32  1916.26  1917.48
                             1921.02  1954.19  1959.30  1961.06  1968.91
                             1970.01  2005.68  2010.37  2013.03  2036.46
                             2037.09  2042.55  2057.39  2087.75  2155.11
                             2168.90  2171.75  2187.64  2191.75  2192.49
                             2197.27  2211.18  2224.52  2348.74  2375.40
                             2588.31  4358.50  4359.35  4359.97  4372.27
                             4375.36  4388.75  4391.48  4398.00  4402.80
                             4411.38  4414.24  4414.44  4420.43  4422.77
                             4436.96  4443.34  4460.12  4491.05  4508.91
                             4531.09  5314.05

 Zero-point correction=                           0.355594 (Hartree/Particle)
 Thermal correction to Energy=                    0.372316
 Thermal correction to Enthalpy=                  0.373260
 Thermal correction to Gibbs Free Energy=         0.310050
 Sum of electronic and zero-point Energies=           -902.547797
 Sum of electronic and thermal Energies=              -902.531075
 Sum of electronic and thermal Enthalpies=            -902.530131
 Sum of electronic and thermal Free Energies=         -902.593341

                     E (Thermal)             CV                S
                      KCal/Mol        Cal/Mol-Kelvin    Cal/Mol-Kelvin
 Total                  233.632             67.713            133.038
 Electronic               0.000              0.000              0.000
 Translational            0.889              2.981             42.735
 Rotational               0.889              2.981             33.809
 Vibrational            231.854             61.751             56.493
 Vibration     1          0.593              1.986              6.754
 Vibration     2          0.594              1.982              5.375
 Vibration     3          0.596              1.975              4.548
 Vibration     4          0.598              1.969              4.162
 Vibration     5          0.600              1.963              3.913
 Vibration     6          0.617              1.908              2.733
 Vibration     7          0.624              1.883              2.466
 Vibration     8          0.628              1.872              2.371
 Vibration     9          0.644              1.821              2.018
 Vibration    10          0.657              1.780              1.807
 Vibration    11          0.678              1.716              1.554
 Vibration    12          0.681              1.707              1.521
 Vibration    13          0.703              1.643              1.331
 Vibration    14          0.713              1.615              1.259
 Vibration    15          0.730              1.566              1.146
 Vibration    16          0.763              1.477              0.974
 Vibration    17          0.772              1.453              0.934
 Vibration    18          0.784              1.423              0.886
 Vibration    19          0.796              1.392              0.839
 Vibration    20          0.804              1.374              0.814
 Vibration    21          0.813              1.352              0.783
 Vibration    22          0.822              1.328              0.752
 Vibration    23          0.841              1.283              0.696
 Vibration    24          0.927              1.094              0.502
 Vibration    25          0.973              1.003              0.427

 Optimization completed.
    -- Stationary point found.
 Normal termination of Gaussian 16 at Sat Dec 12 17:07:09 2020.

 ----------------------------------------------------------------------
 # B3LYP/6-311++G(d,p) empiricaldispersion=gd3bj scf=xqc pop=npa geom=c
 heck
 ----------------------------------------------------------------------

 ---------------------------------------
 CID_84088780_JID_10873_Energie_neutraal
 ---------------------------------------
 Structure from the checkpoint file:  "JID_10873.chk"
 Charge =  0 Multiplicity = 1

 SCF Done:  E(RB3LYP) =  -903.149580558     A.U. after   15 cycles
 Normal termination of Gaussian 16 at Sat Dec 12 17:17:23 2020.

 ----------------------------------------------------------------------
 # B3LYP/6-311++G(d,p) empiricaldispersion=gd3bj scf=xqc pop=npa geom=c
 heck
 ----------------------------------------------------------------------

 -------------------------------------
 CID_84088780_JID_10873_Energie_kation
 -------------------------------------
 Structure from the checkpoint file:  "JID_10873.chk"
 Charge =  1 Multiplicity = 2

 SCF Done:  E(UB3LYP) =  -902.838041041     A.U. after   25 cycles
 Normal termination of Gaussian 16 at Sat Dec 12 17:41:17 2020.
 Gaussian 16:  ES64L-G16RevA.03 25-Dec-2016

 ----------------------------------------------------------------------
 # B3LYP/6-311++G(d,p) empiricaldispersion=gd3bj scf=xqc pop=npa geom=c
 heck
 ----------------------------------------------------------------------

 ------------------------------------
 CID_84088780_JID_10873_Energie_anion
 ------------------------------------
 Structure from the checkpoint file:  "JID_10873.chk"
 Charge = -1 Multiplicity = 2

                         Standard orientation:
 ---------------------------------------------------------------------
 Center     Atomic      Atomic             Coordinates (Angstroms)
 Number     Number       Type             X           Y           Z
 ---------------------------------------------------------------------
      1          6           0       -3.866213    2.452909    0.779226
      2          6           0       -3.333315    1.892585   -0.552479
      3          6           0       -2.355604    0.791332   -0.346059
      4          6           0       -2.455582   -0.551733   -0.097092
      5          7           0       -1.180143   -1.097279    0.060646
      6          6           0       -0.370102   -0.099480   -0.085370
      7          8           0       -1.023979    1.093093   -0.337341
      8          6           0        1.121791   -0.062469   -0.029136
      9          6           0        1.695522    0.390792   -1.399044
     10          6           0        3.232844    0.423142   -1.339178
     11          6           0        3.761749   -0.983407   -1.002359
     12          6           0        3.205326   -1.429685    0.362597
     13          6           0        1.668164   -1.467117    0.305837
     14          6           0        3.658352   -0.437097    1.449651
     15          6           0        3.129455    0.969914    1.115040
     16          6           0        3.682537    1.415983   -0.251227
     17          6           0        1.592026    0.938395    1.060193
     18          6           0       -3.709000   -1.301522   -0.007551
     19          8           0       -4.815796   -0.793498   -0.092177
     20          8           0       -3.529403   -2.626933    0.180771
     21          1           0       -4.394201    1.668080    1.327773
     22          1           0       -4.565735    3.274201    0.592316
     23          1           0       -3.049790    2.830655    1.403624
     24          1           0       -4.170952    1.498049   -1.133902
     25          1           0       -2.849977    2.684172   -1.135530
     26          1           0        1.358959   -0.303342   -2.179673
     27          1           0        1.301297    1.382156   -1.652847
     28          1           0        3.622032    0.742001   -2.314308
     29          1           0        4.859482   -0.975738   -0.977866
     30          1           0        3.461214   -1.695309   -1.782502
     31          1           0        3.577625   -2.433486    0.601824
     32          1           0        1.253568   -1.801793    1.263555
     33          1           0        1.325581   -2.182564   -0.450136
     34          1           0        3.283427   -0.756601    2.431048
     35          1           0        4.754478   -0.421167    1.512475
     36          1           0        3.445124    1.678780    1.890846
     37          1           0        4.778899    1.462343   -0.215284
     38          1           0        3.324608    2.426136   -0.491295
     39          1           0        1.196425    1.936686    0.838395
     40          1           0        1.182580    0.634779    2.032268
     41          1           0       -4.427916   -3.003635    0.226382
 ---------------------------------------------------------------------

 SCF Done:  E(UB3LYP) =  -903.145071861     A.U. after   33 cycles
 SCF Done:  E(UB3LYP) =  -903.145071861     a.u. after    1 cycles

 The electronic state is 2-A.
 Alpha  occ. eigenvalues --  -19.08381 -19.05620 -18.98858 -14.20285 -10.17899
 Alpha  occ. eigenvalues --  -10.14946 -10.11906 -10.09715 -10.08652 -10.07896
 Alpha  occ. eigenvalues --  -10.07753 -10.07722 -10.07689 -10.07196 -10.07100
 Alpha  occ. eigenvalues --  -10.06825 -10.06822 -10.06748 -10.06674 -10.06314
 Alpha  occ. eigenvalues --   -1.02087  -0.99431  -0.89984  -0.81616  -0.78255
 Alpha  occ. eigenvalues --   -0.71455  -0.68437  -0.67780  -0.67679  -0.63298
 Alpha  occ. eigenvalues --   -0.57970  -0.57682  -0.56888  -0.53908  -0.51197
 Alpha  occ. eigenvalues --   -0.49575  -0.49356  -0.47727  -0.44519  -0.43161
 Alpha  occ. eigenvalues --   -0.40883  -0.37883  -0.37459  -0.36728  -0.36143
 Alpha  occ. eigenvalues --   -0.35981  -0.35944  -0.35409  -0.34217  -0.33569
 Alpha  occ. eigenvalues --   -0.31918  -0.31557  -0.31456  -0.31248  -0.30179
 Alpha  occ. eigenvalues --   -0.30067  -0.29363  -0.28674  -0.27972  -0.26266
 Alpha  occ. eigenvalues --   -0.25379  -0.24212  -0.24002  -0.23721  -0.23571
 Alpha  occ. eigenvalues --   -0.23469  -0.21840  -0.21078  -0.20268  -0.19337
 Alpha  occ. eigenvalues --   -0.19227  -0.18503  -0.16888  -0.13282   0.03911
 Alpha virt. eigenvalues --    0.05309   0.07103   0.07196   0.07507   0.07988
 Alpha virt. eigenvalues --    0.08262   0.09111   0.09568   0.09715   0.10181
 Alpha virt. eigenvalues --    0.10647   0.10872   0.11185   0.11461   0.12168

  Beta  occ. eigenvalues --  -19.08268 -19.05569 -18.98721 -14.20281 -10.17704
  Beta  occ. eigenvalues --  -10.14965 -10.11612 -10.09715 -10.08660 -10.07916
  Beta  occ. eigenvalues --  -10.07748 -10.07716 -10.07686 -10.07191 -10.07091
  Beta  occ. eigenvalues --  -10.06812 -10.06806 -10.06730 -10.06669 -10.06257
  Beta  occ. eigenvalues --   -1.01890  -0.99239  -0.89766  -0.81566  -0.78236
  Beta  occ. eigenvalues --   -0.71286  -0.68335  -0.67760  -0.67660  -0.63131
  Beta  occ. eigenvalues --   -0.57855  -0.57656  -0.56656  -0.53831  -0.51085
  Beta  occ. eigenvalues --   -0.49543  -0.49334  -0.47667  -0.44419  -0.43096
  Beta  occ. eigenvalues --   -0.40770  -0.37484  -0.37205  -0.36672  -0.36085
  Beta  occ. eigenvalues --   -0.35956  -0.35916  -0.35301  -0.34147  -0.32918
  Beta  occ. eigenvalues --   -0.31777  -0.31535  -0.31424  -0.31165  -0.30151
  Beta  occ. eigenvalues --   -0.30036  -0.29280  -0.28517  -0.27839  -0.26147
  Beta  occ. eigenvalues --   -0.25334  -0.24180  -0.23984  -0.23688  -0.23551
  Beta  occ. eigenvalues --   -0.23453  -0.21468  -0.20564  -0.20245  -0.19295
  Beta  occ. eigenvalues --   -0.19203  -0.18471  -0.16764  -0.12500
  Beta virt. eigenvalues --    0.05863   0.06931   0.07557   0.07667   0.07956
  Beta virt. eigenvalues --    0.08515   0.08942   0.09253   0.09694   0.09848
  Beta virt. eigenvalues --    0.10433   0.10833   0.11024   0.11417   0.11568

 Mulliken charges and spin densities:
               1          2
     1  C   -0.004062  -0.535139
     2  C   -0.868634   0.771412
     3  C    0.698014   0.093830
     4  C    0.257769  -0.243911
     5  N    0.135061   0.000644
     6  C   -0.317287  -0.408521
     7  O    0.107552   0.019250
     8  C    1.306026  -0.627873
     9  C   -0.451200  -0.267257
    10  C   -0.849024   1.257362
    11  C    0.703847  -1.487453
    12  C   -0.373767   0.793164
    13  C   -1.072817   0.026912
    14  C    0.484503  -1.292182
    15  C   -0.280438   0.744728
    16  C    0.944536  -1.710265
    17  C   -0.638284  -0.141471
    18  C   -0.358130   0.361207
    19  O   -0.367199   0.049840
    20  O   -0.175055   0.004815
    21  H    0.108252   0.066373
    22  H   -0.172362   0.304149
    23  H    0.015321   0.120320
    24  H    0.177366   0.021575
    25  H   -0.032447   0.170860
    26  H    0.104244   0.070123
    27  H    0.082250   0.081703
    28  H   -0.212719   0.444322
    29  H   -0.210763   0.371051
    30  H    0.074141   0.052061
    31  H   -0.014473   0.240323
    32  H    0.146600   0.060002
    33  H    0.183198   0.021515
    34  H    0.082043   0.044198
    35  H   -0.183111   0.342516
    36  H   -0.216148   0.447165
    37  H   -0.181608   0.346241
    38  H   -0.064112   0.195589
    39  H    0.110027   0.062307
    40  H    0.060219   0.118180
    41  H    0.262668   0.010333
 Sum of Mulliken charges =  -1.00000   1.00000

 Dipole moment (field-independent basis, Debye):
    X=             -0.5832    Y=             -1.6558    Z=             -0.3194  Tot=              1.7843
 Quadrupole moment (field-independent basis, Debye-Ang):
   XX=           -221.9340   YY=           -155.7037   ZZ=           -144.1796
   XY=              3.2312   XZ=              1.7899   YZ=             -1.1799

 Summary of Natural Population Analysis:

                                       Natural Population
                Natural  -----------------------------------------------
    Atom  No    Charge         Core      Valence    Rydberg      Total
 -----------------------------------------------------------------------
      C    1   -0.27513      0.99966     2.27124    0.00423     3.27513
      C    2   -0.22151      0.99961     2.21245    0.00944     3.22151
      C    3    0.22809      0.99943     1.75549    0.01699     2.77191
      C    4   -0.03878      0.99938     2.02302    0.01638     3.03878
      N    5   -0.25274      0.99968     2.73892    0.01414     3.75274
      C    6    0.32572      0.99951     1.65218    0.02258     2.67428
      O    7   -0.24331      0.99985     3.23207    0.01138     4.24331
      C    8   -0.08225      0.99954     2.06496    0.01775     3.08225
      C    9   -0.18412      0.99959     2.17339    0.01114     3.18412
      C   10   -0.11212      0.99959     2.10063    0.01190     3.11212
      C   11   -0.18768      0.99960     2.17815    0.00993     3.18768
      C   12   -0.11153      0.99959     2.10062    0.01132     3.11153
      C   13   -0.18484      0.99960     2.17492    0.01032     3.18484
      C   14   -0.18762      0.99960     2.17825    0.00976     3.18762
      C   15   -0.11195      0.99959     2.10045    0.01191     3.11195
      C   16   -0.18754      0.99960     2.17789    0.01005     3.18754
      C   17   -0.18452      0.99959     2.17354    0.01139     3.18452
      C   18    0.40939      0.99966     1.56690    0.02406     2.59061
      O   19   -0.31817      0.99988     3.31236    0.00594     4.31817
      O   20   -0.33739      0.99988     3.33092    0.00659     4.33739
      H   21    0.10429      0.00000     0.39432    0.00139     0.39571
      H   22    0.09509      0.00000     0.40347    0.00144     0.40491
      H   23    0.09519      0.00000     0.40345    0.00136     0.40481
      H   24    0.11668      0.00000     0.38218    0.00114     0.38332
      H   25    0.10318      0.00000     0.39552    0.00130     0.39682
      H   26    0.10071      0.00000     0.39823    0.00106     0.39929
      H   27    0.10452      0.00000     0.39412    0.00137     0.39548
      H   28    0.10001      0.00000     0.39851    0.00148     0.39999
      H   29    0.09966      0.00000     0.39917    0.00117     0.40034
      H   30    0.09770      0.00000     0.40135    0.00095     0.40230
      H   31    0.09848      0.00000     0.40015    0.00137     0.40152
      H   32    0.10589      0.00000     0.39291    0.00119     0.39411
      H   33    0.10601      0.00000     0.39276    0.00123     0.39399
      H   34    0.09788      0.00000     0.40115    0.00097     0.40212
      H   35    0.09924      0.00000     0.39964    0.00113     0.40076
      H   36    0.09993      0.00000     0.39863    0.00144     0.40007
      H   37    0.09995      0.00000     0.39874    0.00131     0.40005
      H   38    0.09908      0.00000     0.39979    0.00112     0.40092
      H   39    0.10499      0.00000     0.39354    0.00147     0.39501
      H   40    0.10139      0.00000     0.39752    0.00109     0.39861
      H   41    0.23124      0.00000     0.26483    0.00393     0.26876
 =======================================================================
   * Total *    0.00311     19.99244    53.72834    0.27611    73.99689

 Normal termination of Gaussian 16 at Sat Dec 12 18:13:28 2020.
