 Gaussian 16, Revision A.03,

 -----------------------------------------------------------
 # opt freq B3LYP/6-31G(d) empiricaldispersion=gd3bj scf=xqc
 -----------------------------------------------------------

 ------------------------------
 CID_82506650_JID_5978_neutraal
 ------------------------------
 Symbolic Z-matrix:
 Charge =  0 Multiplicity = 1

 SCF Done:  E(RB3LYP) =  -686.336324881     A.U. after   16 cycles
 SCF Done:  E(RB3LYP) =  -686.343815308     A.U. after   13 cycles
 SCF Done:  E(RB3LYP) =  -686.344439922     A.U. after   12 cycles
 SCF Done:  E(RB3LYP) =  -686.344718885     A.U. after   13 cycles
 SCF Done:  E(RB3LYP) =  -686.344937252     A.U. after   13 cycles
 SCF Done:  E(RB3LYP) =  -686.345071470     A.U. after   13 cycles
 SCF Done:  E(RB3LYP) =  -686.345217990     A.U. after   13 cycles
 SCF Done:  E(RB3LYP) =  -686.345636913     A.U. after   13 cycles
 SCF Done:  E(RB3LYP) =  -686.345735264     A.U. after   13 cycles
 SCF Done:  E(RB3LYP) =  -686.345747417     A.U. after   11 cycles
 SCF Done:  E(RB3LYP) =  -686.349976372     A.U. after    9 cycles
 SCF Done:  E(RB3LYP) =  -686.349984351     A.U. after   10 cycles
 SCF Done:  E(RB3LYP) =  -686.349985868     A.U. after    9 cycles
 SCF Done:  E(RB3LYP) =  -686.349986350     A.U. after    8 cycles
 SCF Done:  E(RB3LYP) =  -686.349986476     A.U. after    7 cycles
 Optimization completed.
    -- Stationary point found.
 Normal termination of Gaussian 16 at Thu Dec 10 18:04:36 2020.

 --------------------------------------------------------------------
 #N Geom=AllCheck Guess=TCheck SCRF=Check GenChk RB3LYP/6-31G(d) Freq
 --------------------------------------------------------------------

 Structure from the checkpoint file:  "JID_5978.chk"
 ------------------------------
 CID_82506650_JID_5978_neutraal
 ------------------------------
 Charge =  0 Multiplicity = 1

 SCF Done:  E(RB3LYP) =  -686.349986476     A.U. after    1 cycles

  Exact polarizability: 164.009 -22.951 108.037   5.072  -1.873 104.638
 Approx polarizability: 251.384 -49.784 183.799  -1.207   4.149 170.682

                      1                      2                      3
                      A                      A                      A
 Frequencies --     33.2858                41.5427                61.3327
 Red. masses --      4.5198                 5.7316                 4.9059
 Frc consts  --      0.0030                 0.0058                 0.0109
 IR Inten    --      2.0833                 2.7639                 1.0612

                      4                      5                      6
                      A                      A                      A
 Frequencies --    109.7801               137.1430               152.9277
 Red. masses --      3.9723                 5.2460                 4.2307
 Frc consts  --      0.0282                 0.0581                 0.0583
 IR Inten    --      1.0459                 1.4135                 2.6084

                      7                      8                      9
                      A                      A                      A
 Frequencies --    205.7947               235.2815               252.4628
 Red. masses --      2.1449                 3.8743                 1.6451
 Frc consts  --      0.0535                 0.1264                 0.0618
 IR Inten    --     14.4533                 3.2409                30.7549

                     10                     11                     12
                      A                      A                      A
 Frequencies --    301.8749               321.9839               381.3874
 Red. masses --      4.0244                 2.6101                 2.4929
 Frc consts  --      0.2161                 0.1594                 0.2136
 IR Inten    --      9.4294                 3.4300                 3.6635

                     13                     14                     15
                      A                      A                      A
 Frequencies --    419.0592               429.3950               463.6384
 Red. masses --      3.2558                 5.0573                 2.9778
 Frc consts  --      0.3369                 0.5494                 0.3771
 IR Inten    --      0.6368                 9.5573                11.7101

                     16                     17                     18
                      A                      A                      A
 Frequencies --    468.9983               529.9383               625.6476
 Red. masses --      4.0433                 5.4906                 3.9637
 Frc consts  --      0.5240                 0.9085                 0.9141
 IR Inten    --      4.8587                13.6746                 2.9164

                     19                     20                     21
                      A                      A                      A
 Frequencies --    645.0908               657.4047               714.2296
 Red. masses --      4.9542                 6.0679                 2.8701
 Frc consts  --      1.2147                 1.5451                 0.8626
 IR Inten    --      5.1379                 2.1282                 1.7323

                     22                     23                     24
                      A                      A                      A
 Frequencies --    729.0814               746.1380               754.5167
 Red. masses --      1.9481                 3.2112                 2.4370
 Frc consts  --      0.6101                 1.0533                 0.8174
 IR Inten    --     46.2132                 5.2203                15.4392

                     25                     26                     27
                      A                      A                      A
 Frequencies --    803.6225               806.3310               832.7425
 Red. masses --      1.7967                 2.0562                 4.9205
 Frc consts  --      0.6836                 0.7876                 2.0104
 IR Inten    --      1.8287                 9.6651                 7.5943

                     28                     29                     30
                      A                      A                      A
 Frequencies --    840.0975               857.9068               878.1269
 Red. masses --      1.3303                 2.1726                 1.3617
 Frc consts  --      0.5532                 0.9421                 0.6186
 IR Inten    --      5.9334                58.2756                72.5868

                     31                     32                     33
                      A                      A                      A
 Frequencies --    917.6418               957.5601               963.3845
 Red. masses --      5.7993                 1.2838                 1.2589
 Frc consts  --      2.8772                 0.6935                 0.6884
 IR Inten    --     18.8605                 0.9027                 1.1057

                     34                     35                     36
                      A                      A                      A
 Frequencies --    971.3189               974.9668              1024.2689
 Red. masses --      1.8886                 2.0045                 2.6948
 Frc consts  --      1.0498                 1.1226                 1.6657
 IR Inten    --     13.4704                60.5726                 0.4995

                     37                     38                     39
                      A                      A                      A
 Frequencies --   1063.0861              1084.1087              1105.6722
 Red. masses --      2.4967                 1.6651                 1.7539
 Frc consts  --      1.6625                 1.1530                 1.2633
 IR Inten    --      7.9582                 2.0558                 3.5633

                     40                     41                     42
                      A                      A                      A
 Frequencies --   1123.4285              1188.2493              1206.9549
 Red. masses --      1.8746                 2.4766                 1.5399
 Frc consts  --      1.3939                 2.0602                 1.3217
 IR Inten    --      9.3574                12.6042                43.6023

                     43                     44                     45
                      A                      A                      A
 Frequencies --   1215.7594              1230.4360              1252.7270
 Red. masses --      1.6986                 1.9135                 1.7212
 Frc consts  --      1.4792                 1.7069                 1.5915
 IR Inten    --    128.7517                13.0091                 0.6757

                     46                     47                     48
                      A                      A                      A
 Frequencies --   1268.4667              1272.1245              1289.4459
 Red. masses --      2.2494                 1.9617                 1.6345
 Frc consts  --      2.1325                 1.8705                 1.6012
 IR Inten    --     12.9799                11.2241                 4.5135

                     49                     50                     51
                      A                      A                      A
 Frequencies --   1337.8064              1385.1414              1416.0046
 Red. masses --      1.2495                 1.4497                 1.5063
 Frc consts  --      1.3175                 1.6388                 1.7795
 IR Inten    --     10.3786                15.3314                14.1672

                     52                     53                     54
                      A                      A                      A
 Frequencies --   1439.6333              1459.0523              1474.2357
 Red. masses --      1.5633                 1.8048                 2.8861
 Frc consts  --      1.9089                 2.2637                 3.6956
 IR Inten    --     29.0517                 2.3916                 4.7065

                     55                     56                     57
                      A                      A                      A
 Frequencies --   1505.0404              1523.8468              1526.4776
 Red. masses --      3.6826                 1.1730                 1.1103
 Frc consts  --      4.9148                 1.6049                 1.5243
 IR Inten    --     58.0753                14.9634                 9.6741

                     58                     59                     60
                      A                      A                      A
 Frequencies --   1553.6198              1603.3667              1659.9819
 Red. masses --      4.6171                 5.6062                 6.6695
 Frc consts  --      6.5661                 8.4915                10.8281
 IR Inten    --     19.3933                 3.0967                 6.0619

                     61                     62                     63
                      A                      A                      A
 Frequencies --   1690.2961              1700.7632              1747.6450
 Red. masses --      5.1254                 1.1344                 8.3649
 Frc consts  --      8.6278                 1.9333                15.0528
 IR Inten    --      4.6657                 4.6293               548.0498

                     64                     65                     66
                      A                      A                      A
 Frequencies --   2979.2955              3063.0032              3080.9021
 Red. masses --      1.0717                 1.0612                 1.0890
 Frc consts  --      5.6048                 5.8662                 6.0900
 IR Inten    --     57.3084                37.7546                27.5638

                     67                     68                     69
                      A                      A                      A
 Frequencies --   3104.6528              3210.0193              3218.0487
 Red. masses --      1.1042                 1.0887                 1.0883
 Frc consts  --      6.2706                 6.6096                 6.6400
 IR Inten    --      9.8785                 5.2668                 2.0607

                     70                     71                     72
                      A                      A                      A
 Frequencies --   3233.7424              3236.3671              3261.4008
 Red. masses --      1.0955                 1.0970                 1.0931
 Frc consts  --      6.7494                 6.7700                 6.8507
 IR Inten    --      6.8387                 1.1378                 2.7252

                     73                     74                     75
                      A                      A                      A
 Frequencies --   3305.1299              3472.2020              3558.3307
 Red. masses --      1.1033                 1.0498                 1.0926
 Frc consts  --      7.1010                 7.4571                 8.1510
 IR Inten    --      1.0942                 8.6570                 7.0403

 - Thermochemistry -
 -------------------
 Temperature   298.150 Kelvin.  Pressure   1.00000 Atm.
 Atom     1 has atomic number  6 and mass  12.00000

 Molecular mass:   204.08988 amu.
 Principal axes and moments of inertia in atomic units:
                           1         2         3
     Eigenvalues --  1426.568464637.591165093.68243
           X            0.99996  -0.00673   0.00628
           Y            0.00692   0.99949  -0.03125
           Z           -0.00607   0.03129   0.99949
 This molecule is an asymmetric top.
 Rotational symmetry number  1.
 Warning -- assumption of classical behavior for rotation
           may cause significant error
 Rotational temperatures (Kelvin)      0.06071     0.01868     0.01700
 Rotational constants (GHZ):           1.26509     0.38915     0.35431
 Zero-point vibrational energy     575956.3 (Joules/Mol)
                                  137.65685 (Kcal/Mol)
 Warning -- explicit consideration of  17 degrees of freedom as
           vibrations may cause significant error
 Vibrational temperatures:     47.89    59.77    88.24   157.95   197.32
          (Kelvin)            220.03   296.09   338.52   363.24   434.33
                              463.26   548.73   602.93   617.80   667.07
                              674.78   762.46   900.17   928.14   945.86
                             1027.62  1048.99  1073.53  1085.58  1156.23
                             1160.13  1198.13  1208.71  1234.34  1263.43
                             1320.28  1377.72  1386.10  1397.51  1402.76
                             1473.69  1529.54  1559.79  1590.82  1616.36
                             1709.63  1736.54  1749.21  1770.32  1802.39
                             1825.04  1830.30  1855.23  1924.80  1992.91
                             2037.31  2071.31  2099.25  2121.10  2165.42
                             2192.48  2196.26  2235.31  2306.89  2388.34
                             2431.96  2447.02  2514.47  4286.54  4406.98
                             4432.73  4466.90  4618.50  4630.05  4652.63
                             4656.41  4692.43  4755.34  4995.72  5119.64

 Zero-point correction=                           0.219370 (Hartree/Particle)
 Thermal correction to Energy=                    0.232479
 Thermal correction to Enthalpy=                  0.233423
 Thermal correction to Gibbs Free Energy=         0.178514
 Sum of electronic and zero-point Energies=           -686.130616
 Sum of electronic and thermal Energies=              -686.117507
 Sum of electronic and thermal Enthalpies=            -686.116563
 Sum of electronic and thermal Free Energies=         -686.171473

                     E (Thermal)             CV                S
                      KCal/Mol        Cal/Mol-Kelvin    Cal/Mol-Kelvin
 Total                  145.883             50.104            115.567
 Electronic               0.000              0.000              0.000
 Translational            0.889              2.981             41.844
 Rotational               0.889              2.981             31.889
 Vibrational            144.106             44.142             41.834
 Vibration     1          0.594              1.983              5.623
 Vibration     2          0.594              1.981              5.184
 Vibration     3          0.597              1.973              4.414
 Vibration     4          0.606              1.941              3.273
 Vibration     5          0.614              1.916              2.843
 Vibration     6          0.619              1.899              2.635
 Vibration     7          0.640              1.832              2.081
 Vibration     8          0.655              1.787              1.838
 Vibration     9          0.664              1.759              1.713
 Vibration    10          0.694              1.670              1.406
 Vibration    11          0.707              1.631              1.300
 Vibration    12          0.751              1.510              1.034
 Vibration    13          0.782              1.429              0.895
 Vibration    14          0.791              1.406              0.861
 Vibration    15          0.821              1.331              0.756
 Vibration    16          0.826              1.319              0.740
 Vibration    17          0.885              1.184              0.587

 Optimization completed.
    -- Stationary point found.
 Normal termination of Gaussian 16 at Thu Dec 10 18:12:55 2020.

 ----------------------------------------------------------------------
 # B3LYP/6-311++G(d,p) empiricaldispersion=gd3bj scf=xqc pop=npa geom=c
 heck
 ----------------------------------------------------------------------

 --------------------------------------
 CID_82506650_JID_5978_Energie_neutraal
 --------------------------------------
 Structure from the checkpoint file:  "JID_5978.chk"
 Charge =  0 Multiplicity = 1

 SCF Done:  E(RB3LYP) =  -686.548008425     A.U. after   18 cycles
 Normal termination of Gaussian 16 at Thu Dec 10 18:16:19 2020.

 ----------------------------------------------------------------------
 # B3LYP/6-311++G(d,p) empiricaldispersion=gd3bj scf=xqc pop=npa geom=c
 heck
 ----------------------------------------------------------------------

 ------------------------------------
 CID_82506650_JID_5978_Energie_kation
 ------------------------------------
 Structure from the checkpoint file:  "JID_5978.chk"
 Charge =  1 Multiplicity = 2

 SCF Done:  E(UB3LYP) =  -686.253718649     A.U. after   31 cycles
 Normal termination of Gaussian 16 at Thu Dec 10 18:24:12 2020.
 Gaussian 16:  ES64L-G16RevA.03 25-Dec-2016

 ----------------------------------------------------------------------
 # B3LYP/6-311++G(d,p) empiricaldispersion=gd3bj scf=xqc pop=npa geom=c
 heck
 ----------------------------------------------------------------------

 -----------------------------------
 CID_82506650_JID_5978_Energie_anion
 -----------------------------------
 Structure from the checkpoint file:  "JID_5978.chk"
 Charge = -1 Multiplicity = 2

                         Standard orientation:
 ---------------------------------------------------------------------
 Center     Atomic      Atomic             Coordinates (Angstroms)
 Number     Number       Type             X           Y           Z
 ---------------------------------------------------------------------
      1          6           0       -2.147624   -0.415683    1.346994
      2          6           0       -0.981299   -0.977147    0.939138
      3          7           0       -0.659097   -1.108787   -0.391668
      4          6           0       -1.543260   -0.648865   -1.337254
      5          6           0       -2.723795   -0.068749   -1.003589
      6          6           0       -3.135972    0.097907    0.392427
      7          8           0       -4.200964    0.620960    0.731267
      8          6           0        0.668909   -1.616687   -0.769453
      9          6           0        1.791314   -0.765276   -0.246988
     10          6           0        1.902719    0.599330   -0.320787
     11          8           0        3.054970    0.993763    0.297515
     12          6           0        3.681338   -0.122853    0.762041
     13          6           0        2.952005   -1.230947    0.461377
     14          6           0        1.017567    1.671142   -0.865740
     15          7           0        0.220349    2.295485    0.197391
     16          1           0       -2.369928   -0.335166    2.405178
     17          1           0       -0.227428   -1.338301    1.630161
     18          1           0       -1.226186   -0.780809   -2.366423
     19          1           0       -3.396165    0.278132   -1.780175
     20          1           0        0.777331   -2.639561   -0.391721
     21          1           0        0.680625   -1.680986   -1.861861
     22          1           0        4.617549    0.040839    1.272558
     23          1           0        3.198096   -2.255931    0.703361
     24          1           0        1.650311    2.447492   -1.310967
     25          1           0        0.423246    1.234055   -1.685900
     26          1           0       -0.332938    3.052731   -0.200629
     27          1           0       -0.446737    1.619803    0.567098
 ---------------------------------------------------------------------

 SCF Done:  E(UB3LYP) =  -686.543938335     A.U. after   33 cycles
 SCF Done:  E(UB3LYP) =  -686.543938335     a.u. after    1 cycles

 The electronic state is 2-A.
 Alpha  occ. eigenvalues --  -19.09720 -18.96118 -14.27766 -14.20637 -10.13296
 Alpha  occ. eigenvalues --  -10.13107 -10.12722 -10.12672 -10.12372 -10.12066
 Alpha  occ. eigenvalues --  -10.11904 -10.08840 -10.08069 -10.07048 -10.07043
 Alpha  occ. eigenvalues --   -1.02296  -0.90170  -0.89113  -0.79911  -0.73307
 Alpha  occ. eigenvalues --   -0.69389  -0.68194  -0.67282  -0.61516  -0.57535
 Alpha  occ. eigenvalues --   -0.54936  -0.51221  -0.50687  -0.46745  -0.44125
 Alpha  occ. eigenvalues --   -0.41866  -0.40735  -0.40062  -0.38217  -0.37410
 Alpha  occ. eigenvalues --   -0.36301  -0.35057  -0.34933  -0.33858  -0.33058
 Alpha  occ. eigenvalues --   -0.32237  -0.30846  -0.30176  -0.29235  -0.28319
 Alpha  occ. eigenvalues --   -0.27595  -0.26829  -0.25137  -0.19094  -0.18224
 Alpha  occ. eigenvalues --   -0.16057  -0.13948  -0.12733  -0.12182   0.04023
 Alpha virt. eigenvalues --    0.06524   0.06639   0.07218   0.07722   0.07880
 Alpha virt. eigenvalues --    0.08800   0.08981   0.09766   0.10495   0.10961
 Alpha virt. eigenvalues --    0.11557   0.12415   0.12572   0.13656   0.14092

  Beta  occ. eigenvalues --  -19.09698 -18.96018 -14.27707 -14.20631 -10.13275
  Beta  occ. eigenvalues --  -10.13095 -10.12652 -10.12618 -10.12305 -10.11972
  Beta  occ. eigenvalues --  -10.11902 -10.08836 -10.08048 -10.07068 -10.07064
  Beta  occ. eigenvalues --   -1.02258  -0.90017  -0.88952  -0.79895  -0.73247
  Beta  occ. eigenvalues --   -0.69318  -0.68075  -0.67241  -0.61419  -0.57504
  Beta  occ. eigenvalues --   -0.54893  -0.51083  -0.50568  -0.46689  -0.44077
  Beta  occ. eigenvalues --   -0.41745  -0.40668  -0.40013  -0.38166  -0.37296
  Beta  occ. eigenvalues --   -0.36150  -0.34994  -0.34847  -0.33798  -0.32974
  Beta  occ. eigenvalues --   -0.32212  -0.30780  -0.30047  -0.29110  -0.28217
  Beta  occ. eigenvalues --   -0.27543  -0.26757  -0.24753  -0.19003  -0.18004
  Beta  occ. eigenvalues --   -0.16042  -0.13845  -0.12650  -0.11853
  Beta virt. eigenvalues --    0.06661   0.07014   0.07513   0.07749   0.07953
  Beta virt. eigenvalues --    0.08697   0.09116   0.09223   0.10264   0.11137
  Beta virt. eigenvalues --    0.11482   0.11746   0.12695   0.12912   0.13786

 Mulliken charges and spin densities:
               1          2
     1  C    0.335256  -0.094163
     2  C   -0.091591  -0.219030
     3  N    0.051171   0.208136
     4  C    0.339812  -0.570827
     5  C    0.453274  -0.215302
     6  C   -0.476390  -0.146567
     7  O   -0.401873   0.035583
     8  C    1.210264  -2.192994
     9  C   -0.896448   1.662780
    10  C   -1.313237   1.202428
    11  O   -0.000373   0.015731
    12  C    0.356172  -0.592214
    13  C    1.799465  -1.792027
    14  C   -0.032687  -0.617114
    15  N   -0.328466   0.002395
    16  H    0.142759   0.039303
    17  H    0.129659   0.040821
    18  H   -0.511540   0.671696
    19  H    0.128336   0.059002
    20  H   -0.770020   1.016130
    21  H   -0.661020   0.867822
    22  H   -0.097996   0.266033
    23  H   -1.075137   1.262857
    24  H    0.106956   0.092707
    25  H    0.135327   0.005791
    26  H    0.225950  -0.006767
    27  H    0.242376  -0.002209
 Sum of Mulliken charges =  -1.00000   1.00000

 Dipole moment (field-independent basis, Debye):
    X=              2.0013    Y=              5.8488    Z=              0.5339  Tot=              6.2048
 Quadrupole moment (field-independent basis, Debye-Ang):
   XX=           -159.9291   YY=           -134.8436   ZZ=           -119.0973
   XY=             13.6819   XZ=              5.2960   YZ=            -10.0484

 Summary of Natural Population Analysis:

                                       Natural Population
                Natural  -----------------------------------------------
    Atom  No    Charge         Core      Valence    Rydberg      Total
 -----------------------------------------------------------------------
      C    1   -0.16496      0.99953     2.15432    0.01110     3.16496
      C    2    0.04105      0.99953     1.94741    0.01200     2.95895
      N    3   -0.20959      0.99964     2.69624    0.01370     3.70959
      C    4    0.03652      0.99953     1.95101    0.01294     2.96348
      C    5   -0.16737      0.99953     2.15627    0.01156     3.16737
      C    6    0.22314      0.99958     1.75628    0.02100     2.77686
      O    7   -0.31968      0.99989     3.31360    0.00619     4.31968
      C    8   -0.08723      0.99956     2.07339    0.01428     3.08723
      C    9   -0.07180      0.99944     2.06049    0.01187     3.07180
      C   10    0.15754      0.99939     1.82678    0.01629     2.84246
      O   11   -0.22881      0.99986     3.22162    0.00733     4.22881
      C   12    0.06079      0.99951     1.92570    0.01400     2.93921
      C   13   -0.14104      0.99952     2.13148    0.01004     3.14104
      C   14   -0.11328      0.99959     2.10294    0.01075     3.11328
      N   15   -0.41550      0.99977     2.90793    0.00780     3.91550
      H   16    0.10719      0.00000     0.39188    0.00092     0.39281
      H   17    0.10555      0.00000     0.39329    0.00116     0.39445
      H   18    0.10371      0.00000     0.39437    0.00192     0.39629
      H   19    0.10697      0.00000     0.39199    0.00104     0.39303
      H   20    0.11250      0.00000     0.38068    0.00682     0.38750
      H   21    0.11289      0.00000     0.38174    0.00537     0.38711
      H   22    0.09410      0.00000     0.40498    0.00092     0.40590
      H   23    0.11472      0.00000     0.38279    0.00249     0.38528
      H   24    0.09839      0.00000     0.40046    0.00115     0.40161
      H   25    0.09131      0.00000     0.40719    0.00150     0.40869
      H   26    0.17113      0.00000     0.32707    0.00180     0.32887
      H   27    0.18173      0.00000     0.31619    0.00208     0.31827
 =======================================================================
   * Total *   -0.00000     14.99387    38.79810    0.20803    54.00000

 Normal termination of Gaussian 16 at Thu Dec 10 18:32:49 2020.
