 Gaussian 16, Revision A.03,

 -----------------------------------------------------------
 # opt freq B3LYP/6-31G(d) empiricaldispersion=gd3bj scf=xqc
 -----------------------------------------------------------

 ------------------------------
 CID_14869830_JID_8629_neutraal
 ------------------------------
 Symbolic Z-matrix:
 Charge =  0 Multiplicity = 1

 SCF Done:  E(RB3LYP) =  -1165.78085405     A.U. after   15 cycles
 SCF Done:  E(RB3LYP) =  -1165.78661195     A.U. after   12 cycles
 SCF Done:  E(RB3LYP) =  -1165.78748697     A.U. after   12 cycles
 SCF Done:  E(RB3LYP) =  -1165.78783053     A.U. after   12 cycles
 SCF Done:  E(RB3LYP) =  -1165.78824999     A.U. after   12 cycles
 SCF Done:  E(RB3LYP) =  -1165.78856491     A.U. after   14 cycles
 SCF Done:  E(RB3LYP) =  -1165.78869184     A.U. after   12 cycles
 SCF Done:  E(RB3LYP) =  -1165.78873090     A.U. after   11 cycles
 SCF Done:  E(RB3LYP) =  -1165.78874015     A.U. after   11 cycles
 SCF Done:  E(RB3LYP) =  -1165.78874479     A.U. after   10 cycles
 SCF Done:  E(RB3LYP) =  -1165.78875379     A.U. after    9 cycles
 SCF Done:  E(RB3LYP) =  -1165.78875419     A.U. after   10 cycles
 SCF Done:  E(RB3LYP) =  -1165.78875377     A.U. after   10 cycles
 SCF Done:  E(RB3LYP) =  -1165.78875375     A.U. after    7 cycles
 SCF Done:  E(RB3LYP) =  -1165.78875405     A.U. after   10 cycles
 SCF Done:  E(RB3LYP) =  -1165.78875374     A.U. after   10 cycles
 Optimization completed on the basis of negligible forces.
    -- Stationary point found.
 Normal termination of Gaussian 16 at Fri Dec 11 21:27:05 2020.

 --------------------------------------------------------------------
 #N Geom=AllCheck Guess=TCheck SCRF=Check GenChk RB3LYP/6-31G(d) Freq
 --------------------------------------------------------------------

 Structure from the checkpoint file:  "JID_8629.chk"
 ------------------------------
 CID_14869830_JID_8629_neutraal
 ------------------------------
 Charge =  0 Multiplicity = 1

 SCF Done:  E(RB3LYP) =  -1165.78875374     A.U. after    1 cycles

  Exact polarizability: 255.166  -0.032 163.667 -12.319  -0.153  89.370
 Approx polarizability: 320.925  -0.069 307.010 -27.857  -0.367 142.539

                      1                      2                      3
                      A                      A                      A
 Frequencies --     10.1708                19.2842                35.1005
 Red. masses --      4.5510                 3.2944                 5.3013
 Frc consts  --      0.0003                 0.0007                 0.0038
 IR Inten    --      0.5935                 0.0690                 0.6197

                      4                      5                      6
                      A                      A                      A
 Frequencies --     40.1755                48.2397                87.0578
 Red. masses --      2.8105                 6.3955                 5.4535
 Frc consts  --      0.0027                 0.0088                 0.0244
 IR Inten    --      0.1095                 0.0192                 1.5607

                      7                      8                      9
                      A                      A                      A
 Frequencies --    117.5732               160.5444               228.5890
 Red. masses --      4.9301                 4.1924                 1.2673
 Frc consts  --      0.0402                 0.0637                 0.0390
 IR Inten    --      0.3447                 1.3588                 0.1099

                     10                     11                     12
                      A                      A                      A
 Frequencies --    235.0908               247.1841               271.6835
 Red. masses --      4.8899                 4.7748                 7.7400
 Frc consts  --      0.1592                 0.1719                 0.3366
 IR Inten    --      2.4713                 0.1989                 5.1010

                     13                     14                     15
                      A                      A                      A
 Frequencies --    274.8863               350.3530               389.6735
 Red. masses --      5.4333                 2.7053                 5.1204
 Frc consts  --      0.2419                 0.1956                 0.4581
 IR Inten    --      0.0299                 0.0693                 3.1051

                     16                     17                     18
                      A                      A                      A
 Frequencies --    413.7204               418.6636               424.0656
 Red. masses --      3.1343                 3.9992                 3.0587
 Frc consts  --      0.3161                 0.4130                 0.3241
 IR Inten    --      0.1172                 0.4875                 0.0715

                     19                     20                     21
                      A                      A                      A
 Frequencies --    456.2536               499.6928               500.9312
 Red. masses --      6.0384                 9.9499                 5.4124
 Frc consts  --      0.7406                 1.4638                 0.8002
 IR Inten    --      0.0655                 8.8500                42.4876

                     22                     23                     24
                      A                      A                      A
 Frequencies --    525.4684               570.4015               600.5324
 Red. masses --      5.6969                 3.9795                 4.4699
 Frc consts  --      0.9268                 0.7629                 0.9498
 IR Inten    --     34.3609                49.2272                14.9153

                     25                     26                     27
                      A                      A                      A
 Frequencies --    633.0569               649.6577               668.8115
 Red. masses --      6.5695                 6.8782                 5.4184
 Frc consts  --      1.5512                 1.7104                 1.4280
 IR Inten    --      0.1018                 0.0288                29.9861

                     28                     29                     30
                      A                      A                      A
 Frequencies --    696.0539               704.0394               741.5796
 Red. masses --      2.8902                 3.6688                 3.8756
 Frc consts  --      0.8250                 1.0714                 1.2558
 IR Inten    --    139.7359               181.5364                32.1729

                     31                     32                     33
                      A                      A                      A
 Frequencies --    787.1450               803.5519               810.0528
 Red. masses --      1.8747                 1.1539                 4.5423
 Frc consts  --      0.6844                 0.4390                 1.7561
 IR Inten    --     72.5658                 0.7112                10.3445

                     34                     35                     36
                      A                      A                      A
 Frequencies --    840.9571               846.1270               851.2787
 Red. masses --      1.2457                 3.3765                 2.0025
 Frc consts  --      0.5191                 1.4242                 0.8550
 IR Inten    --      0.0945               183.3976               115.1510

                     37                     38                     39
                      A                      A                      A
 Frequencies --    856.0755               922.1927               963.2230
 Red. masses --      1.2433                 1.4371                 1.3405
 Frc consts  --      0.5369                 0.7201                 0.7328
 IR Inten    --      0.0089                 5.3175                 0.0653

                     40                     41                     42
                      A                      A                      A
 Frequencies --    976.3382               976.6767               981.6184
 Red. masses --      1.3471                 1.2863                 2.3378
 Frc consts  --      0.7566                 0.7229                 1.3272
 IR Inten    --      0.0001                 0.0092                 1.7584

                     43                     44                     45
                      A                      A                      A
 Frequencies --    991.7316              1025.4193              1039.4533
 Red. masses --      1.2496                 6.3256                 3.6618
 Frc consts  --      0.7241                 3.9188                 2.3311
 IR Inten    --      0.0958                 1.6071                 4.1189

                     46                     47                     48
                      A                      A                      A
 Frequencies --   1053.9196              1083.4523              1091.3762
 Red. masses --      2.0922                 1.4517                 1.9864
 Frc consts  --      1.3692                 1.0040                 1.3940
 IR Inten    --     12.5760                 2.3250                30.6287

                     49                     50                     51
                      A                      A                      A
 Frequencies --   1101.1295              1105.5207              1153.1448
 Red. masses --      3.7348                 1.4877                 1.2966
 Frc consts  --      2.6680                 1.0712                 1.0159
 IR Inten    --     57.9878                 6.6233                 4.8849

                     52                     53                     54
                      A                      A                      A
 Frequencies --   1161.8886              1191.1644              1193.0039
 Red. masses --      6.2612                 1.3844                 1.1034
 Frc consts  --      4.9801                 1.1573                 0.9252
 IR Inten    --    136.3550                58.0066                 0.0061

                     55                     56                     57
                      A                      A                      A
 Frequencies --   1217.3870              1221.7893              1238.8906
 Red. masses --      1.3704                 2.0303                 2.6183
 Frc consts  --      1.1966                 1.7857                 2.3677
 IR Inten    --     67.5744                97.7482                 0.4202

                     58                     59                     60
                      A                      A                      A
 Frequencies --   1285.2128              1335.9399              1342.9270
 Red. masses --      1.3461                 5.3143                 1.8986
 Frc consts  --      1.3101                 5.5882                 2.0174
 IR Inten    --      0.8394               102.2948                22.8861

                     61                     62                     63
                      A                      A                      A
 Frequencies --   1345.9186              1363.3298              1370.7097
 Red. masses --      1.5414                 3.5219                 1.5067
 Frc consts  --      1.6452                 3.8568                 1.6679
 IR Inten    --      3.1882                 0.0004                 2.8952

                     64                     65                     66
                      A                      A                      A
 Frequencies --   1375.1614              1437.4945              1458.3395
 Red. masses --      3.8682                 1.2142                 2.6800
 Frc consts  --      4.3099                 1.4783                 3.3581
 IR Inten    --      1.6841                 1.6869                17.4864

                     67                     68                     69
                      A                      A                      A
 Frequencies --   1503.2688              1518.8761              1526.1782
 Red. masses --      2.2432                 1.0739                 1.0405
 Frc consts  --      2.9867                 1.4597                 1.4279
 IR Inten    --      2.6374                 1.3622                 8.6422

                     70                     71                     72
                      A                      A                      A
 Frequencies --   1538.6177              1538.8289              1545.5682
 Red. masses --      1.1666                 2.0695                 2.1073
 Frc consts  --      1.6271                 2.8873                 2.9659
 IR Inten    --     10.9676                65.1298                 5.4042

                     73                     74                     75
                      A                      A                      A
 Frequencies --   1635.3098              1654.2144              1656.2632
 Red. masses --      6.6598                 5.6525                 6.2360
 Frc consts  --     10.4932                 9.1133                10.0790
 IR Inten    --      1.3466                28.6250                 4.4322

                     76                     77                     78
                      A                      A                      A
 Frequencies --   1659.6104              3052.0002              3053.7301
 Red. masses --      5.6246                 1.0503                 1.0437
 Frc consts  --      9.1276                 5.7642                 5.7343
 IR Inten    --     23.2687                25.4891                33.3622

                     79                     80                     81
                      A                      A                      A
 Frequencies --   3088.3494              3126.0182              3127.3218
 Red. masses --      1.1042                 1.1031                 1.1037
 Frc consts  --      6.2053                 6.3511                 6.3599
 IR Inten    --      6.9421                43.1042                30.6427

                     82                     83                     84
                      A                      A                      A
 Frequencies --   3190.8189              3191.1273              3191.8929
 Red. masses --      1.0857                 1.0894                 1.0898
 Frc consts  --      6.5125                 6.5363                 6.5418
 IR Inten    --      0.0085                13.7225                11.0481

                     85                     86                     87
                      A                      A                      A
 Frequencies --   3201.9415              3213.1078              3232.0855
 Red. masses --      1.0901                 1.0950                 1.0923
 Frc consts  --      6.5849                 6.6605                 6.7232
 IR Inten    --     15.4822                31.5777                 0.5447

                     88                     89                     90
                      A                      A                      A
 Frequencies --   3232.5667              3233.5216              3234.4952
 Red. masses --      1.0935                 1.0936                 1.0947
 Frc consts  --      6.7321                 6.7367                 6.7476
 IR Inten    --      1.4859                 4.7075                 0.1189

 - Thermochemistry -
 -------------------
 Temperature   298.150 Kelvin.  Pressure   1.00000 Atm.
 Atom     1 has atomic number  6 and mass  12.00000

 Molecular mass:   262.06637 amu.
 Principal axes and moments of inertia in atomic units:
                           1         2         3
     Eigenvalues --  1430.76061********************
           X            1.00000  -0.00001  -0.00107
           Y            0.00001   1.00000  -0.00092
           Z            0.00107   0.00092   1.00000
 This molecule is an asymmetric top.
 Rotational symmetry number  1.
 Warning -- assumption of classical behavior for rotation
           may cause significant error
 Rotational temperatures (Kelvin)      0.06054     0.00788     0.00771
 Rotational constants (GHZ):           1.26139     0.16412     0.16071
 Zero-point vibrational energy     663710.8 (Joules/Mol)
                                  158.63070 (Kcal/Mol)
 Warning -- explicit consideration of  24 degrees of freedom as
           vibrations may cause significant error
 Vibrational temperatures:     14.63    27.75    50.50    57.80    69.41
          (Kelvin)            125.26   169.16   230.99   328.89   338.24
                              355.64   390.89   395.50   504.08   560.65
                              595.25   602.36   610.14   656.45   718.95
                              720.73   756.03   820.68   864.03   910.83
                              934.71   962.27  1001.47  1012.96  1066.97
                             1132.53  1156.13  1165.49  1209.95  1217.39
                             1224.80  1231.70  1326.83  1385.86  1404.73
                             1405.22  1412.33  1426.88  1475.35  1495.54
                             1516.36  1558.85  1570.25  1584.28  1590.60
                             1659.12  1671.70  1713.82  1716.47  1751.55
                             1757.88  1782.49  1849.13  1922.12  1932.17
                             1936.48  1961.53  1972.15  1978.55  2068.23
                             2098.23  2162.87  2185.32  2195.83  2213.73
                             2214.03  2223.73  2352.85  2380.05  2382.99
                             2387.81  4391.15  4393.64  4443.45  4497.64
                             4499.52  4590.88  4591.32  4592.42  4606.88
                             4622.95  4650.25  4650.94  4652.32  4653.72

 Zero-point correction=                           0.252794 (Hartree/Particle)
 Thermal correction to Energy=                    0.269228
 Thermal correction to Enthalpy=                  0.270172
 Thermal correction to Gibbs Free Energy=         0.204605
 Sum of electronic and zero-point Energies=          -1165.535960
 Sum of electronic and thermal Energies=             -1165.519526
 Sum of electronic and thermal Enthalpies=           -1165.518582
 Sum of electronic and thermal Free Energies=        -1165.584149

                     E (Thermal)             CV                S
                      KCal/Mol        Cal/Mol-Kelvin    Cal/Mol-Kelvin
 Total                  168.943             62.152            137.997
 Electronic               0.000              0.000              0.000
 Translational            0.889              2.981             42.590
 Rotational               0.889              2.981             33.535
 Vibrational            167.166             56.191             61.873
 Vibration     1          0.593              1.987              7.977
 Vibration     2          0.593              1.986              6.707
 Vibration     3          0.594              1.982              5.518
 Vibration     4          0.594              1.981              5.250
 Vibration     5          0.595              1.978              4.888
 Vibration     6          0.601              1.958              3.725
 Vibration     7          0.608              1.935              3.140
 Vibration     8          0.622              1.891              2.543
 Vibration     9          0.651              1.797              1.890
 Vibration    10          0.655              1.787              1.840
 Vibration    11          0.661              1.767              1.751
 Vibration    12          0.675              1.725              1.585
 Vibration    13          0.677              1.720              1.565
 Vibration    14          0.727              1.575              1.165
 Vibration    15          0.758              1.492              1.001
 Vibration    16          0.777              1.440              0.914
 Vibration    17          0.782              1.430              0.897
 Vibration    18          0.786              1.418              0.878
 Vibration    19          0.814              1.347              0.777
 Vibration    20          0.855              1.251              0.659
 Vibration    21          0.856              1.248              0.656
 Vibration    22          0.880              1.194              0.597
 Vibration    23          0.927              1.095              0.503
 Vibration    24          0.959              1.031              0.449

 Optimization completed.
    -- Stationary point found.
 Normal termination of Gaussian 16 at Fri Dec 11 21:39:14 2020.

 ----------------------------------------------------------------------
 # B3LYP/6-311++G(d,p) empiricaldispersion=gd3bj scf=xqc pop=npa geom=c
 heck
 ----------------------------------------------------------------------

 --------------------------------------
 CID_14869830_JID_8629_Energie_neutraal
 --------------------------------------
 Structure from the checkpoint file:  "JID_8629.chk"
 Charge =  0 Multiplicity = 1

 SCF Done:  E(RB3LYP) =  -1166.01941504     A.U. after   16 cycles
 Normal termination of Gaussian 16 at Fri Dec 11 21:45:33 2020.

 ----------------------------------------------------------------------
 # B3LYP/6-311++G(d,p) empiricaldispersion=gd3bj scf=xqc pop=npa geom=c
 heck
 ----------------------------------------------------------------------

 ------------------------------------
 CID_14869830_JID_8629_Energie_kation
 ------------------------------------
 Structure from the checkpoint file:  "JID_8629.chk"
 Charge =  1 Multiplicity = 2

 SCF Done:  E(UB3LYP) =  -1165.69865113     A.U. after   26 cycles
 Normal termination of Gaussian 16 at Fri Dec 11 22:00:10 2020.
 Gaussian 16:  ES64L-G16RevA.03 25-Dec-2016

 ----------------------------------------------------------------------
 # B3LYP/6-311++G(d,p) empiricaldispersion=gd3bj scf=xqc pop=npa geom=c
 heck
 ----------------------------------------------------------------------

 -----------------------------------
 CID_14869830_JID_8629_Energie_anion
 -----------------------------------
 Structure from the checkpoint file:  "JID_8629.chk"
 Charge = -1 Multiplicity = 2

                         Standard orientation:
 ---------------------------------------------------------------------
 Center     Atomic      Atomic             Coordinates (Angstroms)
 Number     Number       Type             X           Y           Z
 ---------------------------------------------------------------------
      1          6           0        6.215532   -0.000619    0.095681
      2          6           0        5.230677   -0.004327   -1.086055
      3          6           0        3.793722   -0.002402   -0.621743
      4          6           0        3.124336    1.204832   -0.378772
      5          6           0        1.816997    1.218368    0.097970
      6          6           0        1.177131    0.001468    0.330772
      7          6           0        1.815969   -1.217299    0.105045
      8          6           0        3.123321   -1.207636   -0.371764
      9         16           0       -0.492827    0.003910    0.929864
     10          8           0       -0.787216   -1.263368    1.594210
     11          8           0       -0.786198    1.275450    1.586480
     12          8           0       -1.244638   -0.000350   -0.563328
     13          6           0       -2.648522   -0.001283   -0.525411
     14          6           0       -3.323284   -1.218826   -0.525432
     15          6           0       -4.717892   -1.212831   -0.544950
     16          6           0       -5.415823   -0.003390   -0.558357
     17          6           0       -4.719686    1.207123   -0.549266
     18          6           0       -3.325085    1.215260   -0.529792
     19          1           0        6.069105    0.885835    0.722244
     20          1           0        7.251436   -0.002055   -0.260006
     21          1           0        6.068668   -0.882806    0.728135
     22          1           0        5.414575    0.873754   -1.716448
     23          1           0        5.414126   -0.886709   -1.710542
     24          1           0        3.636069    2.145401   -0.564894
     25          1           0        1.297286    2.149277    0.295055
     26          1           0        1.295497   -2.146621    0.307541
     27          1           0        3.634265   -2.149698   -0.552416
     28          1           0       -2.755393   -2.141920   -0.505474
     29          1           0       -5.258429   -2.154731   -0.546655
     30          1           0       -6.501737   -0.004222   -0.573338
     31          1           0       -5.261619    2.148208   -0.554333
     32          1           0       -2.758556    2.139256   -0.513152
 ---------------------------------------------------------------------

 SCF Done:  E(UB3LYP) =  -1166.02630916     A.U. after   28 cycles

 The electronic state is 2-A.
 Alpha  occ. eigenvalues --  -88.94039 -19.05206 -18.99969 -18.99968 -10.13083
 Alpha  occ. eigenvalues --  -10.08630 -10.08628 -10.08151 -10.07995 -10.07994
 Alpha  occ. eigenvalues --  -10.06396 -10.06301 -10.05821 -10.05466 -10.05464
 Alpha  occ. eigenvalues --  -10.05098 -10.05095 -10.04625  -8.00234  -5.96639
 Alpha  occ. eigenvalues --   -5.96452  -5.96235  -1.01990  -0.92917  -0.89253
 Alpha  occ. eigenvalues --   -0.76261  -0.74365  -0.68330  -0.65917  -0.65510
 Alpha  occ. eigenvalues --   -0.62911  -0.62282  -0.56441  -0.52194  -0.52113
 Alpha  occ. eigenvalues --   -0.49308  -0.49075  -0.46167  -0.43184  -0.41712
 Alpha  occ. eigenvalues --   -0.39843  -0.37849  -0.36405  -0.36258  -0.35305
 Alpha  occ. eigenvalues --   -0.33967  -0.33578  -0.33131  -0.32272  -0.31267
 Alpha  occ. eigenvalues --   -0.30516  -0.30173  -0.28238  -0.27468  -0.27066
 Alpha  occ. eigenvalues --   -0.26822  -0.24695  -0.24657  -0.23864  -0.23339
 Alpha  occ. eigenvalues --   -0.22903  -0.22303  -0.20253  -0.19735  -0.17807
 Alpha  occ. eigenvalues --   -0.16558  -0.15460  -0.14083  -0.13771   0.03923
 Alpha virt. eigenvalues --    0.06443   0.06737   0.07662   0.07827   0.08089
 Alpha virt. eigenvalues --    0.08906   0.09098   0.09282   0.09883   0.10262
 Alpha virt. eigenvalues --    0.11181   0.11641   0.12725   0.12942   0.13370

  Beta  occ. eigenvalues --  -88.93983 -19.05131 -18.99919 -18.99918 -10.12991
  Beta  occ. eigenvalues --  -10.08631 -10.08630 -10.08072 -10.07974 -10.07973
  Beta  occ. eigenvalues --  -10.06325 -10.06166 -10.05762 -10.05343 -10.05340
  Beta  occ. eigenvalues --  -10.05138 -10.05136 -10.04254  -8.00178  -5.96474
  Beta  occ. eigenvalues --   -5.96416  -5.96203  -1.01795  -0.92745  -0.89155
  Beta  occ. eigenvalues --   -0.76160  -0.73989  -0.67946  -0.65851  -0.65319
  Beta  occ. eigenvalues --   -0.62640  -0.61976  -0.56070  -0.52166  -0.51905
  Beta  occ. eigenvalues --   -0.49211  -0.48910  -0.45791  -0.42968  -0.41611
  Beta  occ. eigenvalues --   -0.39692  -0.37772  -0.36236  -0.36129  -0.35178
  Beta  occ. eigenvalues --   -0.33889  -0.33557  -0.32975  -0.32134  -0.31158
  Beta  occ. eigenvalues --   -0.30456  -0.29929  -0.27999  -0.27196  -0.27010
  Beta  occ. eigenvalues --   -0.26704  -0.24592  -0.24069  -0.23709  -0.23060
  Beta  occ. eigenvalues --   -0.22649  -0.22206  -0.20159  -0.19505  -0.17622
  Beta  occ. eigenvalues --   -0.16380  -0.15093  -0.13319  -0.12248
  Beta virt. eigenvalues --    0.06427   0.06863   0.07705   0.07788   0.08031
  Beta virt. eigenvalues --    0.08865   0.09066   0.09296   0.09643   0.10183
  Beta virt. eigenvalues --    0.10460   0.11166   0.11688   0.12707   0.12917

 Mulliken charges and spin densities:
               1          2
     1  C    0.049665  -0.649693
     2  C   -0.444331   0.062153
     3  C    0.882209   0.439011
     4  C   -0.597712  -0.002019
     5  C   -0.177886   0.091927
     6  C    0.013511  -0.057137
     7  C   -0.178404   0.091809
     8  C   -0.598168  -0.002569
     9  S   -0.302251  -0.064122
    10  O   -0.148701   0.009746
    11  O   -0.148444   0.009747
    12  O    0.118431   0.013375
    13  C   -0.371203  -0.006566
    14  C    0.244543   0.032233
    15  C   -0.224082  -0.002226
    16  C   -0.211435   0.005174
    17  C   -0.224628  -0.002168
    18  C    0.245273   0.032091
    19  H    0.088397   0.045120
    20  H   -0.231110   0.343361
    21  H    0.088383   0.045135
    22  H   -0.031620   0.169936
    23  H   -0.031484   0.169798
    24  H    0.094234   0.037778
    25  H    0.174862   0.010491
    26  H    0.174922   0.010447
    27  H    0.094134   0.037816
    28  H    0.153414   0.033076
    29  H    0.120383   0.026061
    30  H    0.105009   0.011251
    31  H    0.120376   0.026052
    32  H    0.153712   0.032914
 Sum of Mulliken charges =  -1.00000   1.00000

 Dipole moment (field-independent basis, Debye):
    X=             -5.1991    Y=             -0.0058    Z=             -1.3848  Tot=              5.3804
 Quadrupole moment (field-independent basis, Debye-Ang):
   XX=           -192.4450   YY=           -122.7751   ZZ=           -137.8510
   XY=              0.0281   XZ=              7.9182   YZ=             -0.0423

 Summary of Natural Population Analysis:

                                       Natural Population
                Natural  -----------------------------------------------
    Atom  No    Charge         Core      Valence    Rydberg      Total
 -----------------------------------------------------------------------
      C    1   -0.27689      0.99966     2.27205    0.00518     3.27689
      C    2   -0.20107      0.99962     2.19176    0.00970     3.20107
      C    3    0.05475      0.99951     1.93543    0.01032     2.94525
      C    4   -0.11737      0.99952     2.10914    0.00871     3.11737
      C    5   -0.06480      0.99952     2.05567    0.00961     3.06480
      C    6   -0.11364      0.99935     2.09774    0.01654     3.11364
      C    7   -0.06477      0.99952     2.05564    0.00962     3.06477
      C    8   -0.11738      0.99952     2.10915    0.00871     3.11738
      S    9    1.14532      4.99918     1.75708    0.09842     6.85468
      O   10   -0.45479      0.99990     3.44971    0.00518     4.45479
      O   11   -0.45480      0.99990     3.44972    0.00518     4.45480
      O   12   -0.35823      0.99988     3.34993    0.00842     4.35823
      C   13    0.15209      0.99936     1.83463    0.01392     2.84791
      C   14   -0.10746      0.99951     2.09858    0.00937     3.10746
      C   15   -0.10383      0.99958     2.09522    0.00903     3.10383
      C   16   -0.09895      0.99958     2.08983    0.00954     3.09895
      C   17   -0.10384      0.99958     2.09523    0.00903     3.10384
      C   18   -0.10747      0.99951     2.09860    0.00936     3.10747
      H   19    0.09572      0.00000     0.40344    0.00084     0.40428
      H   20    0.09435      0.00000     0.40398    0.00167     0.40565
      H   21    0.09572      0.00000     0.40344    0.00084     0.40428
      H   22    0.09734      0.00000     0.40147    0.00119     0.40266
      H   23    0.09733      0.00000     0.40148    0.00119     0.40267
      H   24    0.09470      0.00000     0.40435    0.00096     0.40530
      H   25    0.10662      0.00000     0.39223    0.00115     0.39338
      H   26    0.10661      0.00000     0.39224    0.00115     0.39339
      H   27    0.09470      0.00000     0.40435    0.00096     0.40530
      H   28    0.11059      0.00000     0.38803    0.00138     0.38941
      H   29    0.09670      0.00000     0.40214    0.00116     0.40330
      H   30    0.09544      0.00000     0.40349    0.00106     0.40456
      H   31    0.09669      0.00000     0.40214    0.00117     0.40331
      H   32    0.11061      0.00000     0.38801    0.00138     0.38939
 =======================================================================
   * Total *    0.00000     21.99218    46.73590    0.27192    69.00000

 Normal termination of Gaussian 16 at Fri Dec 11 22:16:02 2020.
