 Gaussian 16, Revision A.03,

 -----------------------------------------------------------
 # opt freq B3LYP/6-31G(d) empiricaldispersion=gd3bj scf=xqc
 -----------------------------------------------------------

 ------------------------------
 CID_83095424_JID_8136_neutraal
 ------------------------------
 Symbolic Z-matrix:
 Charge =  0 Multiplicity = 1

 SCF Done:  E(RB3LYP) =  -873.519369281     A.U. after   15 cycles
 SCF Done:  E(RB3LYP) =  -873.526109974     A.U. after   13 cycles
 SCF Done:  E(RB3LYP) =  -873.526174859     A.U. after   13 cycles
 SCF Done:  E(RB3LYP) =  -873.525321550     A.U. after   13 cycles
 SCF Done:  E(RB3LYP) =  -873.527318009     A.U. after   12 cycles
 SCF Done:  E(RB3LYP) =  -873.527154147     A.U. after   13 cycles
 SCF Done:  E(RB3LYP) =  -873.527361514     A.U. after   12 cycles
 SCF Done:  E(RB3LYP) =  -873.527600808     A.U. after   12 cycles
 SCF Done:  E(RB3LYP) =  -873.527604092     A.U. after   11 cycles
 SCF Done:  E(RB3LYP) =  -873.527650508     A.U. after   11 cycles
 SCF Done:  E(RB3LYP) =  -873.528216950     A.U. after   10 cycles
 SCF Done:  E(RB3LYP) =  -873.528217373     A.U. after    7 cycles
 SCF Done:  E(RB3LYP) =  -873.528217731     A.U. after    7 cycles
 SCF Done:  E(RB3LYP) =  -873.528218085     A.U. after    8 cycles
 SCF Done:  E(RB3LYP) =  -873.528218128     A.U. after    7 cycles
 Optimization completed.
    -- Stationary point found.
 Normal termination of Gaussian 16 at Fri Dec 11 19:13:20 2020.

 --------------------------------------------------------------------
 #N Geom=AllCheck Guess=TCheck SCRF=Check GenChk RB3LYP/6-31G(d) Freq
 --------------------------------------------------------------------

 Structure from the checkpoint file:  "JID_8136.chk"
 ------------------------------
 CID_83095424_JID_8136_neutraal
 ------------------------------
 Charge =  0 Multiplicity = 1

 SCF Done:  E(RB3LYP) =  -873.528218128     A.U. after    1 cycles

  Exact polarizability: 187.116  -0.813 163.328   5.832  -5.326  94.406
 Approx polarizability: 249.186  -8.491 276.931  10.332 -11.556 145.775

                      1                      2                      3
                      A                      A                      A
 Frequencies --     37.7644                44.4853                62.6712
 Red. masses --      9.1613                 4.0173                 5.9435
 Frc consts  --      0.0077                 0.0047                 0.0138
 IR Inten    --      2.8956                 1.0463                 0.2682

                      4                      5                      6
                      A                      A                      A
 Frequencies --    120.7427               139.3487               147.1464
 Red. masses --      5.4334                 3.1840                 1.3039
 Frc consts  --      0.0467                 0.0364                 0.0166
 IR Inten    --      2.9150                 0.3463                 2.8388

                      7                      8                      9
                      A                      A                      A
 Frequencies --    154.9852               170.5723               173.2455
 Red. masses --      3.1469                 2.7400                 1.8554
 Frc consts  --      0.0445                 0.0470                 0.0328
 IR Inten    --      0.6395                 7.9087                 0.6843

                     10                     11                     12
                      A                      A                      A
 Frequencies --    197.8607               204.6394               232.0409
 Red. masses --      4.6955                 1.8103                 5.7624
 Frc consts  --      0.1083                 0.0447                 0.1828
 IR Inten    --      1.0535                 3.8716                 8.1765

                     13                     14                     15
                      A                      A                      A
 Frequencies --    263.5745               297.7052               305.0002
 Red. masses --      2.8442                 2.7849                 3.0455
 Frc consts  --      0.1164                 0.1454                 0.1669
 IR Inten    --      1.2106                 7.9288                 1.0666

                     16                     17                     18
                      A                      A                      A
 Frequencies --    313.7502               332.3999               353.7579
 Red. masses --      3.8466                 3.2708                 3.9467
 Frc consts  --      0.2231                 0.2129                 0.2910
 IR Inten    --      8.5397                 5.1551                 5.4116

                     19                     20                     21
                      A                      A                      A
 Frequencies --    401.6340               401.8849               423.4923
 Red. masses --      3.0811                 4.5408                 3.4195
 Frc consts  --      0.2928                 0.4321                 0.3613
 IR Inten    --     21.5265                 3.5275                 1.9102

                     22                     23                     24
                      A                      A                      A
 Frequencies --    452.9423               488.5481               538.6499
 Red. masses --      1.6205                 2.2109                 3.2432
 Frc consts  --      0.1959                 0.3109                 0.5544
 IR Inten    --    120.0418                74.2194                28.9482

                     25                     26                     27
                      A                      A                      A
 Frequencies --    552.3659               578.5062               592.1375
 Red. masses --      3.7022                 2.7802                 3.7983
 Frc consts  --      0.6655                 0.5482                 0.7847
 IR Inten    --     20.2224                10.3508                 6.4124

                     28                     29                     30
                      A                      A                      A
 Frequencies --    660.0399               662.6993               687.9114
 Red. masses --      4.8699                 6.5026                 3.9690
 Frc consts  --      1.2500                 1.6826                 1.1066
 IR Inten    --     10.3370                 1.9092                18.0135

                     31                     32                     33
                      A                      A                      A
 Frequencies --    705.6023               722.3266               749.2051
 Red. masses --      2.2094                 6.7994                 2.0345
 Frc consts  --      0.6481                 2.0902                 0.6728
 IR Inten    --     12.8975                 5.8829                 9.0198

                     34                     35                     36
                      A                      A                      A
 Frequencies --    795.0318               849.5480               857.2946
 Red. masses --      2.0084                 2.3785                 4.3743
 Frc consts  --      0.7479                 1.0114                 1.8942
 IR Inten    --     13.3221                 3.0232                 5.7339

                     37                     38                     39
                      A                      A                      A
 Frequencies --    927.8674               937.8366               994.1422
 Red. masses --      3.1903                 3.0520                 3.3282
 Frc consts  --      1.6183                 1.5816                 1.9380
 IR Inten    --     57.3368                25.0991                16.4017

                     40                     41                     42
                      A                      A                      A
 Frequencies --    997.9138              1018.9918              1023.5276
 Red. masses --      3.4394                 1.7623                 1.8812
 Frc consts  --      2.0180                 1.0782                 1.1611
 IR Inten    --      8.1524                 2.3399                15.0924

                     43                     44                     45
                      A                      A                      A
 Frequencies --   1043.5744              1071.8934              1078.3642
 Red. masses --      2.1870                 2.0427                 1.5079
 Frc consts  --      1.4033                 1.3828                 1.0331
 IR Inten    --     10.7016                24.6706                 1.7559

                     46                     47                     48
                      A                      A                      A
 Frequencies --   1096.2158              1118.2709              1136.6814
 Red. masses --      2.0544                 2.8643                 5.0970
 Frc consts  --      1.4546                 2.1104                 3.8801
 IR Inten    --     26.9323                15.5253                71.5722

                     49                     50                     51
                      A                      A                      A
 Frequencies --   1140.1630              1159.3226              1162.6937
 Red. masses --      2.4596                 1.3843                 1.7976
 Frc consts  --      1.8838                 1.0962                 1.4318
 IR Inten    --      5.1582                 1.4151                 9.1330

                     52                     53                     54
                      A                      A                      A
 Frequencies --   1197.9213              1251.9614              1276.8356
 Red. masses --      6.0996                 1.4058                 1.6967
 Frc consts  --      5.1571                 1.2982                 1.6298
 IR Inten    --      3.6609                22.1732                 9.4173

                     55                     56                     57
                      A                      A                      A
 Frequencies --   1302.2124              1312.6697              1342.3564
 Red. masses --      1.5247                 1.4362                 1.3649
 Frc consts  --      1.5233                 1.4581                 1.4491
 IR Inten    --      2.4847                11.1682                40.8416

                     58                     59                     60
                      A                      A                      A
 Frequencies --   1350.2521              1374.7212              1384.2741
 Red. masses --      1.9447                 1.6100                 1.7977
 Frc consts  --      2.0889                 1.7927                 2.0296
 IR Inten    --     11.4785                29.8284                 5.7666

                     61                     62                     63
                      A                      A                      A
 Frequencies --   1411.1677              1419.9251              1431.1336
 Red. masses --      1.5692                 1.6379                 1.6364
 Frc consts  --      1.8411                 1.9457                 1.9747
 IR Inten    --     56.5416                 3.3121                 6.6855

                     64                     65                     66
                      A                      A                      A
 Frequencies --   1434.6350              1446.5604              1456.7938
 Red. masses --      1.4897                 1.5235                 2.5972
 Frc consts  --      1.8064                 1.8783                 3.2475
 IR Inten    --     25.8808                53.5127                59.4115

                     67                     68                     69
                      A                      A                      A
 Frequencies --   1493.4678              1505.1794              1509.1163
 Red. masses --      1.4394                 1.1954                 2.2340
 Frc consts  --      1.8916                 1.5957                 2.9976
 IR Inten    --     16.6057                52.8123                 3.3869

                     70                     71                     72
                      A                      A                      A
 Frequencies --   1511.4927              1513.7506              1514.4497
 Red. masses --      1.1966                 1.1182                 1.1064
 Frc consts  --      1.6106                 1.5097                 1.4951
 IR Inten    --     29.7234                12.1844                 1.6265

                     73                     74                     75
                      A                      A                      A
 Frequencies --   1527.6811              1529.5551              1539.1271
 Red. masses --      1.0665                 1.0945                 1.1687
 Frc consts  --      1.4665                 1.5086                 1.6312
 IR Inten    --     25.6595                 9.8236                19.6239

                     76                     77                     78
                      A                      A                      A
 Frequencies --   1579.9205              1586.1899              1642.9210
 Red. masses --      3.7319                 4.4279                 1.2686
 Frc consts  --      5.4884                 6.5639                 2.0174
 IR Inten    --    289.0571               112.4230               159.6485

                     79                     80                     81
                      A                      A                      A
 Frequencies --   1754.9396              1796.1174              2928.6780
 Red. masses --      8.3242                 9.0215                 1.0815
 Frc consts  --     15.1048                17.1474                 5.4655
 IR Inten    --    291.5487               349.2246               133.1372

                     82                     83                     84
                      A                      A                      A
 Frequencies --   3024.3506              3051.9347              3053.6584
 Red. masses --      1.0681                 1.0730                 1.0381
 Frc consts  --      5.7563                 5.8887                 5.7032
 IR Inten    --     35.8323                40.4303                24.4329

                     85                     86                     87
                      A                      A                      A
 Frequencies --   3058.5442              3087.0726              3106.4710
 Red. masses --      1.0439                 1.0578                 1.1012
 Frc consts  --      5.7537                 5.9393                 6.2609
 IR Inten    --     35.7146                22.9590                15.2436

                     88                     89                     90
                      A                      A                      A
 Frequencies --   3119.3548              3143.3740              3145.2920
 Red. masses --      1.0981                 1.0909                 1.1095
 Frc consts  --      6.2956                 6.3509                 6.4672
 IR Inten    --     26.7183                24.1131                27.4305

                     91                     92                     93
                      A                      A                      A
 Frequencies --   3145.8026              3148.7014              3194.2421
 Red. masses --      1.0864                 1.1006                 1.1070
 Frc consts  --      6.3343                 6.4287                 6.6548
 IR Inten    --      3.9676                 8.6212                19.8177

                     94                     95                     96
                      A                      A                      A
 Frequencies --   3196.6980              3520.7132              3677.2629
 Red. masses --      1.0922                 1.0502                 1.1019
 Frc consts  --      6.5758                 7.6697                 8.7791
 IR Inten    --      0.5478                91.4442                91.3036

 - Thermochemistry -
 -------------------
 Temperature   298.150 Kelvin.  Pressure   1.00000 Atm.
 Atom     1 has atomic number  6 and mass  12.00000

 Molecular mass:   252.12224 amu.
 Principal axes and moments of inertia in atomic units:
                           1         2         3
     Eigenvalues --  2651.967575233.715447248.23749
           X            0.99995  -0.01005   0.00198
           Y            0.01006   0.99993  -0.00577
           Z           -0.00192   0.00579   0.99998
 This molecule is an asymmetric top.
 Rotational symmetry number  1.
 Warning -- assumption of classical behavior for rotation
           may cause significant error
 Rotational temperatures (Kelvin)      0.03266     0.01655     0.01195
 Rotational constants (GHZ):           0.68053     0.34483     0.24899
 Zero-point vibrational energy     739163.3 (Joules/Mol)
                                  176.66426 (Kcal/Mol)
 Warning -- explicit consideration of  27 degrees of freedom as
           vibrations may cause significant error
 Vibrational temperatures:     54.33    64.00    90.17   173.72   200.49
          (Kelvin)            211.71   222.99   245.42   249.26   284.68
                              294.43   333.86   379.22   428.33   438.83
                              451.42   478.25   508.98   577.86   578.22
                              609.31   651.68   702.91   775.00   794.73
                              832.34   851.95   949.65   953.48   989.75
                             1015.20  1039.27  1077.94  1143.87  1222.31
                             1233.46  1334.99  1349.34  1430.35  1435.78
                             1466.10  1472.63  1501.47  1542.22  1551.53
                             1577.21  1608.94  1635.43  1640.44  1668.01
                             1672.86  1723.54  1801.29  1837.08  1873.59
                             1888.64  1931.35  1942.71  1977.92  1991.66
                             2030.36  2042.96  2059.08  2064.12  2081.28
                             2096.00  2148.77  2165.62  2171.28  2174.70
                             2177.95  2178.96  2197.99  2200.69  2214.46
                             2273.15  2282.17  2363.80  2524.97  2584.21
                             4213.71  4351.37  4391.05  4393.53  4400.56
                             4441.61  4469.52  4488.06  4522.61  4525.37
                             4526.11  4530.28  4595.80  4599.34  5065.52
                             5290.76

 Zero-point correction=                           0.281532 (Hartree/Particle)
 Thermal correction to Energy=                    0.298468
 Thermal correction to Enthalpy=                  0.299413
 Thermal correction to Gibbs Free Energy=         0.237195
 Sum of electronic and zero-point Energies=           -873.246686
 Sum of electronic and thermal Energies=              -873.229750
 Sum of electronic and thermal Enthalpies=            -873.228806
 Sum of electronic and thermal Free Energies=         -873.291023

                     E (Thermal)             CV                S
                      KCal/Mol        Cal/Mol-Kelvin    Cal/Mol-Kelvin
 Total                  187.292             64.438            130.948
 Electronic               0.000              0.000              0.000
 Translational            0.889              2.981             42.474
 Rotational               0.889              2.981             32.975
 Vibrational            185.514             58.477             55.498
 Vibration     1          0.594              1.982              5.373
 Vibration     2          0.595              1.980              5.049
 Vibration     3          0.597              1.972              4.371
 Vibration     4          0.609              1.932              3.088
 Vibration     5          0.615              1.914              2.813
 Vibration     6          0.617              1.906              2.709
 Vibration     7          0.620              1.897              2.610
 Vibration     8          0.626              1.879              2.429
 Vibration     9          0.627              1.875              2.400
 Vibration    10          0.637              1.843              2.153
 Vibration    11          0.640              1.833              2.091
 Vibration    12          0.653              1.792              1.863
 Vibration    13          0.670              1.740              1.638
 Vibration    14          0.691              1.678              1.430
 Vibration    15          0.696              1.664              1.389
 Vibration    16          0.702              1.647              1.342
 Vibration    17          0.714              1.611              1.248
 Vibration    18          0.730              1.568              1.149
 Vibration    19          0.767              1.467              0.957
 Vibration    20          0.767              1.466              0.956
 Vibration    21          0.786              1.419              0.880
 Vibration    22          0.811              1.354              0.787
 Vibration    23          0.844              1.275              0.687
 Vibration    24          0.894              1.165              0.568
 Vibration    25          0.908              1.135              0.539
 Vibration    26          0.935              1.078              0.488
 Vibration    27          0.950              1.049              0.463

 Optimization completed.
    -- Stationary point found.
 Normal termination of Gaussian 16 at Fri Dec 11 19:28:02 2020.

 ----------------------------------------------------------------------
 # B3LYP/6-311++G(d,p) empiricaldispersion=gd3bj scf=xqc pop=npa geom=c
 heck
 ----------------------------------------------------------------------

 --------------------------------------
 CID_83095424_JID_8136_Energie_neutraal
 --------------------------------------
 Structure from the checkpoint file:  "JID_8136.chk"
 Charge =  0 Multiplicity = 1

 SCF Done:  E(RB3LYP) =  -873.776660513     A.U. after   15 cycles
 Normal termination of Gaussian 16 at Fri Dec 11 19:33:43 2020.

 ----------------------------------------------------------------------
 # B3LYP/6-311++G(d,p) empiricaldispersion=gd3bj scf=xqc pop=npa geom=c
 heck
 ----------------------------------------------------------------------

 ------------------------------------
 CID_83095424_JID_8136_Energie_kation
 ------------------------------------
 Structure from the checkpoint file:  "JID_8136.chk"
 Charge =  1 Multiplicity = 2

 SCF Done:  E(UB3LYP) =  -873.493784742     A.U. after   26 cycles
 Normal termination of Gaussian 16 at Fri Dec 11 19:47:00 2020.
 Gaussian 16:  ES64L-G16RevA.03 25-Dec-2016

 ----------------------------------------------------------------------
 # B3LYP/6-311++G(d,p) empiricaldispersion=gd3bj scf=xqc pop=npa geom=c
 heck
 ----------------------------------------------------------------------

 -----------------------------------
 CID_83095424_JID_8136_Energie_anion
 -----------------------------------
 Structure from the checkpoint file:  "JID_8136.chk"
 Charge = -1 Multiplicity = 2

                         Standard orientation:
 ---------------------------------------------------------------------
 Center     Atomic      Atomic             Coordinates (Angstroms)
 Number     Number       Type             X           Y           Z
 ---------------------------------------------------------------------
      1          6           0        4.560600   -0.198898    0.213305
      2          6           0        3.089664   -0.456463    0.100775
      3          7           0        2.628554   -1.685682    0.209979
      4          7           0        1.268305   -1.585812    0.040130
      5          6           0        0.851418   -0.302600   -0.141016
      6          6           0        2.034370    0.489363   -0.117337
      7          6           0        2.273477    1.908756   -0.192693
      8          8           0        1.470183    2.817768   -0.392471
      9          7           0       -0.480260    0.012293   -0.321657
     10          6           0       -0.893563    1.206689   -1.067719
     11          6           0       -1.441458    2.288740   -0.138149
     12          8           0       -2.468726    1.774565    0.725101
     13          6           0       -1.969336    0.692727    1.504486
     14          6           0       -1.511930   -0.470919    0.613234
     15          6           0       -2.656540   -1.164749   -0.173831
     16          8           0       -2.548226   -2.322042   -0.562057
     17          7           0       -3.763709   -0.412342   -0.393391
     18          6           0        0.514176   -2.826620    0.004620
     19          1           0        5.076318   -1.146788    0.385640
     20          1           0        4.961512    0.254236   -0.700526
     21          1           0        4.792560    0.477818    1.043883
     22          1           0        3.342938    2.167229   -0.042723
     23          1           0       -1.664768    0.902361   -1.786697
     24          1           0       -0.042175    1.603133   -1.615577
     25          1           0       -0.624379    2.698310    0.463292
     26          1           0       -1.902254    3.096022   -0.713084
     27          1           0       -2.780354    0.383318    2.169898
     28          1           0       -1.115962    1.029645    2.111569
     29          1           0       -1.075891   -1.240915    1.250091
     30          1           0       -3.770122    0.574370   -0.156517
     31          1           0       -4.507683   -0.818492   -0.944087
     32          1           0        1.130218   -3.564725   -0.511054
     33          1           0        0.310457   -3.188805    1.019071
     34          1           0       -0.431762   -2.684399   -0.517233
 ---------------------------------------------------------------------

 SCF Done:  E(UB3LYP) =  -873.774127619     A.U. after   33 cycles
 SCF Done:  E(UB3LYP) =  -873.774127619     a.u. after    1 cycles

 The electronic state is 2-A.
 Alpha  occ. eigenvalues --  -19.03927 -18.99620 -18.95091 -14.26611 -14.23408
 Alpha  occ. eigenvalues --  -14.23296 -14.20946 -10.18216 -10.13114 -10.12788
 Alpha  occ. eigenvalues --  -10.12754 -10.10959 -10.09622 -10.09512 -10.09326
 Alpha  occ. eigenvalues --  -10.08464 -10.06962 -10.04552  -0.95575  -0.94421
 Alpha  occ. eigenvalues --   -0.93273  -0.88401  -0.84436  -0.80976  -0.73859
 Alpha  occ. eigenvalues --   -0.69107  -0.67563  -0.63578  -0.60710  -0.58106
 Alpha  occ. eigenvalues --   -0.57079  -0.52660  -0.50944  -0.48801  -0.46032
 Alpha  occ. eigenvalues --   -0.44999  -0.43120  -0.40365  -0.39173  -0.38914
 Alpha  occ. eigenvalues --   -0.38124  -0.37171  -0.36528  -0.35893  -0.34760
 Alpha  occ. eigenvalues --   -0.32663  -0.32247  -0.31519  -0.31271  -0.30751
 Alpha  occ. eigenvalues --   -0.29817  -0.29198  -0.28524  -0.28381  -0.27895
 Alpha  occ. eigenvalues --   -0.27282  -0.26138  -0.24727  -0.22725  -0.20295
 Alpha  occ. eigenvalues --   -0.18489  -0.17989  -0.17578  -0.15669  -0.13175
 Alpha  occ. eigenvalues --   -0.11218  -0.09868   0.04357
 Alpha virt. eigenvalues --    0.06263   0.07479   0.07878   0.08923   0.09055
 Alpha virt. eigenvalues --    0.09760   0.10109   0.10549   0.10946   0.11269
 Alpha virt. eigenvalues --    0.11958   0.12554   0.13039   0.13384   0.13599

  Beta  occ. eigenvalues --  -19.03923 -18.99615 -18.94716 -14.26540 -14.23404
  Beta  occ. eigenvalues --  -14.23248 -14.21007 -10.18215 -10.13099 -10.12772
  Beta  occ. eigenvalues --  -10.12482 -10.10952 -10.09625 -10.09497 -10.09018
  Beta  occ. eigenvalues --  -10.08387 -10.06964 -10.04621  -0.95559  -0.94412
  Beta  occ. eigenvalues --   -0.93155  -0.87693  -0.84339  -0.80914  -0.73780
  Beta  occ. eigenvalues --   -0.69028  -0.67376  -0.63528  -0.60619  -0.58019
  Beta  occ. eigenvalues --   -0.56989  -0.52554  -0.50604  -0.48695  -0.45944
  Beta  occ. eigenvalues --   -0.44757  -0.43074  -0.40155  -0.39111  -0.38840
  Beta  occ. eigenvalues --   -0.37984  -0.37079  -0.36435  -0.35793  -0.34709
  Beta  occ. eigenvalues --   -0.32603  -0.32160  -0.31456  -0.31134  -0.30708
  Beta  occ. eigenvalues --   -0.29758  -0.28974  -0.28403  -0.28278  -0.27654
  Beta  occ. eigenvalues --   -0.27075  -0.26055  -0.23520  -0.22189  -0.20167
  Beta  occ. eigenvalues --   -0.18492  -0.17959  -0.17513  -0.15417  -0.12585
  Beta  occ. eigenvalues --   -0.10904  -0.09541
  Beta virt. eigenvalues --    0.07050   0.07681   0.08201   0.08930   0.09326
  Beta virt. eigenvalues --    0.09513   0.09874   0.10289   0.10619   0.11005
  Beta virt. eigenvalues --    0.11279   0.12358   0.12775   0.13202   0.13387

 Mulliken charges and spin densities:
               1          2
     1  C   -0.691408  -0.051076
     2  C   -0.522968  -0.076141
     3  N   -0.035877  -0.038480
     4  N   -0.021543   0.021118
     5  C   -0.837425  -0.310586
     6  C    1.709969   0.399408
     7  C   -0.499094   0.225856
     8  O   -0.374264   0.120667
     9  N    0.182627  -0.001996
    10  C   -0.328562   0.265014
    11  C   -0.004935  -0.461178
    12  O   -0.164735   0.026993
    13  C    0.379602  -1.120466
    14  C    0.181207   0.082179
    15  C    0.040277  -0.063589
    16  O   -0.339275   0.003020
    17  N   -0.362712  -0.018009
    18  C   -0.356276  -0.036266
    19  H    0.139863  -0.001078
    20  H    0.153622   0.003593
    21  H    0.102457   0.050941
    22  H    0.072257  -0.019214
    23  H   -0.044428   0.232752
    24  H    0.133960   0.080034
    25  H    0.274764  -0.030582
    26  H   -0.087060   0.269534
    27  H   -0.283675   0.491332
    28  H    0.147411  -0.004513
    29  H    0.273328  -0.035143
    30  H    0.042876   0.260716
    31  H   -0.399934   0.706220
    32  H    0.159561   0.021755
    33  H    0.152626   0.011021
    34  H    0.207762  -0.003835
 Sum of Mulliken charges =  -1.00000   1.00000

 Dipole moment (field-independent basis, Debye):
    X=              3.5538    Y=             -1.8784    Z=              1.9626  Tot=              4.4733
 Quadrupole moment (field-independent basis, Debye-Ang):
   XX=           -176.0012   YY=           -149.6251   ZZ=           -124.3433
   XY=             -4.6982   XZ=             -5.1084   YZ=             -1.3173

 Summary of Natural Population Analysis:

                                       Natural Population
                Natural  -----------------------------------------------
    Atom  No    Charge         Core      Valence    Rydberg      Total
 -----------------------------------------------------------------------
      C    1   -0.30085      0.99963     2.29652    0.00470     3.30085
      C    2    0.11016      0.99959     1.87659    0.01366     2.88984
      N    3   -0.18982      0.99969     2.67799    0.01214     3.68982
      N    4   -0.11308      0.99962     2.60303    0.01043     3.61308
      C    5    0.26150      0.99946     1.72646    0.01257     2.73850
      C    6   -0.15667      0.99943     2.14877    0.00846     3.15667
      C    7    0.23804      0.99966     1.74308    0.01922     2.76196
      O    8   -0.28440      0.99989     3.27761    0.00690     4.28440
      N    9   -0.26002      0.99964     2.74946    0.01091     3.76002
      C   10   -0.10187      0.99961     2.09130    0.01096     3.10187
      C   11   -0.02185      0.99957     2.00971    0.01258     3.02185
      O   12   -0.30842      0.99989     3.29966    0.00886     4.30842
      C   13   -0.02060      0.99956     2.00787    0.01317     3.02060
      C   14   -0.05074      0.99953     2.03899    0.01222     3.05074
      C   15    0.33789      0.99967     1.63821    0.02423     2.66211
      O   16   -0.32823      0.99987     3.32193    0.00643     4.32823
      N   17   -0.40087      0.99970     2.89232    0.00886     3.90087
      C   18   -0.18539      0.99964     2.17878    0.00697     3.18539
      H   19    0.10477      0.00000     0.39417    0.00106     0.39523
      H   20    0.10284      0.00000     0.39622    0.00094     0.39716
      H   21    0.10257      0.00000     0.39604    0.00139     0.39743
      H   22    0.03855      0.00000     0.45911    0.00234     0.46145
      H   23    0.09324      0.00000     0.40540    0.00136     0.40676
      H   24    0.12342      0.00000     0.37542    0.00116     0.37658
      H   25    0.10173      0.00000     0.39673    0.00154     0.39827
      H   26    0.09187      0.00000     0.40707    0.00105     0.40813
      H   27    0.09655      0.00000     0.40213    0.00132     0.40345
      H   28    0.08895      0.00000     0.40986    0.00119     0.41105
      H   29    0.11311      0.00000     0.38482    0.00207     0.38689
      H   30    0.20866      0.00000     0.28678    0.00456     0.29134
      H   31    0.19702      0.00000     0.29808    0.00490     0.30298
      H   32    0.10171      0.00000     0.39726    0.00102     0.39829
      H   33    0.08984      0.00000     0.40907    0.00109     0.41016
      H   34    0.12037      0.00000     0.37817    0.00146     0.37963
 =======================================================================
   * Total *    0.00000     17.99366    48.77461    0.23173    67.00000

 Normal termination of Gaussian 16 at Fri Dec 11 20:04:19 2020.
