 Gaussian 16, Revision A.03,

 -----------------------------------------------------------
 # opt freq B3LYP/6-31G(d) empiricaldispersion=gd3bj scf=xqc
 -----------------------------------------------------------

 ------------------------------
 CID_11447482_JID_4533_neutraal
 ------------------------------
 Symbolic Z-matrix:
 Charge =  0 Multiplicity = 1

 SCF Done:  E(RB3LYP) =  -1326.28916267     A.U. after   15 cycles
 SCF Done:  E(RB3LYP) =  -1326.30136176     A.U. after   14 cycles
 SCF Done:  E(RB3LYP) =  -1326.30959659     A.U. after   15 cycles
 SCF Done:  E(RB3LYP) =  -1326.31095141     A.U. after   14 cycles
 SCF Done:  E(RB3LYP) =  -1326.31374030     A.U. after   13 cycles
 SCF Done:  E(RB3LYP) =  -1326.31374026     A.U. after   15 cycles
 SCF Done:  E(RB3LYP) =  -1326.31544672     A.U. after   13 cycles
 SCF Done:  E(RB3LYP) =  -1326.31581279     A.U. after   12 cycles
 SCF Done:  E(RB3LYP) =  -1326.31603452     A.U. after   12 cycles
 SCF Done:  E(RB3LYP) =  -1326.31618703     A.U. after   11 cycles
 SCF Done:  E(RB3LYP) =  -1326.31642839     A.U. after    8 cycles
 SCF Done:  E(RB3LYP) =  -1326.31642840     A.U. after    7 cycles
 SCF Done:  E(RB3LYP) =  -1326.31642837     A.U. after    8 cycles
 SCF Done:  E(RB3LYP) =  -1326.31642837     A.U. after    8 cycles
 SCF Done:  E(RB3LYP) =  -1326.31642841     A.U. after    8 cycles
 SCF Done:  E(RB3LYP) =  -1326.31642841     A.U. after    7 cycles
 Optimization completed.
    -- Stationary point found.
 Normal termination of Gaussian 16 at Thu Dec 10 10:20:42 2020.

 --------------------------------------------------------------------
 #N Geom=AllCheck Guess=TCheck SCRF=Check GenChk RB3LYP/6-31G(d) Freq
 --------------------------------------------------------------------

 Structure from the checkpoint file:  "JID_4533.chk"
 ------------------------------
 CID_11447482_JID_4533_neutraal
 ------------------------------
 Charge =  0 Multiplicity = 1

 SCF Done:  E(RB3LYP) =  -1326.31642841     A.U. after    1 cycles

  Exact polarizability: 228.151   7.106 159.577   5.157  -0.871  74.081
 Approx polarizability: 327.606  29.411 279.625  13.154  -3.255 115.134

                      1                      2                      3
                      A                      A                      A
 Frequencies --      9.7526                43.5718                65.0685
 Red. masses --      3.9589                 4.5006                 5.4695
 Frc consts  --      0.0002                 0.0050                 0.0136
 IR Inten    --      1.9177                 0.3601                 0.5157

                      4                      5                      6
                      A                      A                      A
 Frequencies --     88.7643               133.2342               139.6027
 Red. masses --      3.8058                 3.2204                 1.7100
 Frc consts  --      0.0177                 0.0337                 0.0196
 IR Inten    --      3.8849                22.0428               109.9228

                      7                      8                      9
                      A                      A                      A
 Frequencies --    153.3592               162.0486               194.5892
 Red. masses --      5.9063                 4.3621                 2.3591
 Frc consts  --      0.0818                 0.0675                 0.0526
 IR Inten    --     39.3853                15.1278                 1.4490

                     10                     11                     12
                      A                      A                      A
 Frequencies --    213.4871               228.5432               233.0104
 Red. masses --      3.4292                 2.9579                 3.1120
 Frc consts  --      0.0921                 0.0910                 0.0996
 IR Inten    --     27.4518                16.8718                11.6296

                     13                     14                     15
                      A                      A                      A
 Frequencies --    244.5676               269.6756               309.3661
 Red. masses --      1.2722                 1.6186                 3.8456
 Frc consts  --      0.0448                 0.0694                 0.2169
 IR Inten    --      6.1991                 0.7311                 6.9029

                     16                     17                     18
                      A                      A                      A
 Frequencies --    359.8816               373.1616               430.0508
 Red. masses --      4.8320                 6.0317                 7.2960
 Frc consts  --      0.3687                 0.4949                 0.7950
 IR Inten    --      0.2787                 6.3618                 0.2417

                     19                     20                     21
                      A                      A                      A
 Frequencies --    488.0870               511.5039               551.1441
 Red. masses --      5.4105                 2.6739                 7.9616
 Frc consts  --      0.7594                 0.4122                 1.4249
 IR Inten    --      0.1816                 2.6677                 4.2999

                     22                     23                     24
                      A                      A                      A
 Frequencies --    574.4392               615.9518               626.3759
 Red. masses --      1.5374                10.0635                 8.2747
 Frc consts  --      0.2989                 2.2495                 1.9128
 IR Inten    --      0.0888                 0.0428                 1.0947

                     25                     26                     27
                      A                      A                      A
 Frequencies --    660.0996               677.4151               686.4566
 Red. masses --      4.6429                 6.6198                 9.7197
 Frc consts  --      1.1920                 1.7898                 2.6986
 IR Inten    --      2.9826                 9.9713                 0.8803

                     28                     29                     30
                      A                      A                      A
 Frequencies --    716.4786               768.1117               785.3751
 Red. masses --      6.3258                 1.2308                11.6470
 Frc consts  --      1.9133                 0.4278                 4.2327
 IR Inten    --      0.3837                 9.8642                19.3795

                     31                     32                     33
                      A                      A                      A
 Frequencies --    883.5613               986.4701               992.0916
 Red. masses --     11.2755                 1.1977                 1.9316
 Frc consts  --      5.1863                 0.6867                 1.1201
 IR Inten    --    105.6576                 3.6411                 9.9456

                     34                     35                     36
                      A                      A                      A
 Frequencies --    995.9497              1032.9755              1068.4024
 Red. masses --      1.8015                 2.6817                 1.6184
 Frc consts  --      1.0528                 1.6859                 1.0885
 IR Inten    --     32.1419                12.7817                22.0018

                     37                     38                     39
                      A                      A                      A
 Frequencies --   1087.4155              1093.0226              1194.3775
 Red. masses --      1.7565                 1.7528                 6.0276
 Frc consts  --      1.2237                 1.2338                 5.0662
 IR Inten    --      1.4872                31.0007                60.9308

                     40                     41                     42
                      A                      A                      A
 Frequencies --   1299.9005              1302.6551              1316.1357
 Red. masses --      1.7016                 2.7111                 7.3521
 Frc consts  --      1.6941                 2.7105                 7.5035
 IR Inten    --     29.4662                81.9674                92.2832

                     43                     44                     45
                      A                      A                      A
 Frequencies --   1327.0805              1385.7073              1401.3848
 Red. masses --      1.3785                 2.6455                 1.6420
 Frc consts  --      1.4304                 2.9930                 1.9000
 IR Inten    --     49.7871               215.4778                80.3951

                     46                     47                     48
                      A                      A                      A
 Frequencies --   1434.5494              1477.6680              1490.4160
 Red. masses --      1.2292                 2.0747                 1.4481
 Frc consts  --      1.4904                 2.6691                 1.8952
 IR Inten    --      7.5302                 6.0922                35.7294

                     49                     50                     51
                      A                      A                      A
 Frequencies --   1501.7618              1506.6628              1519.9279
 Red. masses --      1.0522                 1.0714                 1.0487
 Frc consts  --      1.3982                 1.4329                 1.4274
 IR Inten    --     12.9954                30.2934                 3.9904

                     52                     53                     54
                      A                      A                      A
 Frequencies --   1535.4726              1549.8112              1589.8065
 Red. masses --      1.0483                 5.2572                 6.6339
 Frc consts  --      1.4562                 7.4398                 9.8789
 IR Inten    --      2.7993               499.0806               654.3578

                     55                     56                     57
                      A                      A                      A
 Frequencies --   1673.8252              2316.3090              3054.1760
 Red. masses --      1.5650                12.6485                 1.0395
 Frc consts  --      2.5833                39.9836                 5.7128
 IR Inten    --    393.2897               100.8697                35.7938

                     58                     59                     60
                      A                      A                      A
 Frequencies --   3084.4386              3085.3689              3120.9494
 Red. masses --      1.0624                 1.0320                 1.0992
 Frc consts  --      5.9551                 5.7879                 6.3080
 IR Inten    --     15.0350                 8.7618                20.2680

                     61                     62                     63
                      A                      A                      A
 Frequencies --   3140.6791              3156.9759              3167.9387
 Red. masses --      1.0997                 1.1046                 1.1021
 Frc consts  --      6.3913                 6.4862                 6.5167
 IR Inten    --      5.6220                19.9374                 3.6186

                     64                     65                     66
                      A                      A                      A
 Frequencies --   3195.0827              3606.2237              3731.0118
 Red. masses --      1.1085                 1.0447                 1.1062
 Frc consts  --      6.6670                 8.0049                 9.0727
 IR Inten    --      1.8638                94.8431                56.3226

 - Thermochemistry -
 -------------------
 Temperature   298.150 Kelvin.  Pressure   1.00000 Atm.
 Atom     1 has atomic number  6 and mass  12.00000

 Molecular mass:   226.03469 amu.
 Principal axes and moments of inertia in atomic units:
                           1         2         3
     Eigenvalues --  1892.952885246.858106938.46884
           X            0.99972  -0.02307  -0.00576
           Y            0.02308   0.99973   0.00130
           Z            0.00573  -0.00143   0.99998
 This molecule is an asymmetric top.
 Rotational symmetry number  1.
 Warning -- assumption of classical behavior for rotation
           may cause significant error
 Rotational temperatures (Kelvin)      0.04576     0.01651     0.01248
 Rotational constants (GHZ):           0.95340     0.34397     0.26011
 Zero-point vibrational energy     470248.2 (Joules/Mol)
                                  112.39202 (Kcal/Mol)
 Warning -- explicit consideration of  23 degrees of freedom as
           vibrations may cause significant error
 Vibrational temperatures:     14.03    62.69    93.62   127.71   191.69
          (Kelvin)            200.86   220.65   233.15   279.97   307.16
                              328.82   335.25   351.88   388.00   445.11
                              517.79   536.90   618.75   702.25   735.94
                              792.97   826.49   886.22   901.22   949.74
                              974.65   987.66  1030.85  1105.14  1129.98
                             1271.25  1419.31  1427.40  1432.95  1486.22
                             1537.19  1564.55  1572.62  1718.44  1870.27
                             1874.23  1893.63  1909.37  1993.72  2016.28
                             2064.00  2126.03  2144.38  2160.70  2167.75
                             2186.84  2209.20  2229.83  2287.38  2408.26
                             3332.65  4394.28  4437.82  4439.16  4490.35
                             4518.74  4542.18  4557.96  4597.01  5188.55
                             5368.09

 Zero-point correction=                           0.179108 (Hartree/Particle)
 Thermal correction to Energy=                    0.194495
 Thermal correction to Enthalpy=                  0.195439
 Thermal correction to Gibbs Free Energy=         0.134420
 Sum of electronic and zero-point Energies=          -1326.137320
 Sum of electronic and thermal Energies=             -1326.121933
 Sum of electronic and thermal Enthalpies=           -1326.120989
 Sum of electronic and thermal Free Energies=        -1326.182009

                     E (Thermal)             CV                S
                      KCal/Mol        Cal/Mol-Kelvin    Cal/Mol-Kelvin
 Total                  122.047             54.494            128.426
 Electronic               0.000              0.000              0.000
 Translational            0.889              2.981             42.149
 Rotational               0.889              2.981             32.599
 Vibrational            120.270             48.533             53.678
 Vibration     1          0.593              1.987              8.061
 Vibration     2          0.595              1.980              5.090
 Vibration     3          0.597              1.971              4.297
 Vibration     4          0.602              1.957              3.687
 Vibration     5          0.613              1.920              2.899
 Vibration     6          0.615              1.914              2.809
 Vibration     7          0.619              1.899              2.630
 Vibration     8          0.622              1.889              2.526
 Vibration     9          0.635              1.847              2.184
 Vibration    10          0.644              1.820              2.014
 Vibration    11          0.651              1.797              1.890
 Vibration    12          0.654              1.790              1.856
 Vibration    13          0.660              1.772              1.769
 Vibration    14          0.674              1.729              1.598
 Vibration    15          0.699              1.656              1.366
 Vibration    16          0.734              1.555              1.123
 Vibration    17          0.745              1.527              1.067
 Vibration    18          0.791              1.405              0.858
 Vibration    19          0.844              1.276              0.689
 Vibration    20          0.867              1.225              0.630
 Vibration    21          0.906              1.137              0.542
 Vibration    22          0.931              1.087              0.496
 Vibration    23          0.976              0.998              0.423

 Optimization completed.
    -- Stationary point found.
 Normal termination of Gaussian 16 at Thu Dec 10 10:27:14 2020.

 ----------------------------------------------------------------------
 # B3LYP/6-311++G(d,p) empiricaldispersion=gd3bj scf=xqc pop=npa geom=c
 heck
 ----------------------------------------------------------------------

 --------------------------------------
 CID_11447482_JID_4533_Energie_neutraal
 --------------------------------------
 Structure from the checkpoint file:  "JID_4533.chk"
 Charge =  0 Multiplicity = 1

 SCF Done:  E(RB3LYP) =  -1326.51736802     A.U. after   16 cycles
 Normal termination of Gaussian 16 at Thu Dec 10 10:30:39 2020.

 ----------------------------------------------------------------------
 # B3LYP/6-311++G(d,p) empiricaldispersion=gd3bj scf=xqc pop=npa geom=c
 heck
 ----------------------------------------------------------------------

 ------------------------------------
 CID_11447482_JID_4533_Energie_kation
 ------------------------------------
 Structure from the checkpoint file:  "JID_4533.chk"
 Charge =  1 Multiplicity = 2

 SCF Done:  E(UB3LYP) =  -1326.21587625     A.U. after   29 cycles
 Normal termination of Gaussian 16 at Thu Dec 10 10:39:38 2020.
 Gaussian 16:  ES64L-G16RevA.03 25-Dec-2016

 ----------------------------------------------------------------------
 # B3LYP/6-311++G(d,p) empiricaldispersion=gd3bj scf=xqc pop=npa geom=c
 heck
 ----------------------------------------------------------------------

 -----------------------------------
 CID_11447482_JID_4533_Energie_anion
 -----------------------------------
 Structure from the checkpoint file:  "JID_4533.chk"
 Charge = -1 Multiplicity = 2

                         Standard orientation:
 ---------------------------------------------------------------------
 Center     Atomic      Atomic             Coordinates (Angstroms)
 Number     Number       Type             X           Y           Z
 ---------------------------------------------------------------------
      1          6           0       -4.184992    0.622413    1.001869
      2          6           0       -3.901649   -0.043899   -0.340839
      3         16           0       -2.656889   -1.390090   -0.249949
      4          6           0       -1.143644   -0.485012   -0.170901
      5          7           0       -1.171212    0.846835   -0.242752
      6          6           0        0.015380    1.466435   -0.177521
      7          6           0        1.242374    0.742445   -0.042629
      8          6           0        1.126042   -0.663845    0.004542
      9          7           0       -0.065361   -1.266133   -0.055326
     10         16           0        2.405735   -1.870208    0.152253
     11          6           0        4.004372   -0.989201    0.099338
     12          6           0        2.428923    1.510998    0.050888
     13          7           0        3.319437    2.261381    0.121321
     14          7           0        0.005977    2.813767   -0.245742
     15          1           0       -4.527220   -0.107495    1.741839
     16          1           0       -4.964880    1.384830    0.884152
     17          1           0       -3.283962    1.109238    1.383300
     18          1           0       -4.794761   -0.536081   -0.739001
     19          1           0       -3.551393    0.680525   -1.079028
     20          1           0        4.128418   -0.422731   -0.824042
     21          1           0        4.150846   -0.339697    0.961960
     22          1           0        4.747023   -1.791473    0.125401
     23          1           0       -0.884469    3.282525   -0.310059
     24          1           0        0.856156    3.352182   -0.172384
 ---------------------------------------------------------------------

 SCF Done:  E(UB3LYP) =  -1326.52938233     A.U. after   26 cycles

 The electronic state is 2-A.
 Alpha  occ. eigenvalues --  -88.72253 -88.71670 -14.21651 -14.16244 -14.15882
 Alpha  occ. eigenvalues --  -14.15653 -10.13227 -10.09789 -10.08769 -10.08471
 Alpha  occ. eigenvalues --  -10.07745 -10.06255 -10.05693 -10.05150  -7.80850
 Alpha  occ. eigenvalues --   -7.80319  -5.77259  -5.76827  -5.76699  -5.76293
 Alpha  occ. eigenvalues --   -5.76263  -5.75763  -0.86018  -0.80973  -0.76293
 Alpha  occ. eigenvalues --   -0.73895  -0.69005  -0.67073  -0.64314  -0.60018
 Alpha  occ. eigenvalues --   -0.55724  -0.52329  -0.49719  -0.46380  -0.43722
 Alpha  occ. eigenvalues --   -0.41113  -0.38489  -0.35827  -0.34693  -0.32626
 Alpha  occ. eigenvalues --   -0.31858  -0.31629  -0.30694  -0.29268  -0.27445
 Alpha  occ. eigenvalues --   -0.26008  -0.24074  -0.23953  -0.22994  -0.22708
 Alpha  occ. eigenvalues --   -0.20912  -0.19789  -0.19144  -0.18440  -0.16838
 Alpha  occ. eigenvalues --   -0.12427  -0.11863  -0.10266  -0.09277   0.04349
 Alpha virt. eigenvalues --    0.07362   0.08699   0.08947   0.09871   0.10612
 Alpha virt. eigenvalues --    0.11331   0.12105   0.12514   0.13115   0.13213
 Alpha virt. eigenvalues --    0.13868   0.14120   0.14800   0.15358   0.15824

  Beta  occ. eigenvalues --  -88.72239 -88.71659 -14.21650 -14.16468 -14.15753
  Beta  occ. eigenvalues --  -14.15358 -10.13218 -10.09210 -10.08474 -10.08194
  Beta  occ. eigenvalues --  -10.07749 -10.06229 -10.05675 -10.04997  -7.80837
  Beta  occ. eigenvalues --   -7.80309  -5.77261  -5.76833  -5.76704  -5.76301
  Beta  occ. eigenvalues --   -5.76197  -5.75704  -0.85706  -0.80758  -0.75844
  Beta  occ. eigenvalues --   -0.73555  -0.68819  -0.66904  -0.63997  -0.59729
  Beta  occ. eigenvalues --   -0.55405  -0.52081  -0.49613  -0.46104  -0.43495
  Beta  occ. eigenvalues --   -0.40865  -0.38143  -0.35673  -0.34629  -0.32468
  Beta  occ. eigenvalues --   -0.31611  -0.31493  -0.29989  -0.29097  -0.27362
  Beta  occ. eigenvalues --   -0.25908  -0.23835  -0.23113  -0.22506  -0.21399
  Beta  occ. eigenvalues --   -0.20720  -0.19698  -0.18969  -0.16804  -0.16707
  Beta  occ. eigenvalues --   -0.11957  -0.11841  -0.10009  -0.08190
  Beta virt. eigenvalues --    0.07266   0.08632   0.08881   0.09700   0.10568
  Beta virt. eigenvalues --    0.11055   0.11994   0.12125   0.12515   0.13100
  Beta virt. eigenvalues --    0.13193   0.13843   0.14101   0.14804   0.15420

 Mulliken charges and spin densities:
               1          2
     1  C   -0.377778  -0.163135
     2  C   -0.419323   0.078714
     3  S   -0.005064   0.029167
     4  C   -0.277945   0.309908
     5  N   -0.087383   0.055189
     6  C   -0.487897  -0.019618
     7  C    1.854899   0.178672
     8  C    0.284746   0.325077
     9  N    0.215718  -0.117577
    10  S   -0.282207   0.043913
    11  C   -0.612417  -0.000582
    12  C   -1.861508  -0.032384
    13  N   -0.281047   0.155250
    14  N   -0.320825   0.008367
    15  H    0.062696   0.048825
    16  H    0.007011   0.075625
    17  H    0.176173   0.013466
    18  H    0.165072  -0.002289
    19  H    0.176102  -0.000003
    20  H    0.192683   0.005695
    21  H    0.199018   0.000931
    22  H    0.135761  -0.000441
    23  H    0.250502   0.008518
    24  H    0.293013  -0.001289
 Sum of Mulliken charges =  -1.00000   1.00000

 Dipole moment (field-independent basis, Debye):
    X=             -3.0245    Y=              1.5141    Z=             -0.3904  Tot=              3.4048
 Quadrupole moment (field-independent basis, Debye-Ang):
   XX=           -136.3211   YY=           -120.3864   ZZ=           -107.4520
   XY=            -16.0623   XZ=              0.4381   YZ=             -1.4092

 Summary of Natural Population Analysis:

                                       Natural Population
                Natural  -----------------------------------------------
    Atom  No    Charge         Core      Valence    Rydberg      Total
 -----------------------------------------------------------------------
      C    1   -0.29141      0.99966     2.28570    0.00606     3.29141
      C    2   -0.25649      0.99961     2.24603    0.01085     3.25649
      S    3    0.12073      4.99953     2.85896    0.02078     7.87927
      C    4    0.24857      0.99958     1.73127    0.02057     2.75143
      N    5   -0.30113      0.99961     2.78850    0.01302     3.80113
      C    6    0.23875      0.99955     1.74368    0.01802     2.76125
      C    7   -0.16081      0.99932     2.15068    0.01081     3.16081
      C    8    0.16952      0.99947     1.81632    0.01468     2.83048
      N    9   -0.32193      0.99962     2.81154    0.01077     3.82193
      S   10    0.13374      4.99955     2.84467    0.02204     7.86626
      C   11   -0.35763      0.99962     2.35270    0.00531     3.35763
      C   12    0.14304      0.99966     1.83778    0.01953     2.85696
      N   13   -0.18128      0.99979     2.67024    0.01125     3.68128
      N   14   -0.39032      0.99969     2.88368    0.00695     3.89032
      H   15    0.09457      0.00000     0.40371    0.00171     0.40543
      H   16    0.08917      0.00000     0.40890    0.00193     0.41083
      H   17    0.10928      0.00000     0.38911    0.00161     0.39072
      H   18    0.09493      0.00000     0.40399    0.00108     0.40507
      H   19    0.11012      0.00000     0.38824    0.00164     0.38988
      H   20    0.10736      0.00000     0.39151    0.00113     0.39264
      H   21    0.10788      0.00000     0.39089    0.00122     0.39212
      H   22    0.09987      0.00000     0.39909    0.00104     0.40013
      H   23    0.19239      0.00000     0.30559    0.00202     0.30761
      H   24    0.20108      0.00000     0.29784    0.00107     0.29892
 =======================================================================
   * Total *   -0.00000     21.99425    36.80065    0.20510    59.00000

 Normal termination of Gaussian 16 at Thu Dec 10 10:47:29 2020.
