 Gaussian 16, Revision A.03,

 -----------------------------------------------------------
 # opt freq B3LYP/6-31G(d) empiricaldispersion=gd3bj scf=xqc
 -----------------------------------------------------------

 ------------------------------
 CID_65247208_JID_4207_neutraal
 ------------------------------
 Symbolic Z-matrix:
 Charge =  0 Multiplicity = 1

 SCF Done:  E(RB3LYP) =  -619.593189282     A.U. after   13 cycles
 SCF Done:  E(RB3LYP) =  -619.587434330     A.U. after   11 cycles
 SCF Done:  E(RB3LYP) =  -619.597491360     A.U. after   11 cycles
 SCF Done:  E(RB3LYP) =  -619.598730428     A.U. after   10 cycles
 SCF Done:  E(RB3LYP) =  -619.597207799     A.U. after   11 cycles
 SCF Done:  E(RB3LYP) =  -619.598808027     A.U. after   10 cycles
 SCF Done:  E(RB3LYP) =  -619.598761098     A.U. after   10 cycles
 SCF Done:  E(RB3LYP) =  -619.599091222     A.U. after   10 cycles
 SCF Done:  E(RB3LYP) =  -619.599006218     A.U. after   10 cycles
 SCF Done:  E(RB3LYP) =  -619.599073728     A.U. after   10 cycles
 SCF Done:  E(RB3LYP) =  -619.599119499     A.U. after    8 cycles
 SCF Done:  E(RB3LYP) =  -619.599120465     A.U. after    7 cycles
 SCF Done:  E(RB3LYP) =  -619.599120689     A.U. after    7 cycles
 SCF Done:  E(RB3LYP) =  -619.599120708     A.U. after    6 cycles
 SCF Done:  E(RB3LYP) =  -619.599121652     A.U. after    7 cycles
 SCF Done:  E(RB3LYP) =  -619.599121739     A.U. after    6 cycles
 Optimization completed.
    -- Stationary point found.
 Normal termination of Gaussian 16 at Thu Dec 10 09:30:15 2020.

 --------------------------------------------------------------------
 #N Geom=AllCheck Guess=TCheck SCRF=Check GenChk RB3LYP/6-31G(d) Freq
 --------------------------------------------------------------------

 Structure from the checkpoint file:  "JID_4207.chk"
 ------------------------------
 CID_65247208_JID_4207_neutraal
 ------------------------------
 Charge =  0 Multiplicity = 1

 SCF Done:  E(RB3LYP) =  -619.599121739     A.U. after    1 cycles

  Exact polarizability: 147.362  -0.649 131.569   0.726  -1.077 124.443
 Approx polarizability: 186.929   0.123 184.146   0.267  -1.046 187.262

                      1                      2                      3
                      A                      A                      A
 Frequencies --     39.3155                68.2564                74.4207
 Red. masses --      3.1944                 4.3054                 3.1694
 Frc consts  --      0.0029                 0.0118                 0.0103
 IR Inten    --      0.3040                 1.8873                 0.3337

                      4                      5                      6
                      A                      A                      A
 Frequencies --     93.7219               105.8961               135.7000
 Red. masses --      2.7853                 3.8616                 4.1783
 Frc consts  --      0.0144                 0.0255                 0.0453
 IR Inten    --      0.4252                 0.4316                 6.7978

                      7                      8                      9
                      A                      A                      A
 Frequencies --    181.5147               196.8867               205.6706
 Red. masses --      2.8577                 1.9475                 2.7272
 Frc consts  --      0.0555                 0.0445                 0.0680
 IR Inten    --      1.8994                 2.3880                 2.2775

                     10                     11                     12
                      A                      A                      A
 Frequencies --    213.8694               236.7242               254.1484
 Red. masses --      1.2100                 1.1229                 1.7028
 Frc consts  --      0.0326                 0.0371                 0.0648
 IR Inten    --      0.2813                 0.1845                 1.6075

                     13                     14                     15
                      A                      A                      A
 Frequencies --    267.4033               292.1525               320.6231
 Red. masses --      1.4673                 2.3603                 1.8477
 Frc consts  --      0.0618                 0.1187                 0.1119
 IR Inten    --      0.3017                 7.0289                 0.9351

                     16                     17                     18
                      A                      A                      A
 Frequencies --    334.3768               337.9607               364.6871
 Red. masses --      2.2104                 1.9098                 1.3483
 Frc consts  --      0.1456                 0.1285                 0.1057
 IR Inten    --      0.4029                 0.8232                 3.9669

                     19                     20                     21
                      A                      A                      A
 Frequencies --    379.4741               387.4912               398.9033
 Red. masses --      2.2674                 2.1941                 1.2926
 Frc consts  --      0.1924                 0.1941                 0.1212
 IR Inten    --      2.8181                12.9539                53.8166

                     22                     23                     24
                      A                      A                      A
 Frequencies --    417.3334               447.6834               465.4057
 Red. masses --      1.8209                 2.0392                 2.0344
 Frc consts  --      0.1868                 0.2408                 0.2596
 IR Inten    --      6.0588                 8.8117                 7.1702

                     25                     26                     27
                      A                      A                      A
 Frequencies --    487.7794               506.5395               523.5196
 Red. masses --      2.3286                 1.3931                 2.2089
 Frc consts  --      0.3264                 0.2106                 0.3567
 IR Inten    --      2.0191                66.6955                30.0923

                     28                     29                     30
                      A                      A                      A
 Frequencies --    544.4027               576.5011               709.2971
 Red. masses --      2.1796                 2.5330                 2.8616
 Frc consts  --      0.3806                 0.4960                 0.8482
 IR Inten    --     14.9258                 6.9196                 2.4041

                     31                     32                     33
                      A                      A                      A
 Frequencies --    743.0957               848.7824               865.4740
 Red. masses --      2.4140                 2.2046                 1.5560
 Frc consts  --      0.7854                 0.9358                 0.6867
 IR Inten    --      8.8075                16.3047                48.3408

                     34                     35                     36
                      A                      A                      A
 Frequencies --    893.1093               899.4742               908.6816
 Red. masses --      1.9685                 2.5544                 1.6321
 Frc consts  --      0.9251                 1.2176                 0.7940
 IR Inten    --      1.5374                16.2418                 6.5292

                     37                     38                     39
                      A                      A                      A
 Frequencies --    933.0061               946.8362               953.7620
 Red. masses --      1.7726                 1.6454                 1.3038
 Frc consts  --      0.9092                 0.8691                 0.6988
 IR Inten    --     17.6679                37.3322                 8.4789

                     40                     41                     42
                      A                      A                      A
 Frequencies --    960.5707               967.8769               995.1968
 Red. masses --      1.5075                 1.4711                 1.6615
 Frc consts  --      0.8195                 0.8120                 0.9696
 IR Inten    --      9.0525                11.0720                 3.0173

                     43                     44                     45
                      A                      A                      A
 Frequencies --   1006.6038              1019.3396              1063.1926
 Red. masses --      1.7325                 1.7729                 2.2171
 Frc consts  --      1.0343                 1.0853                 1.4766
 IR Inten    --      3.9772                 8.7381                15.8544

                     46                     47                     48
                      A                      A                      A
 Frequencies --   1070.1214              1093.3179              1099.9242
 Red. masses --      1.7036                 2.3767                 2.8044
 Frc consts  --      1.1494                 1.6739                 1.9990
 IR Inten    --     11.1841                 8.3968                49.9999

                     49                     50                     51
                      A                      A                      A
 Frequencies --   1120.0266              1139.6725              1162.4486
 Red. masses --      2.8492                 1.9462                 1.5362
 Frc consts  --      2.1059                 1.4893                 1.2231
 IR Inten    --     22.9955                 8.7159                12.2972

                     52                     53                     54
                      A                      A                      A
 Frequencies --   1167.4619              1196.8118              1210.1073
 Red. masses --      1.8043                 1.6634                 1.8432
 Frc consts  --      1.4489                 1.4038                 1.5903
 IR Inten    --     14.6885                21.8105                 5.8427

                     55                     56                     57
                      A                      A                      A
 Frequencies --   1223.3942              1242.5830              1250.7200
 Red. masses --      1.9943                 2.3806                 1.6333
 Frc consts  --      1.7586                 2.1657                 1.5053
 IR Inten    --     16.9686                 4.1253                15.6872

                     58                     59                     60
                      A                      A                      A
 Frequencies --   1302.2221              1310.4540              1331.9687
 Red. masses --      2.0434                 1.3036                 1.3078
 Frc consts  --      2.0416                 1.3190                 1.3670
 IR Inten    --      6.9945                10.8110                17.1102

                     61                     62                     63
                      A                      A                      A
 Frequencies --   1351.8894              1369.9413              1377.4509
 Red. masses --      1.2944                 1.2479                 1.3301
 Frc consts  --      1.3938                 1.3799                 1.4870
 IR Inten    --      8.3855                11.7844                 3.8125

                     64                     65                     66
                      A                      A                      A
 Frequencies --   1390.5114              1395.1001              1400.6958
 Red. masses --      1.2709                 1.2212                 1.3568
 Frc consts  --      1.4478                 1.4004                 1.5684
 IR Inten    --     14.6236                 3.3229                 5.6218

                     67                     68                     69
                      A                      A                      A
 Frequencies --   1422.1449              1429.0316              1435.6843
 Red. masses --      1.2681                 1.2322                 1.2766
 Frc consts  --      1.5111                 1.4826                 1.5504
 IR Inten    --      7.8025                13.2823                 2.8686

                     70                     71                     72
                      A                      A                      A
 Frequencies --   1436.1334              1448.1310              1452.4048
 Red. masses --      1.3242                 1.2892                 1.3256
 Frc consts  --      1.6091                 1.5928                 1.6476
 IR Inten    --      1.9788                 5.2901                28.3842

                     73                     74                     75
                      A                      A                      A
 Frequencies --   1455.5831              1458.7433              1505.5409
 Red. masses --      1.2496                 1.2861                 1.0795
 Frc consts  --      1.5599                 1.6125                 1.4417
 IR Inten    --     25.6146                 8.0210                 3.6015

                     76                     77                     78
                      A                      A                      A
 Frequencies --   1513.8452              1518.2256              1519.5924
 Red. masses --      1.0663                 1.0546                 1.0496
 Frc consts  --      1.4398                 1.4322                 1.4281
 IR Inten    --      0.4710                 3.0761                 0.2135

                     79                     80                     81
                      A                      A                      A
 Frequencies --   1522.0042              1524.3263              1530.9275
 Red. masses --      1.0795                 1.0570                 1.0594
 Frc consts  --      1.4733                 1.4470                 1.4629
 IR Inten    --      1.5386                 2.7568                 1.7696

                     82                     83                     84
                      A                      A                      A
 Frequencies --   1537.1865              1539.9317              1544.7700
 Red. masses --      1.0754                 1.0745                 1.0614
 Frc consts  --      1.4972                 1.5012                 1.4923
 IR Inten    --      2.1634                 2.9996                18.2162

                     85                     86                     87
                      A                      A                      A
 Frequencies --   1544.9320              1548.0925              1552.7053
 Red. masses --      1.0667                 1.0587                 1.0699
 Frc consts  --      1.5001                 1.4948                 1.5197
 IR Inten    --      2.4443                 3.2314                 7.7063

                     88                     89                     90
                      A                      A                      A
 Frequencies --   1695.4492              2937.4998              2970.5084
 Red. masses --      1.0858                 1.0827                 1.0745
 Frc consts  --      1.8389                 5.5044                 5.5861
 IR Inten    --     14.5855                52.3281                35.1271

                     91                     92                     93
                      A                      A                      A
 Frequencies --   2980.8399              2992.3074              3024.4614
 Red. masses --      1.0728                 1.0736                 1.0622
 Frc consts  --      5.6162                 5.6636                 5.7248
 IR Inten    --     74.1316                68.2000                38.4018

                     94                     95                     96
                      A                      A                      A
 Frequencies --   3036.6047              3038.3533              3045.6041
 Red. masses --      1.0661                 1.0362                 1.0455
 Frc consts  --      5.7917                 5.6362                 5.7139
 IR Inten    --     21.8250                29.6976                45.6600

                     97                     98                     99
                      A                      A                      A
 Frequencies --   3053.7470              3062.2879              3068.8840
 Red. masses --      1.0380                 1.0372                 1.0969
 Frc consts  --      5.7031                 5.7307                 6.0867
 IR Inten    --     15.1105                16.2910                40.2074

                    100                    101                    102
                      A                      A                      A
 Frequencies --   3095.4620              3098.0640              3100.2302
 Red. masses --      1.0909                 1.0950                 1.0986
 Frc consts  --      6.1587                 6.1922                 6.2214
 IR Inten    --     54.3063                18.3344                20.2915

                    103                    104                    105
                      A                      A                      A
 Frequencies --   3106.8490              3109.9668              3115.3508
 Red. masses --      1.1003                 1.0970                 1.1017
 Frc consts  --      6.2576                 6.2512                 6.2996
 IR Inten    --     61.2229                44.1255                 9.2342

                    106                    107                    108
                      A                      A                      A
 Frequencies --   3123.9901              3129.6407              3131.9795
 Red. masses --      1.1010                 1.0929                 1.1004
 Frc consts  --      6.3305                 6.3069                 6.3597
 IR Inten    --     44.2414                48.0125                16.9168

                    109                    110                    111
                      A                      A                      A
 Frequencies --   3144.9824              3145.4293              3155.7019
 Red. masses --      1.0962                 1.1019                 1.0869
 Frc consts  --      6.3880                 6.4232                 6.3770
 IR Inten    --     27.8826                22.6594                16.3039

                    112                    113                    114
                      A                      A                      A
 Frequencies --   3460.1868              3554.3587              3694.3503
 Red. masses --      1.0495                 1.0927                 1.0646
 Frc consts  --      7.4035                 8.1333                 8.5607
 IR Inten    --     21.2187                13.9547                62.5154

 - Thermochemistry -
 -------------------
 Temperature   298.150 Kelvin.  Pressure   1.00000 Atm.
 Atom     1 has atomic number  6 and mass  12.00000

 Molecular mass:   202.20451 amu.
 Principal axes and moments of inertia in atomic units:
                           1         2         3
     Eigenvalues --  2192.024903579.419344254.92471
           X            0.99975  -0.02165   0.00568
           Y            0.02181   0.99930  -0.03045
           Z           -0.00501   0.03056   0.99952
 This molecule is an asymmetric top.
 Rotational symmetry number  1.
 Warning -- assumption of classical behavior for rotation
           may cause significant error
 Rotational temperatures (Kelvin)      0.03951     0.02420     0.02036
 Rotational constants (GHZ):           0.82332     0.50420     0.42415
 Zero-point vibrational energy     982687.4 (Joules/Mol)
                                  234.86793 (Kcal/Mol)
 Warning -- explicit consideration of  29 degrees of freedom as
           vibrations may cause significant error
 Vibrational temperatures:     56.57    98.21   107.07   134.84   152.36
          (Kelvin)            195.24   261.16   283.28   295.91   307.71
                              340.59   365.66   384.73   420.34   461.31
                              481.09   486.25   524.70   545.98   557.51
                              573.93   600.45   644.12   669.62   701.81
                              728.80   753.23   783.27   829.46  1020.52
                             1069.15  1221.21  1245.22  1284.99  1294.14
                             1307.39  1342.39  1362.29  1372.25  1382.05
                             1392.56  1431.87  1448.28  1466.60  1529.70
                             1539.67  1573.04  1582.55  1611.47  1639.73
                             1672.50  1679.72  1721.95  1741.07  1760.19
                             1787.80  1799.51  1873.61  1885.45  1916.41
                             1945.07  1971.04  1981.84  2000.64  2007.24
                             2015.29  2046.15  2056.06  2065.63  2066.28
                             2083.54  2089.69  2094.26  2098.81  2166.14
                             2178.09  2184.39  2186.35  2189.82  2193.17
                             2202.66  2211.67  2215.62  2222.58  2222.81
                             2227.36  2234.00  2439.37  4226.41  4273.90
                             4288.76  4305.26  4351.53  4369.00  4371.51
                             4381.95  4393.66  4405.95  4415.44  4453.68
                             4457.42  4460.54  4470.06  4474.55  4482.29
                             4494.72  4502.85  4506.22  4524.93  4525.57
                             4540.35  4978.44  5113.93  5315.35

 Zero-point correction=                           0.374286 (Hartree/Particle)
 Thermal correction to Energy=                    0.391393
 Thermal correction to Enthalpy=                  0.392337
 Thermal correction to Gibbs Free Energy=         0.331156
 Sum of electronic and zero-point Energies=           -619.224836
 Sum of electronic and thermal Energies=              -619.207729
 Sum of electronic and thermal Enthalpies=            -619.206785
 Sum of electronic and thermal Free Energies=         -619.267966

                     E (Thermal)             CV                S
                      KCal/Mol        Cal/Mol-Kelvin    Cal/Mol-Kelvin
 Total                  245.603             66.261            128.766
 Electronic               0.000              0.000              0.000
 Translational            0.889              2.981             41.817
 Rotational               0.889              2.981             31.879
 Vibrational            243.825             60.299             55.070
 Vibration     1          0.594              1.981              5.293
 Vibration     2          0.598              1.969              4.203
 Vibration     3          0.599              1.966              4.033
 Vibration     4          0.603              1.954              3.581
 Vibration     5          0.605              1.945              3.343
 Vibration     6          0.614              1.918              2.864
 Vibration     7          0.630              1.865              2.313
 Vibration     8          0.636              1.844              2.162
 Vibration     9          0.640              1.832              2.082
 Vibration    10          0.644              1.820              2.010
 Vibration    11          0.656              1.785              1.827
 Vibration    12          0.665              1.756              1.702
 Vibration    13          0.673              1.733              1.613
 Vibration    14          0.688              1.688              1.461
 Vibration    15          0.706              1.634              1.307
 Vibration    16          0.716              1.607              1.239
 Vibration    17          0.718              1.600              1.222
 Vibration    18          0.738              1.545              1.102
 Vibration    19          0.749              1.514              1.041
 Vibration    20          0.756              1.497              1.010
 Vibration    21          0.765              1.472              0.967
 Vibration    22          0.780              1.433              0.901
 Vibration    23          0.807              1.366              0.803
 Vibration    24          0.823              1.327              0.751
 Vibration    25          0.844              1.277              0.689
 Vibration    26          0.862              1.236              0.642
 Vibration    27          0.878              1.198              0.602
 Vibration    28          0.900              1.152              0.556
 Vibration    29          0.933              1.082              0.492

                           ! Non-Optimized Parameters !
 Normal termination of Gaussian 16 at Thu Dec 10 09:45:02 2020.

 ----------------------------------------------------------------------
 # B3LYP/6-311++G(d,p) empiricaldispersion=gd3bj scf=xqc pop=npa geom=c
 heck
 ----------------------------------------------------------------------

 --------------------------------------
 CID_65247208_JID_4207_Energie_neutraal
 --------------------------------------
 Structure from the checkpoint file:  "JID_4207.chk"
 Charge =  0 Multiplicity = 1

 SCF Done:  E(RB3LYP) =  -619.791441330     A.U. after   13 cycles
 Normal termination of Gaussian 16 at Thu Dec 10 09:52:12 2020.

 ----------------------------------------------------------------------
 # B3LYP/6-311++G(d,p) empiricaldispersion=gd3bj scf=xqc pop=npa geom=c
 heck
 ----------------------------------------------------------------------

 ------------------------------------
 CID_65247208_JID_4207_Energie_kation
 ------------------------------------
 Structure from the checkpoint file:  "JID_4207.chk"
 Charge =  1 Multiplicity = 2

 SCF Done:  E(UB3LYP) =  -619.494594353     A.U. after   19 cycles
 Normal termination of Gaussian 16 at Thu Dec 10 10:07:57 2020.
 Gaussian 16:  ES64L-G16RevA.03 25-Dec-2016

 ----------------------------------------------------------------------
 # B3LYP/6-311++G(d,p) empiricaldispersion=gd3bj scf=xqc pop=npa geom=c
 heck
 ----------------------------------------------------------------------

 -----------------------------------
 CID_65247208_JID_4207_Energie_anion
 -----------------------------------
 Structure from the checkpoint file:  "JID_4207.chk"
 Charge = -1 Multiplicity = 2

                         Standard orientation:
 ---------------------------------------------------------------------
 Center     Atomic      Atomic             Coordinates (Angstroms)
 Number     Number       Type             X           Y           Z
 ---------------------------------------------------------------------
      1          6           0        2.916936   -0.933704    1.010429
      2          6           0        2.108209   -1.208311   -0.265855
      3          6           0        1.462365   -2.590735   -0.138351
      4          7           0        1.152512   -0.088513   -0.499167
      5          6           0        0.025026   -0.392253   -1.409145
      6          6           0       -1.225953   -1.026837   -0.776037
      7          6           0       -2.258337   -0.103567   -0.078177
      8          6           0       -2.896509    0.866167   -1.084642
      9          6           0       -3.349771   -1.014246    0.511572
     10          6           0       -1.632107    0.723403    1.065387
     11          7           0       -0.826145   -0.105632    1.969190
     12          6           0        1.887236    1.088505   -1.012445
     13          6           0        1.288111    2.386046   -0.481089
     14          8           0        1.308231    2.407640    0.935660
     15          1           0        2.273429   -1.043333    1.891282
     16          1           0        3.343040    0.072311    1.037754
     17          1           0        3.738057   -1.652980    1.102181
     18          1           0        2.803524   -1.257742   -1.124875
     19          1           0        0.806595   -2.647226    0.736507
     20          1           0        0.890663   -2.878967   -1.023738
     21          1           0        2.257843   -3.331618   -0.004978
     22          1           0       -0.268314    0.551475   -1.876750
     23          1           0        0.376572   -1.030878   -2.237768
     24          1           0       -1.759471   -1.547642   -1.583352
     25          1           0       -0.936354   -1.799801   -0.063711
     26          1           0       -3.394233    0.320190   -1.894981
     27          1           0       -3.650131    1.493250   -0.593327
     28          1           0       -2.158433    1.539774   -1.535438
     29          1           0       -2.933045   -1.630283    1.314082
     30          1           0       -4.169220   -0.417504    0.930425
     31          1           0       -3.773934   -1.674817   -0.254455
     32          1           0       -1.073554    1.569847    0.639812
     33          1           0       -2.448361    1.163963    1.651004
     34          1           0       -0.623771    0.402566    2.827580
     35          1           0        0.062716   -0.304243    1.510982
     36          1           0        2.923439    1.039709   -0.672731
     37          1           0        1.913709    1.091217   -2.115641
     38          1           0        0.263732    2.520961   -0.865977
     39          1           0        1.881698    3.240145   -0.823834
     40          1           0        0.952151    1.542697    1.204626
 ---------------------------------------------------------------------

 SCF Done:  E(UB3LYP) =  -619.775553728     A.U. after   29 cycles

 The electronic state is 2-A.
 Alpha  occ. eigenvalues --  -19.02392 -14.21718 -14.19653 -10.11958 -10.10906
 Alpha  occ. eigenvalues --  -10.09784 -10.09583 -10.09254 -10.08386 -10.06567
 Alpha  occ. eigenvalues --  -10.06333 -10.06322 -10.06139 -10.05667  -0.92923
 Alpha  occ. eigenvalues --   -0.82967  -0.79087  -0.71624  -0.68710  -0.65252
 Alpha  occ. eigenvalues --   -0.61094  -0.59151  -0.58994  -0.56269  -0.53461
 Alpha  occ. eigenvalues --   -0.51708  -0.47175  -0.43606  -0.41819  -0.40375
 Alpha  occ. eigenvalues --   -0.38857  -0.38204  -0.36682  -0.36297  -0.35669
 Alpha  occ. eigenvalues --   -0.34828  -0.34560  -0.32850  -0.31498  -0.30763
 Alpha  occ. eigenvalues --   -0.29944  -0.29158  -0.28904  -0.27950  -0.27457
 Alpha  occ. eigenvalues --   -0.26898  -0.26536  -0.25903  -0.25494  -0.24522
 Alpha  occ. eigenvalues --   -0.23450  -0.22386  -0.22323  -0.21646  -0.18295
 Alpha  occ. eigenvalues --   -0.15143  -0.13410   0.04476
 Alpha virt. eigenvalues --    0.06314   0.06740   0.07213   0.08419   0.08663
 Alpha virt. eigenvalues --    0.08778   0.09008   0.09896   0.10796   0.10919
 Alpha virt. eigenvalues --    0.11216   0.11724   0.12049   0.12509   0.13110

  Beta  occ. eigenvalues --  -19.02389 -14.21694 -14.19646 -10.11943 -10.10892
  Beta  occ. eigenvalues --  -10.09766 -10.09563 -10.09245 -10.08385 -10.06549
  Beta  occ. eigenvalues --  -10.06319 -10.06294 -10.06113 -10.05653  -0.92915
  Beta  occ. eigenvalues --   -0.82933  -0.79077  -0.71606  -0.68675  -0.65218
  Beta  occ. eigenvalues --   -0.61055  -0.59103  -0.58954  -0.56237  -0.53415
  Beta  occ. eigenvalues --   -0.51657  -0.47114  -0.43570  -0.41797  -0.40348
  Beta  occ. eigenvalues --   -0.38828  -0.38165  -0.36644  -0.36263  -0.35633
  Beta  occ. eigenvalues --   -0.34805  -0.34534  -0.32817  -0.31461  -0.30737
  Beta  occ. eigenvalues --   -0.29917  -0.29128  -0.28878  -0.27921  -0.27430
  Beta  occ. eigenvalues --   -0.26873  -0.26503  -0.25873  -0.25461  -0.24492
  Beta  occ. eigenvalues --   -0.23422  -0.22358  -0.22296  -0.21625  -0.18275
  Beta  occ. eigenvalues --   -0.15119  -0.13282
  Beta virt. eigenvalues --    0.06511   0.07146   0.07364   0.07865   0.08918
  Beta virt. eigenvalues --    0.09038   0.09245   0.09498   0.10243   0.11172
  Beta virt. eigenvalues --    0.11299   0.11610   0.11948   0.12401   0.12818

 Mulliken charges and spin densities:
               1          2
     1  C    0.277667  -0.855949
     2  C   -1.023410   1.016012
     3  C    0.796471  -1.345208
     4  N    0.020092   0.130674
     5  C    0.669143  -1.404959
     6  C   -0.454214   0.176124
     7  C   -0.088889   1.009058
     8  C    0.438713  -1.090514
     9  C   -0.255638  -0.195670
    10  C   -0.126414  -0.662655
    11  N   -0.507460   0.114953
    12  C   -0.084655  -0.211233
    13  C    0.312829  -0.716159
    14  O   -0.193096  -0.000545
    15  H   -0.081773   0.228103
    16  H    0.184652  -0.039562
    17  H   -0.224434   0.371494
    18  H   -0.347214   0.528097
    19  H   -0.019324   0.174307
    20  H   -0.247873   0.416718
    21  H   -0.479628   0.647231
    22  H    0.447694  -0.310124
    23  H   -0.209040   0.403246
    24  H   -0.196335   0.372408
    25  H    0.408568  -0.289469
    26  H   -0.156518   0.310845
    27  H   -0.081664   0.224502
    28  H   -0.243507   0.351154
    29  H    0.026544   0.140956
    30  H    0.029205   0.098887
    31  H   -0.161631   0.304536
    32  H    0.267970  -0.126927
    33  H    0.005280   0.164921
    34  H    0.144870   0.100333
    35  H    0.576602  -0.320174
    36  H    0.006079   0.175724
    37  H   -0.473611   0.606028
    38  H    0.111081   0.029320
    39  H   -0.262798   0.430361
    40  H    0.195664   0.043156
 Sum of Mulliken charges =  -1.00000   1.00000

 Dipole moment (field-independent basis, Debye):
    X=             -1.8310    Y=              2.2962    Z=              3.7070  Tot=              4.7294
 Quadrupole moment (field-independent basis, Debye-Ang):
   XX=           -159.2954   YY=           -148.8202   ZZ=           -137.2086
   XY=              5.3391   XZ=              0.4402   YZ=             -2.3913

 Summary of Natural Population Analysis:

                                       Natural Population
                Natural  -----------------------------------------------
    Atom  No    Charge         Core      Valence    Rydberg      Total
 -----------------------------------------------------------------------
      C    1   -0.28803      0.99963     2.28169    0.00671     3.28803
      C    2   -0.00356      0.99959     1.99120    0.01277     3.00356
      C    3   -0.29180      0.99964     2.28547    0.00669     3.29180
      N    4   -0.30867      0.99970     2.79159    0.01739     3.80867
      C    5   -0.08757      0.99959     2.07520    0.01278     3.08757
      C    6   -0.19919      0.99957     2.18848    0.01114     3.19919
      C    7   -0.04665      0.99957     2.03474    0.01234     3.04665
      C    8   -0.28577      0.99962     2.27850    0.00765     3.28577
      C    9   -0.28479      0.99962     2.27795    0.00722     3.28479
      C   10   -0.09062      0.99956     2.07964    0.01142     3.09062
      N   11   -0.43330      0.99977     2.92357    0.00997     3.93330
      C   12   -0.09546      0.99960     2.08518    0.01068     3.09546
      C   13   -0.01458      0.99959     2.00247    0.01252     3.01458
      O   14   -0.37445      0.99990     3.36842    0.00614     4.37445
      H   15    0.09535      0.00000     0.40347    0.00118     0.40465
      H   16    0.10193      0.00000     0.39705    0.00101     0.39807
      H   17    0.10174      0.00000     0.39736    0.00090     0.39826
      H   18    0.08415      0.00000     0.41331    0.00254     0.41585
      H   19    0.09857      0.00000     0.40028    0.00115     0.40143
      H   20    0.10448      0.00000     0.39429    0.00123     0.39552
      H   21    0.10561      0.00000     0.39320    0.00118     0.39439
      H   22    0.09750      0.00000     0.40037    0.00213     0.40250
      H   23    0.09256      0.00000     0.40593    0.00151     0.40744
      H   24    0.10199      0.00000     0.39673    0.00127     0.39801
      H   25    0.10657      0.00000     0.39134    0.00209     0.39343
      H   26    0.10151      0.00000     0.39747    0.00102     0.39849
      H   27    0.09870      0.00000     0.40038    0.00092     0.40130
      H   28    0.09879      0.00000     0.39992    0.00129     0.40121
      H   29    0.10755      0.00000     0.39133    0.00111     0.39245
      H   30    0.09551      0.00000     0.40367    0.00082     0.40449
      H   31    0.09796      0.00000     0.40119    0.00085     0.40204
      H   32    0.08417      0.00000     0.41372    0.00211     0.41583
      H   33    0.09046      0.00000     0.40852    0.00102     0.40954
      H   34    0.17307      0.00000     0.32559    0.00134     0.32693
      H   35    0.18107      0.00000     0.31603    0.00290     0.31893
      H   36    0.09883      0.00000     0.39968    0.00150     0.40117
      H   37    0.09246      0.00000     0.40593    0.00161     0.40754
      H   38    0.07486      0.00000     0.42353    0.00161     0.42514
      H   39    0.08720      0.00000     0.41172    0.00108     0.41280
      H   40    0.23185      0.00000     0.26421    0.00394     0.26815
 =======================================================================
   * Total *   -0.00000     13.99494    42.82034    0.18471    57.00000

 Normal termination of Gaussian 16 at Thu Dec 10 10:30:56 2020.
