 Gaussian 16, Revision A.03,

 -----------------------------------------------------------
 # opt freq B3LYP/6-31G(d) empiricaldispersion=gd3bj scf=xqc
 -----------------------------------------------------------

 -------------------------------
 CID_102893581_JID_4302_neutraal
 -------------------------------
 Symbolic Z-matrix:
 Charge =  0 Multiplicity = 1

 SCF Done:  E(RB3LYP) =  -632.001616392     A.U. after   14 cycles
 SCF Done:  E(RB3LYP) =  -632.007357749     A.U. after   12 cycles
 SCF Done:  E(RB3LYP) =  -632.007088151     A.U. after   12 cycles
 SCF Done:  E(RB3LYP) =  -632.008737322     A.U. after   12 cycles
 SCF Done:  E(RB3LYP) =  -632.008753824     A.U. after   11 cycles
 SCF Done:  E(RB3LYP) =  -632.009027161     A.U. after   11 cycles
 SCF Done:  E(RB3LYP) =  -632.009070820     A.U. after   10 cycles
 SCF Done:  E(RB3LYP) =  -632.009073181     A.U. after   10 cycles
 SCF Done:  E(RB3LYP) =  -632.009079867     A.U. after    9 cycles
 SCF Done:  E(RB3LYP) =  -632.009080254     A.U. after    7 cycles
 SCF Done:  E(RB3LYP) =  -632.009080936     A.U. after    8 cycles
 SCF Done:  E(RB3LYP) =  -632.009081450     A.U. after    8 cycles
 SCF Done:  E(RB3LYP) =  -632.009082455     A.U. after    9 cycles
 SCF Done:  E(RB3LYP) =  -632.009083423     A.U. after    8 cycles
 SCF Done:  E(RB3LYP) =  -632.009083861     A.U. after    7 cycles
 SCF Done:  E(RB3LYP) =  -632.009083875     A.U. after    7 cycles
 Optimization completed.
    -- Stationary point found.
 Normal termination of Gaussian 16 at Thu Dec 10 09:28:24 2020.

 --------------------------------------------------------------------
 #N Geom=AllCheck Guess=TCheck SCRF=Check GenChk RB3LYP/6-31G(d) Freq
 --------------------------------------------------------------------

 Structure from the checkpoint file:  "JID_4302.chk"
 -------------------------------
 CID_102893581_JID_4302_neutraal
 -------------------------------
 Charge =  0 Multiplicity = 1

 SCF Done:  E(RB3LYP) =  -632.009083875     A.U. after    1 cycles

  Exact polarizability: 142.163  -3.124 122.598   3.136  -1.420 103.254
 Approx polarizability: 174.930  -6.225 186.222   6.924  -7.829 156.225

                      1                      2                      3
                      A                      A                      A
 Frequencies --     27.7519                45.0898                58.6431
 Red. masses --      3.4958                 6.4242                 3.1244
 Frc consts  --      0.0016                 0.0077                 0.0063
 IR Inten    --      1.4806                 0.5334                 0.0836

                      4                      5                      6
                      A                      A                      A
 Frequencies --     77.7126               130.7699               150.3641
 Red. masses --      2.8799                 3.3799                 3.7614
 Frc consts  --      0.0102                 0.0341                 0.0501
 IR Inten    --      1.0765                 0.4423                 0.4618

                      7                      8                      9
                      A                      A                      A
 Frequencies --    205.9971               209.7542               250.3756
 Red. masses --      2.4946                 2.4933                 1.1021
 Frc consts  --      0.0624                 0.0646                 0.0407
 IR Inten    --      0.7413                 0.4756                 0.1925

                     10                     11                     12
                      A                      A                      A
 Frequencies --    258.8676               333.6039               345.7184
 Red. masses --      1.1297                 3.0173                 2.4460
 Frc consts  --      0.0446                 0.1978                 0.1722
 IR Inten    --      0.6197                 0.6236                 3.5935

                     13                     14                     15
                      A                      A                      A
 Frequencies --    352.9865               370.8187               420.7549
 Red. masses --      2.8436                 2.0716                 3.1532
 Frc consts  --      0.2088                 0.1678                 0.3289
 IR Inten    --      0.3498                 0.0834                 1.0809

                     16                     17                     18
                      A                      A                      A
 Frequencies --    471.2601               484.0853               563.6980
 Red. masses --      2.8377                 3.4044                 1.4108
 Frc consts  --      0.3713                 0.4700                 0.2641
 IR Inten    --      7.0184                18.1228                67.5498

                     19                     20                     21
                      A                      A                      A
 Frequencies --    573.9778               576.2815               617.1828
 Red. masses --      2.1746                 2.7752                 4.3804
 Frc consts  --      0.4221                 0.5430                 0.9831
 IR Inten    --     22.9365                18.2084                 3.0269

                     22                     23                     24
                      A                      A                      A
 Frequencies --    633.5309               697.3009               709.7984
 Red. masses --      3.1279                 4.0128                 4.5452
 Frc consts  --      0.7397                 1.1496                 1.3492
 IR Inten    --      6.4600                10.6287                15.7783

                     25                     26                     27
                      A                      A                      A
 Frequencies --    814.9315               864.1841               873.1586
 Red. masses --      2.0233                 2.6228                 2.4056
 Frc consts  --      0.7917                 1.1541                 1.0806
 IR Inten    --      1.9078                10.0261                 5.6907

                     28                     29                     30
                      A                      A                      A
 Frequencies --    898.4371               914.5197               920.7655
 Red. masses --      2.7735                 2.8702                 2.7823
 Frc consts  --      1.3190                 1.4143                 1.3898
 IR Inten    --      5.1382                10.1234                51.7742

                     31                     32                     33
                      A                      A                      A
 Frequencies --    937.7929               962.0738               973.6245
 Red. masses --      2.0919                 1.8471                 2.5324
 Frc consts  --      1.0839                 1.0073                 1.4144
 IR Inten    --      5.1324                 0.4803                53.3617

                     34                     35                     36
                      A                      A                      A
 Frequencies --    986.4638              1015.3830              1039.3648
 Red. masses --      2.2509                 1.7959                 1.7115
 Frc consts  --      1.2905                 1.0909                 1.0893
 IR Inten    --      5.1286                21.6650                15.0483

                     37                     38                     39
                      A                      A                      A
 Frequencies --   1051.4499              1065.9115              1086.1403
 Red. masses --      1.7785                 1.8583                 1.6233
 Frc consts  --      1.1584                 1.2439                 1.1283
 IR Inten    --      4.3001                 0.7418                 5.1171

                     40                     41                     42
                      A                      A                      A
 Frequencies --   1098.1443              1125.4353              1132.4124
 Red. masses --      2.3710                 2.7483                 1.2529
 Frc consts  --      1.6846                 2.0509                 0.9466
 IR Inten    --     29.8570                 9.4500                 3.9530

                     43                     44                     45
                      A                      A                      A
 Frequencies --   1150.0599              1179.6752              1201.0781
 Red. masses --      1.4213                 1.7209                 1.5360
 Frc consts  --      1.1076                 1.4110                 1.3055
 IR Inten    --      6.6701                11.1864                 4.0120

                     46                     47                     48
                      A                      A                      A
 Frequencies --   1201.9717              1227.7375              1264.7498
 Red. masses --      1.5784                 1.5859                 2.3433
 Frc consts  --      1.3436                 1.4084                 2.2084
 IR Inten    --     14.7573                 4.2025                 6.0101

                     49                     50                     51
                      A                      A                      A
 Frequencies --   1265.6576              1287.1797              1291.0647
 Red. masses --      1.6689                 1.3063                 2.2314
 Frc consts  --      1.5751                 1.2752                 2.1914
 IR Inten    --      3.6628                 1.5034                 2.2525

                     52                     53                     54
                      A                      A                      A
 Frequencies --   1293.4276              1318.4098              1334.2393
 Red. masses --      1.4499                 1.3166                 1.3165
 Frc consts  --      1.4292                 1.3484                 1.3808
 IR Inten    --      0.8626                 0.9039                 3.5045

                     55                     56                     57
                      A                      A                      A
 Frequencies --   1346.1289              1356.2732              1365.6918
 Red. masses --      1.4364                 1.3486                 1.3074
 Frc consts  --      1.5335                 1.4616                 1.4367
 IR Inten    --      1.7066                 5.0984                 0.7493

                     58                     59                     60
                      A                      A                      A
 Frequencies --   1375.3396              1383.0752              1388.1027
 Red. masses --      1.3721                 1.3636                 1.3711
 Frc consts  --      1.5292                 1.5368                 1.5566
 IR Inten    --     17.2355                 3.4892                 2.2597

                     61                     62                     63
                      A                      A                      A
 Frequencies --   1395.8416              1460.9559              1473.0913
 Red. masses --      2.3443                 1.1627                 1.4547
 Frc consts  --      2.6911                 1.4622                 1.8599
 IR Inten    --    185.4889                 0.0715                15.5527

                     64                     65                     66
                      A                      A                      A
 Frequencies --   1494.7166              1503.7532              1511.0324
 Red. masses --      1.2868                 1.1963                 1.0663
 Frc consts  --      1.6939                 1.5938                 1.4344
 IR Inten    --     71.0901                 1.5892                 7.3785

                     67                     68                     69
                      A                      A                      A
 Frequencies --   1519.4685              1520.3551              1521.3220
 Red. masses --      1.0882                 1.0535                 1.0831
 Frc consts  --      1.4803                 1.4347                 1.4770
 IR Inten    --      4.0137                 4.4736                 2.1474

                     70                     71                     72
                      A                      A                      A
 Frequencies --   1529.2864              1534.8559              1535.8316
 Red. masses --      1.0940                 1.1490                 1.0668
 Frc consts  --      1.5075                 1.5947                 1.4826
 IR Inten    --      4.2886                 4.4511                12.7406

                     73                     74                     75
                      A                      A                      A
 Frequencies --   1540.0195              1780.4060              2975.4579
 Red. masses --      1.1031                 8.0048                 1.0571
 Frc consts  --      1.5415                14.9500                 5.5140
 IR Inten    --      4.3607               276.3054                40.6634

                     76                     77                     78
                      A                      A                      A
 Frequencies --   2984.4491              3035.2179              3044.9550
 Red. masses --      1.0567                 1.0686                 1.0677
 Frc consts  --      5.5452                 5.8003                 5.8328
 IR Inten    --    124.8857                27.4881                14.6098

                     79                     80                     81
                      A                      A                      A
 Frequencies --   3045.3621              3051.0730              3063.8877
 Red. masses --      1.0687                 1.0622                 1.0827
 Frc consts  --      5.8398                 5.8258                 5.9883
 IR Inten    --     38.3033                30.2571                23.5381

                     82                     83                     84
                      A                      A                      A
 Frequencies --   3071.3968              3083.9107              3088.5694
 Red. masses --      1.0849                 1.0865                 1.1000
 Frc consts  --      6.0297                 6.0882                 6.1824
 IR Inten    --      8.0856                51.7266                45.2696

                     85                     86                     87
                      A                      A                      A
 Frequencies --   3101.6158              3101.6919              3106.8240
 Red. masses --      1.0963                 1.0784                 1.0775
 Frc consts  --      6.2136                 6.1126                 6.1280
 IR Inten    --     38.8739                 5.2205                28.1898

                     88                     89                     90
                      A                      A                      A
 Frequencies --   3107.6602              3110.8784              3155.2209
 Red. masses --      1.1010                 1.1003                 1.1037
 Frc consts  --      6.2650                 6.2739                 6.4739
 IR Inten    --     44.6099                60.4625                15.7536

                     91                     92                     93
                      A                      A                      A
 Frequencies --   3159.8889              3458.7414              3479.4280
 Red. masses --      1.1041                 1.0750                 1.0728
 Frc consts  --      6.4952                 7.5769                 7.6524
 IR Inten    --     16.5902                 7.1842                47.1128

 - Thermochemistry -
 -------------------
 Temperature   298.150 Kelvin.  Pressure   1.00000 Atm.
 Atom     1 has atomic number  6 and mass  12.00000

 Molecular mass:   197.15281 amu.
 Principal axes and moments of inertia in atomic units:
                           1         2         3
     Eigenvalues --  1543.882383883.018674393.08647
           X            0.99984  -0.01686   0.00549
           Y            0.01672   0.99957   0.02417
           Z           -0.00590  -0.02407   0.99969
 This molecule is an asymmetric top.
 Rotational symmetry number  1.
 Warning -- assumption of classical behavior for rotation
           may cause significant error
 Rotational temperatures (Kelvin)      0.05610     0.02231     0.01972
 Rotational constants (GHZ):           1.16896     0.46478     0.41081
 Zero-point vibrational energy     778192.0 (Joules/Mol)
                                  185.99235 (Kcal/Mol)
 Warning -- explicit consideration of  21 degrees of freedom as
           vibrations may cause significant error
 Vibrational temperatures:     39.93    64.87    84.37   111.81   188.15
          (Kelvin)            216.34   296.38   301.79   360.23   372.45
                              479.98   497.41   507.87   533.53   605.37
                              678.04   696.49   811.04   825.83   829.14
                              887.99   911.51  1003.26  1021.24  1172.50
                             1243.37  1256.28  1292.65  1315.79  1324.78
                             1349.27  1384.21  1400.83  1419.30  1460.91
                             1495.41  1512.80  1533.61  1562.71  1579.98
                             1619.25  1629.29  1654.68  1697.29  1728.08
                             1729.37  1766.44  1819.69  1821.00  1851.96
                             1857.55  1860.95  1896.90  1919.67  1936.78
                             1951.37  1964.93  1978.81  1989.94  1997.17
                             2008.30  2101.99  2119.45  2150.56  2163.57
                             2174.04  2186.18  2187.45  2188.84  2200.30
                             2208.32  2209.72  2215.74  2561.61  4281.02
                             4293.96  4367.00  4381.01  4381.60  4389.81
                             4408.25  4419.05  4437.06  4443.76  4462.53
                             4462.64  4470.03  4471.23  4475.86  4539.66
                             4546.38  4976.36  5006.12

 Zero-point correction=                           0.296398 (Hartree/Particle)
 Thermal correction to Energy=                    0.310215
 Thermal correction to Enthalpy=                  0.311159
 Thermal correction to Gibbs Free Energy=         0.254874
 Sum of electronic and zero-point Energies=           -631.712686
 Sum of electronic and thermal Energies=              -631.698869
 Sum of electronic and thermal Enthalpies=            -631.697925
 Sum of electronic and thermal Free Energies=         -631.754210

                     E (Thermal)             CV                S
                      KCal/Mol        Cal/Mol-Kelvin    Cal/Mol-Kelvin
 Total                  194.663             53.136            118.463
 Electronic               0.000              0.000              0.000
 Translational            0.889              2.981             41.741
 Rotational               0.889              2.981             31.644
 Vibrational            192.885             47.174             45.078
 Vibration     1          0.593              1.984              5.984
 Vibration     2          0.595              1.979              5.022
 Vibration     3          0.596              1.974              4.502
 Vibration     4          0.599              1.964              3.948
 Vibration     5          0.612              1.923              2.935
 Vibration     6          0.618              1.902              2.668
 Vibration     7          0.640              1.831              2.079
 Vibration     8          0.642              1.826              2.046
 Vibration     9          0.663              1.762              1.728
 Vibration    10          0.668              1.748              1.669
 Vibration    11          0.715              1.608              1.243
 Vibration    12          0.724              1.584              1.186
 Vibration    13          0.729              1.569              1.153
 Vibration    14          0.743              1.532              1.076
 Vibration    15          0.783              1.425              0.889
 Vibration    16          0.828              1.314              0.734
 Vibration    17          0.840              1.285              0.699
 Vibration    18          0.919              1.110              0.517
 Vibration    19          0.930              1.088              0.497
 Vibration    20          0.933              1.083              0.492
 Vibration    21          0.977              0.996              0.421

 Optimization completed.
    -- Stationary point found.
 Normal termination of Gaussian 16 at Thu Dec 10 09:39:00 2020.

 ----------------------------------------------------------------------
 # B3LYP/6-311++G(d,p) empiricaldispersion=gd3bj scf=xqc pop=npa geom=c
 heck
 ----------------------------------------------------------------------

 ---------------------------------------
 CID_102893581_JID_4302_Energie_neutraal
 ---------------------------------------
 Structure from the checkpoint file:  "JID_4302.chk"
 Charge =  0 Multiplicity = 1

 SCF Done:  E(RB3LYP) =  -632.191267247     A.U. after   15 cycles
 Normal termination of Gaussian 16 at Thu Dec 10 09:44:21 2020.

 ----------------------------------------------------------------------
 # B3LYP/6-311++G(d,p) empiricaldispersion=gd3bj scf=xqc pop=npa geom=c
 heck
 ----------------------------------------------------------------------

 -------------------------------------
 CID_102893581_JID_4302_Energie_kation
 -------------------------------------
 Structure from the checkpoint file:  "JID_4302.chk"
 Charge =  1 Multiplicity = 2

 SCF Done:  E(UB3LYP) =  -631.887878649     A.U. after   28 cycles
 Normal termination of Gaussian 16 at Thu Dec 10 09:59:15 2020.
 Gaussian 16:  ES64L-G16RevA.03 25-Dec-2016

 ----------------------------------------------------------------------
 # B3LYP/6-311++G(d,p) empiricaldispersion=gd3bj scf=xqc pop=npa geom=c
 heck
 ----------------------------------------------------------------------

 ------------------------------------
 CID_102893581_JID_4302_Energie_anion
 ------------------------------------
 Structure from the checkpoint file:  "JID_4302.chk"
 Charge = -1 Multiplicity = 2

                         Standard orientation:
 ---------------------------------------------------------------------
 Center     Atomic      Atomic             Coordinates (Angstroms)
 Number     Number       Type             X           Y           Z
 ---------------------------------------------------------------------
      1          6           0        3.405918   -0.964646   -0.602783
      2          7           0        2.396625   -0.466912    0.334514
      3          6           0        2.787723   -0.629085    1.732791
      4          7           0        2.094548    0.874607    0.067234
      5          6           0        0.927326    1.345367   -0.489536
      6          8           0        0.824668    2.540861   -0.734352
      7          6           0       -0.246333    0.401979   -0.694247
      8          6           0       -1.061054    0.176448    0.618729
      9          6           0       -2.178783    1.212196    0.837397
     10          6           0       -3.386475    0.613121    0.096485
     11          6           0       -3.284054   -0.890537    0.409473
     12          6           0       -1.770450   -1.193550    0.362779
     13          6           0       -1.232646   -1.636868   -1.027610
     14          7           0        0.032547   -0.925298   -1.260022
     15          1           0        3.602068   -2.019633   -0.388102
     16          1           0        4.357029   -0.408481   -0.530028
     17          1           0        3.012541   -0.874626   -1.617552
     18          1           0        3.707883   -0.071051    1.982189
     19          1           0        1.977061   -0.273815    2.372614
     20          1           0        2.961918   -1.690646    1.932349
     21          1           0        2.842528    1.565925    0.139501
     22          1           0       -0.887217    0.934506   -1.405472
     23          1           0       -0.373597    0.128115    1.469493
     24          1           0       -1.890711    2.205596    0.477230
     25          1           0       -2.408999    1.301616    1.906525
     26          1           0       -4.342111    1.052653    0.400710
     27          1           0       -3.283713    0.779746   -0.983675
     28          1           0       -3.676677   -1.082450    1.415924
     29          1           0       -3.857330   -1.515148   -0.285752
     30          1           0       -1.488710   -1.934615    1.118007
     31          1           0       -1.945095   -1.346157   -1.811647
     32          1           0       -1.081653   -2.717635   -1.108438
     33          1           0        0.744366   -1.344116   -0.662003
 ---------------------------------------------------------------------

 SCF Done:  E(UB3LYP) =  -632.181928557     A.U. after   30 cycles

 The electronic state is 2-A.
 Alpha  occ. eigenvalues --  -18.99326 -14.26207 -14.25825 -14.19447 -10.17824
 Alpha  occ. eigenvalues --  -10.10394 -10.09571 -10.09173 -10.09138 -10.07547
 Alpha  occ. eigenvalues --  -10.07504 -10.07248 -10.07186 -10.06966  -0.95173
 Alpha  occ. eigenvalues --   -0.90041  -0.82580  -0.74043  -0.73541  -0.65357
 Alpha  occ. eigenvalues --   -0.62260  -0.61869  -0.59036  -0.55237  -0.52815
 Alpha  occ. eigenvalues --   -0.49951  -0.47754  -0.44693  -0.42754  -0.41297
 Alpha  occ. eigenvalues --   -0.38505  -0.38089  -0.37737  -0.35429  -0.34560
 Alpha  occ. eigenvalues --   -0.34024  -0.33577  -0.31142  -0.30893  -0.30106
 Alpha  occ. eigenvalues --   -0.29254  -0.28499  -0.28014  -0.27774  -0.24798
 Alpha  occ. eigenvalues --   -0.24401  -0.23766  -0.23457  -0.22692  -0.22021
 Alpha  occ. eigenvalues --   -0.17034  -0.16414  -0.15438  -0.13427   0.04169
 Alpha virt. eigenvalues --    0.06336   0.07512   0.07561   0.08743   0.08873
 Alpha virt. eigenvalues --    0.09398   0.10265   0.10468   0.10618   0.11453
 Alpha virt. eigenvalues --    0.11509   0.11567   0.12114   0.12574   0.14010

  Beta  occ. eigenvalues --  -18.99325 -14.26192 -14.25814 -14.19444 -10.17819
  Beta  occ. eigenvalues --  -10.10392 -10.09526 -10.09162 -10.09073 -10.07538
  Beta  occ. eigenvalues --  -10.07500 -10.07236 -10.07172 -10.06958  -0.95163
  Beta  occ. eigenvalues --   -0.90023  -0.82568  -0.74009  -0.73521  -0.65335
  Beta  occ. eigenvalues --   -0.62212  -0.61810  -0.59012  -0.55147  -0.52784
  Beta  occ. eigenvalues --   -0.49915  -0.47726  -0.44662  -0.42699  -0.41250
  Beta  occ. eigenvalues --   -0.38466  -0.38072  -0.37667  -0.35381  -0.34539
  Beta  occ. eigenvalues --   -0.34005  -0.33552  -0.31101  -0.30853  -0.30064
  Beta  occ. eigenvalues --   -0.29229  -0.28471  -0.27973  -0.27742  -0.24787
  Beta  occ. eigenvalues --   -0.24384  -0.23745  -0.23435  -0.22669  -0.21988
  Beta  occ. eigenvalues --   -0.17011  -0.16398  -0.15391  -0.13408
  Beta virt. eigenvalues --    0.06436   0.07203   0.07863   0.08203   0.09289
  Beta virt. eigenvalues --    0.09438   0.09794   0.10481   0.10716   0.10922
  Beta virt. eigenvalues --    0.11582   0.11919   0.12076   0.12361   0.13058

 Mulliken charges and spin densities:
               1          2
     1  C    0.709267  -1.091905
     2  N   -0.221530   0.211744
     3  C    1.283440  -1.634797
     4  N   -0.452641   0.138697
     5  C   -0.214679  -0.153751
     6  O   -0.304924   0.000948
     7  C   -0.324831   0.012914
     8  C    0.644324  -0.151619
     9  C   -0.789456   0.116921
    10  C   -0.212057  -0.028687
    11  C    0.115034  -0.717791
    12  C   -0.157733   0.265723
    13  C   -0.115028  -0.387710
    14  N    0.013757  -0.017253
    15  H   -0.366828   0.537509
    16  H   -0.403048   0.534282
    17  H    0.067713   0.091848
    18  H   -0.434887   0.573266
    19  H   -0.584181   0.735756
    20  H   -0.442025   0.615656
    21  H    0.218289   0.069110
    22  H    0.204299   0.046256
    23  H    0.597380  -0.367912
    24  H    0.205961  -0.023207
    25  H   -0.185590   0.325146
    26  H    0.066997   0.094076
    27  H    0.105130   0.002812
    28  H   -0.045718   0.178853
    29  H    0.009693   0.135407
    30  H   -0.463618   0.694414
    31  H    0.156690   0.002048
    32  H   -0.182859   0.360956
    33  H    0.503655  -0.169710
 Sum of Mulliken charges =  -1.00000   1.00000

 Dipole moment (field-independent basis, Debye):
    X=             -5.6698    Y=              2.6389    Z=             -3.5942  Tot=              7.2131
 Quadrupole moment (field-independent basis, Debye-Ang):
   XX=           -152.5953   YY=           -137.3606   ZZ=           -126.5618
   XY=              4.7328   XZ=             -3.7285   YZ=              7.8276

 Summary of Natural Population Analysis:

                                       Natural Population
                Natural  -----------------------------------------------
    Atom  No    Charge         Core      Valence    Rydberg      Total
 -----------------------------------------------------------------------
      C    1   -0.17977      0.99963     2.17182    0.00832     3.17977
      N    2   -0.19081      0.99974     2.67525    0.01583     3.69081
      C    3   -0.17543      0.99963     2.16696    0.00884     3.17543
      N    4   -0.22830      0.99965     2.71657    0.01207     3.72830
      C    5    0.34741      0.99962     1.62970    0.02327     2.65259
      O    6   -0.32360      0.99988     3.31847    0.00525     4.32360
      C    7   -0.04915      0.99953     2.03613    0.01349     3.04915
      C    8   -0.11060      0.99957     2.09978    0.01124     3.11060
      C    9   -0.19397      0.99962     2.18556    0.00880     3.19397
      C   10   -0.19345      0.99964     2.18601    0.00780     3.19345
      C   11   -0.19059      0.99962     2.18204    0.00893     3.19059
      C   12   -0.12008      0.99959     2.10858    0.01191     3.12008
      C   13   -0.08809      0.99962     2.07651    0.01196     3.08809
      N   14   -0.34071      0.99975     2.82971    0.01125     3.84071
      H   15    0.10208      0.00000     0.39620    0.00172     0.39792
      H   16    0.08581      0.00000     0.41240    0.00180     0.41419
      H   17    0.10178      0.00000     0.39701    0.00121     0.39822
      H   18    0.08541      0.00000     0.41194    0.00264     0.41459
      H   19    0.10143      0.00000     0.39659    0.00198     0.39857
      H   20    0.10342      0.00000     0.39320    0.00339     0.39658
      H   21    0.18339      0.00000     0.31423    0.00238     0.31661
      H   22    0.10129      0.00000     0.39718    0.00153     0.39871
      H   23    0.10691      0.00000     0.39122    0.00187     0.39309
      H   24    0.10611      0.00000     0.39305    0.00085     0.39389
      H   25    0.09798      0.00000     0.40101    0.00101     0.40202
      H   26    0.09820      0.00000     0.40099    0.00082     0.40180
      H   27    0.09235      0.00000     0.40648    0.00117     0.40765
      H   28    0.09848      0.00000     0.40028    0.00124     0.40152
      H   29    0.09703      0.00000     0.40219    0.00078     0.40297
      H   30    0.10607      0.00000     0.39181    0.00213     0.39393
      H   31    0.08469      0.00000     0.41403    0.00128     0.41531
      H   32    0.09912      0.00000     0.39996    0.00092     0.40088
      H   33    0.18559      0.00000     0.30986    0.00455     0.31441
 =======================================================================
   * Total *    0.00000     13.99509    39.81270    0.19220    54.00000

 Normal termination of Gaussian 16 at Thu Dec 10 10:16:41 2020.
