 Gaussian 16, Revision A.03,

 -----------------------------------------------------------
 # opt freq B3LYP/6-31G(d) empiricaldispersion=gd3bj scf=xqc
 -----------------------------------------------------------

 -------------------------------
 CID_138753658_JID_6762_neutraal
 -------------------------------
 Symbolic Z-matrix:
 Charge =  0 Multiplicity = 1

 SCF Done:  E(RB3LYP) =  -689.798704498     A.U. after   15 cycles
 SCF Done:  E(RB3LYP) =  -689.804091652     A.U. after   12 cycles
 SCF Done:  E(RB3LYP) =  -689.804710392     A.U. after   12 cycles
 SCF Done:  E(RB3LYP) =  -689.804915921     A.U. after   11 cycles
 SCF Done:  E(RB3LYP) =  -689.805061915     A.U. after   11 cycles
 SCF Done:  E(RB3LYP) =  -689.805154237     A.U. after   11 cycles
 SCF Done:  E(RB3LYP) =  -689.805283995     A.U. after   10 cycles
 SCF Done:  E(RB3LYP) =  -689.806272612     A.U. after   12 cycles
 SCF Done:  E(RB3LYP) =  -689.806054843     A.U. after   11 cycles
 SCF Done:  E(RB3LYP) =  -689.806881415     A.U. after   14 cycles
 SCF Done:  E(RB3LYP) =  -689.807263320     A.U. after   10 cycles
 SCF Done:  E(RB3LYP) =  -689.807271923     A.U. after   10 cycles
 SCF Done:  E(RB3LYP) =  -689.807270744     A.U. after    9 cycles
 SCF Done:  E(RB3LYP) =  -689.807272332     A.U. after    9 cycles
 SCF Done:  E(RB3LYP) =  -689.807272453     A.U. after    7 cycles
 SCF Done:  E(RB3LYP) =  -689.807272462     A.U. after    6 cycles
 Optimization completed.
    -- Stationary point found.
 Normal termination of Gaussian 16 at Fri Dec 11 00:21:25 2020.

 --------------------------------------------------------------------
 #N Geom=AllCheck Guess=TCheck SCRF=Check GenChk RB3LYP/6-31G(d) Freq
 --------------------------------------------------------------------

 Structure from the checkpoint file:  "JID_6762.chk"
 -------------------------------
 CID_138753658_JID_6762_neutraal
 -------------------------------
 Charge =  0 Multiplicity = 1

 SCF Done:  E(RB3LYP) =  -689.807272462     A.U. after    1 cycles

  Exact polarizability: 239.536   2.718 147.374   7.748  -1.970  83.300
 Approx polarizability: 302.771   8.011 256.677  17.901  -4.868 124.281

                      1                      2                      3
                      A                      A                      A
 Frequencies --     22.6885                37.5386                39.3591
 Red. masses --      2.9902                 3.1446                 3.1412
 Frc consts  --      0.0009                 0.0026                 0.0029
 IR Inten    --      0.1601                 0.4307                 0.0783

                      4                      5                      6
                      A                      A                      A
 Frequencies --     60.4166               105.6277               123.4228
 Red. masses --      3.3892                 3.9833                 3.4900
 Frc consts  --      0.0073                 0.0262                 0.0313
 IR Inten    --      0.5480                 1.5410                 4.3035

                      7                      8                      9
                      A                      A                      A
 Frequencies --    129.2484               197.6084               210.8348
 Red. masses --      2.5829                 3.0665                 1.2769
 Frc consts  --      0.0254                 0.0706                 0.0334
 IR Inten    --      1.5754                 3.4487                 0.3299

                     10                     11                     12
                      A                      A                      A
 Frequencies --    232.4548               235.2531               287.4971
 Red. masses --      1.2848                 4.4315                 2.8641
 Frc consts  --      0.0409                 0.1445                 0.1395
 IR Inten    --      0.5610                 0.4998                 1.2858

                     13                     14                     15
                      A                      A                      A
 Frequencies --    312.5426               363.9066               393.5923
 Red. masses --      2.9895                 3.1229                 3.4265
 Frc consts  --      0.1721                 0.2437                 0.3127
 IR Inten    --      4.3181                 2.0923                 1.8274

                     16                     17                     18
                      A                      A                      A
 Frequencies --    399.1695               419.2401               446.3886
 Red. masses --      3.7862                 3.1709                 3.6424
 Frc consts  --      0.3554                 0.3284                 0.4276
 IR Inten    --      2.6839                 0.0433                 1.1539

                     19                     20                     21
                      A                      A                      A
 Frequencies --    479.8822               546.6589               566.1836
 Red. masses --      2.7947                 2.9485                 4.6298
 Frc consts  --      0.3792                 0.5191                 0.8744
 IR Inten    --      1.9323                12.6549                10.0793

                     22                     23                     24
                      A                      A                      A
 Frequencies --    585.6938               606.4932               632.0552
 Red. masses --      3.7079                 3.6130                 4.2658
 Frc consts  --      0.7494                 0.7830                 1.0041
 IR Inten    --      2.0564                 8.9153                 5.4549

                     25                     26                     27
                      A                      A                      A
 Frequencies --    658.3044               742.6930               765.9146
 Red. masses --      6.6049                 4.1240                 4.2196
 Frc consts  --      1.6864                 1.3403                 1.4584
 IR Inten    --      0.2441                 1.3281                13.3403

                     28                     29                     30
                      A                      A                      A
 Frequencies --    799.1492               800.1365               816.2558
 Red. masses --      1.3326                 1.1943                 3.3443
 Frc consts  --      0.5014                 0.4505                 1.3128
 IR Inten    --      1.9978                 0.5883                 6.0817

                     31                     32                     33
                      A                      A                      A
 Frequencies --    852.3435               859.3745               914.5658
 Red. masses --      1.3774                 1.3927                 4.5412
 Frc consts  --      0.5896                 0.6060                 2.2379
 IR Inten    --     17.1144                22.4283                22.7760

                     34                     35                     36
                      A                      A                      A
 Frequencies --    950.2186               967.8903               968.5738
 Red. masses --      2.3422                 1.3100                 4.1134
 Frc consts  --      1.2460                 0.7231                 2.2736
 IR Inten    --      3.6753                 0.2964                 6.6195

                     37                     38                     39
                      A                      A                      A
 Frequencies --    978.1752               981.5525               984.5796
 Red. masses --      1.3302                 2.2533                 2.3175
 Frc consts  --      0.7499                 1.2791                 1.3237
 IR Inten    --      1.1106                 1.1405                 2.1489

                     40                     41                     42
                      A                      A                      A
 Frequencies --   1044.6249              1074.3563              1079.9023
 Red. masses --      2.7406                 1.9652                 1.6542
 Frc consts  --      1.7620                 1.3365                 1.1366
 IR Inten    --      0.7773                 6.6774                 3.0407

                     43                     44                     45
                      A                      A                      A
 Frequencies --   1093.4037              1094.8123              1125.1861
 Red. masses --      1.7490                 1.6811                 3.5252
 Frc consts  --      1.2320                 1.1872                 2.6296
 IR Inten    --     25.4835                 0.1547                43.9685

                     46                     47                     48
                      A                      A                      A
 Frequencies --   1160.2502              1164.7808              1189.3869
 Red. masses --      1.3083                 1.3652                 3.2181
 Frc consts  --      1.0377                 1.0913                 2.6822
 IR Inten    --      4.0320                15.7503                21.1679

                     49                     50                     51
                      A                      A                      A
 Frequencies --   1219.9750              1223.2825              1242.4977
 Red. masses --      1.5401                 1.3958                 2.4600
 Frc consts  --      1.3505                 1.2306                 2.2376
 IR Inten    --     11.8227                 7.5178                 0.4355

                     52                     53                     54
                      A                      A                      A
 Frequencies --   1287.2763              1297.3682              1350.7370
 Red. masses --      1.3621                 1.2744                 2.0823
 Frc consts  --      1.3298                 1.2638                 2.2384
 IR Inten    --      0.0061                 9.2405                67.5058

                     55                     56                     57
                      A                      A                      A
 Frequencies --   1355.6633              1365.2413              1371.4566
 Red. masses --      1.8200                 2.6602                 2.0130
 Frc consts  --      1.9707                 2.9213                 2.2307
 IR Inten    --     14.6998                76.0384                65.4616

                     58                     59                     60
                      A                      A                      A
 Frequencies --   1373.4035              1420.6184              1435.0066
 Red. masses --      1.5170                 3.3093                 1.2207
 Frc consts  --      1.6859                 3.9350                 1.4810
 IR Inten    --      4.9518                78.1562                 2.1777

                     61                     62                     63
                      A                      A                      A
 Frequencies --   1439.3033              1456.2343              1477.1148
 Red. masses --      1.2383                 1.1978                 2.9378
 Frc consts  --      1.5114                 1.4965                 3.7766
 IR Inten    --      4.0511                 4.0819                 2.9982

                     64                     65                     66
                      A                      A                      A
 Frequencies --   1505.3092              1517.6515              1525.7177
 Red. masses --      1.0849                 1.0648                 1.0411
 Frc consts  --      1.4485                 1.4450                 1.4278
 IR Inten    --      3.7761                 0.6711                 7.2737

                     67                     68                     69
                      A                      A                      A
 Frequencies --   1530.1795              1536.3427              1538.1470
 Red. masses --      1.0402                 1.0703                 1.0827
 Frc consts  --      1.4350                 1.4885                 1.5092
 IR Inten    --      6.6580                 4.1853                 2.2261

                     70                     71                     72
                      A                      A                      A
 Frequencies --   1565.9812              1632.7827              1676.1353
 Red. masses --      2.5804                 6.8025                 5.7870
 Frc consts  --      3.7283                10.6851                 9.5791
 IR Inten    --    178.7951                 1.3732                31.3605

                     73                     74                     75
                      A                      A                      A
 Frequencies --   1694.0671              1811.8182              3034.8064
 Red. masses --      9.2679                12.5208                 1.0678
 Frc consts  --     15.6708                24.2165                 5.7944
 IR Inten    --      9.9676               307.0168                25.5046

                     76                     77                     78
                      A                      A                      A
 Frequencies --   3043.2903              3047.2727              3056.2550
 Red. masses --      1.0598                 1.0345                 1.0353
 Frc consts  --      5.7833                 5.6601                 5.6976
 IR Inten    --     38.3366                40.3513                26.8679

                     79                     80                     81
                      A                      A                      A
 Frequencies --   3075.4870              3077.6543              3103.1562
 Red. masses --      1.0613                 1.1038                 1.0957
 Frc consts  --      5.9146                 6.1601                 6.2167
 IR Inten    --      1.1199                10.3944                 1.3679

                     82                     83                     84
                      A                      A                      A
 Frequencies --   3111.8400              3117.0626              3122.2438
 Red. masses --      1.1016                 1.1027                 1.1035
 Frc consts  --      6.2850                 6.3126                 6.3378
 IR Inten    --      1.5818                56.6184                33.7795

                     85                     86                     87
                      A                      A                      A
 Frequencies --   3128.0388              3132.5585              3177.2066
 Red. masses --      1.1015                 1.1036                 1.0896
 Frc consts  --      6.3500                 6.3807                 6.4806
 IR Inten    --     34.9446                30.0890                24.0574

                     88                     89                     90
                      A                      A                      A
 Frequencies --   3179.0942              3250.9840              3270.8287
 Red. masses --      1.0899                 1.0915                 1.0919
 Frc consts  --      6.4900                 6.7966                 6.8828
 IR Inten    --     19.8540                 1.0994                 3.3086

 - Thermochemistry -
 -------------------
 Temperature   298.150 Kelvin.  Pressure   1.00000 Atm.
 Atom     1 has atomic number  6 and mass  12.00000

 Molecular mass:   216.12626 amu.
 Principal axes and moments of inertia in atomic units:
                           1         2         3
     Eigenvalues --  1328.032847648.475798665.72431
           X            0.99997  -0.00580  -0.00525
           Y            0.00580   0.99998   0.00002
           Z            0.00525  -0.00005   0.99999
 This molecule is an asymmetric top.
 Rotational symmetry number  1.
 Warning -- assumption of classical behavior for rotation
           may cause significant error
 Rotational temperatures (Kelvin)      0.06522     0.01132     0.01000
 Rotational constants (GHZ):           1.35896     0.23596     0.20826
 Zero-point vibrational energy     707455.2 (Joules/Mol)
                                  169.08586 (Kcal/Mol)
 Warning -- explicit consideration of  23 degrees of freedom as
           vibrations may cause significant error
 Vibrational temperatures:     32.64    54.01    56.63    86.93   151.97
          (Kelvin)            177.58   185.96   284.31   303.34   334.45
                              338.48   413.64   449.68   523.58   566.29
                              574.32   603.19   642.25   690.44   786.52
                              814.61   842.68   872.61   909.39   947.15
                             1068.57  1101.98  1149.80  1151.22  1174.41
                             1226.33  1236.45  1315.86  1367.15  1392.58
                             1393.56  1407.38  1412.24  1416.59  1502.98
                             1545.76  1553.74  1573.16  1575.19  1618.89
                             1669.34  1675.86  1711.26  1755.27  1760.03
                             1787.68  1852.10  1866.62  1943.41  1950.50
                             1964.28  1973.22  1976.02  2043.95  2064.65
                             2070.84  2095.20  2125.24  2165.80  2183.56
                             2195.17  2201.59  2210.45  2213.05  2253.10
                             2349.21  2411.58  2437.38  2606.80  4366.41
                             4378.62  4384.35  4397.27  4424.94  4428.06
                             4464.75  4477.24  4484.76  4492.21  4500.55
                             4507.05  4571.29  4574.01  4677.44  4705.99

 Zero-point correction=                           0.269455 (Hartree/Particle)
 Thermal correction to Energy=                    0.284753
 Thermal correction to Enthalpy=                  0.285698
 Thermal correction to Gibbs Free Energy=         0.224966
 Sum of electronic and zero-point Energies=           -689.537817
 Sum of electronic and thermal Energies=              -689.522519
 Sum of electronic and thermal Enthalpies=            -689.521575
 Sum of electronic and thermal Free Energies=         -689.582306

                     E (Thermal)             CV                S
                      KCal/Mol        Cal/Mol-Kelvin    Cal/Mol-Kelvin
 Total                  178.685             57.495            127.820
 Electronic               0.000              0.000              0.000
 Translational            0.889              2.981             42.015
 Rotational               0.889              2.981             32.843
 Vibrational            176.908             51.534             52.962
 Vibration     1          0.593              1.985              6.384
 Vibration     2          0.594              1.982              5.385
 Vibration     3          0.594              1.981              5.291
 Vibration     4          0.597              1.973              4.444
 Vibration     5          0.605              1.945              3.348
 Vibration     6          0.610              1.929              3.046
 Vibration     7          0.612              1.924              2.957
 Vibration     8          0.637              1.843              2.155
 Vibration     9          0.643              1.824              2.036
 Vibration    10          0.653              1.791              1.860
 Vibration    11          0.655              1.787              1.838
 Vibration    12          0.685              1.697              1.489
 Vibration    13          0.701              1.650              1.349
 Vibration    14          0.737              1.547              1.105
 Vibration    15          0.761              1.484              0.987
 Vibration    16          0.765              1.472              0.966
 Vibration    17          0.782              1.428              0.895
 Vibration    18          0.806              1.369              0.807
 Vibration    19          0.836              1.295              0.710
 Vibration    20          0.902              1.147              0.551
 Vibration    21          0.922              1.104              0.512
 Vibration    22          0.943              1.062              0.475
 Vibration    23          0.965              1.018              0.439

                           ! Non-Optimized Parameters !
 Normal termination of Gaussian 16 at Fri Dec 11 00:30:09 2020.

 ----------------------------------------------------------------------
 # B3LYP/6-311++G(d,p) empiricaldispersion=gd3bj scf=xqc pop=npa geom=c
 heck
 ----------------------------------------------------------------------

 ---------------------------------------
 CID_138753658_JID_6762_Energie_neutraal
 ---------------------------------------
 Structure from the checkpoint file:  "JID_6762.chk"
 Charge =  0 Multiplicity = 1

 SCF Done:  E(RB3LYP) =  -689.990101591     A.U. after   15 cycles
 Normal termination of Gaussian 16 at Fri Dec 11 00:33:58 2020.

 ----------------------------------------------------------------------
 # B3LYP/6-311++G(d,p) empiricaldispersion=gd3bj scf=xqc pop=npa geom=c
 heck
 ----------------------------------------------------------------------

 -------------------------------------
 CID_138753658_JID_6762_Energie_kation
 -------------------------------------
 Structure from the checkpoint file:  "JID_6762.chk"
 Charge =  1 Multiplicity = 2

 SCF Done:  E(UB3LYP) =  -689.714547726     A.U. after   20 cycles
 Normal termination of Gaussian 16 at Fri Dec 11 00:40:56 2020.
 Gaussian 16:  ES64L-G16RevA.03 25-Dec-2016

 ----------------------------------------------------------------------
 # B3LYP/6-311++G(d,p) empiricaldispersion=gd3bj scf=xqc pop=npa geom=c
 heck
 ----------------------------------------------------------------------

 ------------------------------------
 CID_138753658_JID_6762_Energie_anion
 ------------------------------------
 Structure from the checkpoint file:  "JID_6762.chk"
 Charge = -1 Multiplicity = 2

                         Standard orientation:
 ---------------------------------------------------------------------
 Center     Atomic      Atomic             Coordinates (Angstroms)
 Number     Number       Type             X           Y           Z
 ---------------------------------------------------------------------
      1          6           0        5.110691   -1.291526   -0.661502
      2          6           0        4.094511   -1.361143    0.490937
      3          6           0        2.970662   -0.387882    0.331649
      4          7           0        1.750917   -0.780624    0.209122
      5          7           0        0.927855    0.345273    0.068638
      6          6           0        1.643701    1.538567    0.101943
      7          8           0        1.207163    2.671182    0.007557
      8          6           0        3.097245    1.106288    0.280738
      9          6           0       -0.467429    0.150086   -0.079052
     10          6           0       -1.336573    1.239924   -0.228672
     11          6           0       -2.701947    1.008104   -0.374947
     12          6           0       -3.238632   -0.283496   -0.378263
     13          6           0       -2.350584   -1.354482   -0.228683
     14          6           0       -0.982037   -1.153047   -0.080604
     15          6           0       -4.728361   -0.511659   -0.482992
     16          6           0       -5.414468   -0.523313    0.893127
     17          1           0        4.626993   -1.505888   -1.620251
     18          1           0        5.910000   -2.024003   -0.511100
     19          1           0        5.574331   -0.301107   -0.728833
     20          1           0        3.663528   -2.364895    0.560735
     21          1           0        4.611105   -1.160339    1.440238
     22          1           0        3.520378    1.536778    1.195911
     23          1           0        3.708303    1.464267   -0.555613
     24          1           0       -0.941878    2.245788   -0.232765
     25          1           0       -3.366382    1.861196   -0.492539
     26          1           0       -2.735673   -2.371765   -0.230264
     27          1           0       -0.306770   -1.991249    0.029707
     28          1           0       -5.178713    0.271818   -1.105152
     29          1           0       -4.920974   -1.464658   -0.991522
     30          1           0       -5.259494    0.429218    1.411839
     31          1           0       -6.493505   -0.689738    0.796403
     32          1           0       -5.000615   -1.315947    1.526368
 ---------------------------------------------------------------------

 SCF Done:  E(UB3LYP) =  -689.985142547     A.U. after   31 cycles

 The electronic state is 2-A.
 Alpha  occ. eigenvalues --  -18.98359 -14.27097 -14.22198 -10.15846 -10.11746
 Alpha  occ. eigenvalues --  -10.09581 -10.08476 -10.07828 -10.07798 -10.07643
 Alpha  occ. eigenvalues --  -10.07490 -10.07381 -10.07335 -10.07025 -10.06731
 Alpha  occ. eigenvalues --  -10.06541  -0.94896  -0.90195  -0.77720  -0.74098
 Alpha  occ. eigenvalues --   -0.69155  -0.66660  -0.65637  -0.64686  -0.61891
 Alpha  occ. eigenvalues --   -0.55438  -0.54301  -0.51962  -0.49824  -0.47154
 Alpha  occ. eigenvalues --   -0.44608  -0.40351  -0.38165  -0.37913  -0.37648
 Alpha  occ. eigenvalues --   -0.35268  -0.34535  -0.34224  -0.33378  -0.32866
 Alpha  occ. eigenvalues --   -0.31816  -0.31466  -0.30833  -0.30335  -0.29081
 Alpha  occ. eigenvalues --   -0.28555  -0.26473  -0.26105  -0.25628  -0.24981
 Alpha  occ. eigenvalues --   -0.24940  -0.24254  -0.24108  -0.19479  -0.17069
 Alpha  occ. eigenvalues --   -0.15717  -0.14396  -0.10685   0.04104
 Alpha virt. eigenvalues --    0.05318   0.06879   0.07872   0.07946   0.08305
 Alpha virt. eigenvalues --    0.08381   0.08753   0.08874   0.09341   0.10158
 Alpha virt. eigenvalues --    0.11250   0.11657   0.11821   0.11965   0.12329

  Beta  occ. eigenvalues --  -18.98208 -14.27159 -14.21994 -10.15669 -10.11732
  Beta  occ. eigenvalues --  -10.09425 -10.08469 -10.07826 -10.07822 -10.07623
  Beta  occ. eigenvalues --  -10.07490 -10.07346 -10.07330 -10.07038 -10.06715
  Beta  occ. eigenvalues --  -10.06494  -0.94657  -0.89952  -0.77637  -0.74010
  Beta  occ. eigenvalues --   -0.69097  -0.66521  -0.65463  -0.64606  -0.61834
  Beta  occ. eigenvalues --   -0.55346  -0.54179  -0.51918  -0.49751  -0.47060
  Beta  occ. eigenvalues --   -0.44506  -0.40182  -0.38023  -0.37750  -0.37361
  Beta  occ. eigenvalues --   -0.35162  -0.34396  -0.34121  -0.33326  -0.32804
  Beta  occ. eigenvalues --   -0.31781  -0.31384  -0.30684  -0.30183  -0.29011
  Beta  occ. eigenvalues --   -0.28328  -0.26446  -0.25994  -0.25287  -0.24933
  Beta  occ. eigenvalues --   -0.24843  -0.24219  -0.23491  -0.19226  -0.16639
  Beta  occ. eigenvalues --   -0.15631  -0.14259  -0.10333
  Beta virt. eigenvalues --    0.05775   0.06976   0.07932   0.07996   0.08097
  Beta virt. eigenvalues --    0.08422   0.08701   0.09149   0.09229   0.09956
  Beta virt. eigenvalues --    0.10560   0.11286   0.11699   0.11893   0.12302

 Mulliken charges and spin densities:
               1          2
     1  C    0.616969  -1.123518
     2  C   -1.300947   1.025579
     3  C    0.786555  -0.501298
     4  N    0.041791   0.165508
     5  N    0.107078  -0.045733
     6  C    0.392195   0.147901
     7  O   -0.385169   0.060354
     8  C   -0.128869  -0.852982
     9  C    0.177621  -0.520323
    10  C    0.011086  -0.017944
    11  C   -0.545277   0.064655
    12  C    0.575261   0.329890
    13  C   -0.606338   0.133512
    14  C   -0.041270  -0.250052
    15  C   -0.500644   0.200585
    16  C    0.125771  -0.732148
    17  H    0.028197   0.108238
    18  H   -0.573951   0.731970
    19  H   -0.017677   0.151122
    20  H    0.037118   0.097799
    21  H   -0.304503   0.461701
    22  H   -0.227982   0.456986
    23  H    0.274901  -0.085490
    24  H    0.212535   0.033238
    25  H    0.133467   0.019475
    26  H    0.101476   0.048995
    27  H    0.164740   0.066835
    28  H    0.007209   0.132687
    29  H   -0.049483   0.191891
    30  H    0.046462   0.090608
    31  H   -0.217353   0.331725
    32  H    0.059031   0.078235
 Sum of Mulliken charges =  -1.00000   1.00000

 Dipole moment (field-independent basis, Debye):
    X=             -5.1826    Y=              0.3495    Z=             -1.8647  Tot=              5.5189
 Quadrupole moment (field-independent basis, Debye-Ang):
   XX=           -210.2435   YY=           -130.4863   ZZ=           -117.3258
   XY=              6.9018   XZ=             -6.9817   YZ=             -1.2906

 Summary of Natural Population Analysis:

                                       Natural Population
                Natural  -----------------------------------------------
    Atom  No    Charge         Core      Valence    Rydberg      Total
 -----------------------------------------------------------------------
      C    1   -0.28069      0.99966     2.27565    0.00538     3.28069
      C    2   -0.21122      0.99960     2.20174    0.00988     3.21122
      C    3    0.15277      0.99962     1.83286    0.01475     2.84723
      N    4   -0.12118      0.99964     2.61090    0.01064     3.62118
      N    5   -0.16585      0.99959     2.65618    0.01008     3.66585
      C    6    0.36579      0.99968     1.61247    0.02206     2.63421
      O    7   -0.30209      0.99987     3.29684    0.00538     4.30209
      C    8   -0.26385      0.99957     2.25696    0.00732     3.26385
      C    9    0.08565      0.99948     1.90452    0.01034     2.91435
      C   10   -0.11291      0.99953     2.10476    0.00862     3.11291
      C   11   -0.09816      0.99952     2.09011    0.00853     3.09816
      C   12   -0.03059      0.99950     2.02171    0.00938     3.03059
      C   13   -0.09300      0.99952     2.08487    0.00862     3.09300
      C   14   -0.11408      0.99954     2.10614    0.00841     3.11408
      C   15   -0.19770      0.99961     2.18803    0.01006     3.19770
      C   16   -0.28179      0.99966     2.27689    0.00524     3.28179
      H   17    0.09620      0.00000     0.40288    0.00092     0.40380
      H   18    0.10185      0.00000     0.39606    0.00209     0.39815
      H   19    0.09519      0.00000     0.40388    0.00092     0.40481
      H   20    0.10527      0.00000     0.39345    0.00128     0.39473
      H   21    0.10612      0.00000     0.39024    0.00365     0.39388
      H   22    0.12640      0.00000     0.37121    0.00239     0.37360
      H   23    0.12088      0.00000     0.37806    0.00106     0.37912
      H   24    0.12250      0.00000     0.37633    0.00117     0.37750
      H   25    0.09634      0.00000     0.40273    0.00093     0.40366
      H   26    0.09623      0.00000     0.40283    0.00093     0.40377
      H   27    0.11669      0.00000     0.38223    0.00107     0.38331
      H   28    0.09716      0.00000     0.40178    0.00106     0.40284
      H   29    0.09775      0.00000     0.40113    0.00113     0.40225
      H   30    0.09735      0.00000     0.40177    0.00088     0.40265
      H   31    0.09569      0.00000     0.40294    0.00137     0.40431
      H   32    0.09729      0.00000     0.40181    0.00090     0.40271
 =======================================================================
   * Total *   -0.00000     15.99361    41.82995    0.17644    58.00000

 Normal termination of Gaussian 16 at Fri Dec 11 00:51:29 2020.
