 Gaussian 16, Revision A.03,

 -----------------------------------------------------------
 # opt freq B3LYP/6-31G(d) empiricaldispersion=gd3bj scf=xqc
 -----------------------------------------------------------

 ------------------------------
 CID_58432861_JID_7405_neutraal
 ------------------------------
 Symbolic Z-matrix:
 Charge =  0 Multiplicity = 1

 SCF Done:  E(RB3LYP) =  -1049.67914626     A.U. after   15 cycles
 SCF Done:  E(RB3LYP) =  -1049.68243457     A.U. after   13 cycles
 SCF Done:  E(RB3LYP) =  -1049.68331397     A.U. after   13 cycles
 SCF Done:  E(RB3LYP) =  -1049.68388912     A.U. after   13 cycles
 SCF Done:  E(RB3LYP) =  -1049.68419065     A.U. after   12 cycles
 SCF Done:  E(RB3LYP) =  -1049.68434995     A.U. after   12 cycles
 SCF Done:  E(RB3LYP) =  -1049.68439307     A.U. after   12 cycles
 SCF Done:  E(RB3LYP) =  -1049.68443057     A.U. after   12 cycles
 SCF Done:  E(RB3LYP) =  -1049.68445676     A.U. after   12 cycles
 SCF Done:  E(RB3LYP) =  -1049.68446112     A.U. after   11 cycles
 SCF Done:  E(RB3LYP) =  -1049.68457643     A.U. after   11 cycles
 SCF Done:  E(RB3LYP) =  -1049.68458686     A.U. after   11 cycles
 SCF Done:  E(RB3LYP) =  -1049.68459031     A.U. after   10 cycles
 SCF Done:  E(RB3LYP) =  -1049.68459082     A.U. after   10 cycles
 SCF Done:  E(RB3LYP) =  -1049.68459084     A.U. after    8 cycles
 SCF Done:  E(RB3LYP) =  -1049.68459085     A.U. after    7 cycles
 Optimization completed.
    -- Stationary point found.
 Normal termination of Gaussian 16 at Sun Dec 13 16:17:09 2020.

 --------------------------------------------------------------------
 #N Geom=AllCheck Guess=TCheck SCRF=Check GenChk RB3LYP/6-31G(d) Freq
 --------------------------------------------------------------------

 Structure from the checkpoint file:  "JID_7405.chk"
 ------------------------------
 CID_58432861_JID_7405_neutraal
 ------------------------------
 Charge =  0 Multiplicity = 1

 SCF Done:  E(RB3LYP) =  -1049.68459085     A.U. after    1 cycles

  Exact polarizability: 295.127 -16.522 169.623   0.001   0.001  86.901
 Approx polarizability: 419.663 -45.291 308.440   0.002   0.001 132.795

                      1                      2                      3
                      A                      A                      A
 Frequencies --     11.4442                23.8477                50.6703
 Red. masses --      3.0000                 4.0057                 9.6105
 Frc consts  --      0.0002                 0.0013                 0.0145
 IR Inten    --      0.1788                 0.1136                 0.4273

                      4                      5                      6
                      A                      A                      A
 Frequencies --     74.1153               112.9857               146.3428
 Red. masses --      5.5482                 4.6333                 6.4003
 Frc consts  --      0.0180                 0.0348                 0.0808
 IR Inten    --      1.0781                 4.6211                 3.7547

                      7                      8                      9
                      A                      A                      A
 Frequencies --    169.3258               219.7475               235.6310
 Red. masses --      5.1695                 4.0235                 1.0348
 Frc consts  --      0.0873                 0.1145                 0.0339
 IR Inten    --      1.7039                 3.8907                 0.0041

                     10                     11                     12
                      A                      A                      A
 Frequencies --    245.3941               279.9965               285.4998
 Red. masses --      4.6109                 6.8414                 1.1106
 Frc consts  --      0.1636                 0.3160                 0.0533
 IR Inten    --      0.3295                 0.1347                 0.0447

                     13                     14                     15
                      A                      A                      A
 Frequencies --    292.7412               299.2523               319.4118
 Red. masses --      1.0524                 3.4799                 2.9714
 Frc consts  --      0.0531                 0.1836                 0.1786
 IR Inten    --      0.0043                 0.8892                 1.3592

                     16                     17                     18
                      A                      A                      A
 Frequencies --    334.3698               398.9745               409.8078
 Red. masses --      3.6651                 2.7667                 3.0308
 Frc consts  --      0.2414                 0.2595                 0.2999
 IR Inten    --      0.3828                 0.4486                 0.0072

                     19                     20                     21
                      A                      A                      A
 Frequencies --    415.7060               462.3806               468.7935
 Red. masses --      3.2124                 5.6263                 4.3867
 Frc consts  --      0.3271                 0.7087                 0.5680
 IR Inten    --      1.3093                 0.6303                 0.3855

                     22                     23                     24
                      A                      A                      A
 Frequencies --    540.7141               561.3047               566.2272
 Red. masses --      8.6934                 4.9304                 3.8967
 Frc consts  --      1.4975                 0.9152                 0.7361
 IR Inten    --      6.7723                 0.2413                 9.9297

                     25                     26                     27
                      A                      A                      A
 Frequencies --    572.6151               620.9847               663.1076
 Red. masses --      4.3730                 3.8306                 7.3384
 Frc consts  --      0.8448                 0.8703                 1.9012
 IR Inten    --      0.9229                 0.6002                 0.3521

                     28                     29                     30
                      A                      A                      A
 Frequencies --    688.2991               701.8295               726.3882
 Red. masses --      8.2937                 5.8801                 1.6235
 Frc consts  --      2.3150                 1.7065                 0.5047
 IR Inten    --      9.3520                 3.5866                18.9789

                     31                     32                     33
                      A                      A                      A
 Frequencies --    770.6860               783.2343               824.7011
 Red. masses --      2.7035                 7.2505                 3.2112
 Frc consts  --      0.9461                 2.6206                 1.2868
 IR Inten    --     22.2532                 5.1360                 0.3480

                     34                     35                     36
                      A                      A                      A
 Frequencies --    845.3369               866.5409               873.3708
 Red. masses --      1.4047                 4.5309                 1.5312
 Frc consts  --      0.5914                 2.0045                 0.6882
 IR Inten    --     10.6925                19.5194                20.4130

                     37                     38                     39
                      A                      A                      A
 Frequencies --    926.0768               945.9378               957.5603
 Red. masses --      5.9772                 1.7899                 1.6638
 Frc consts  --      3.0202                 0.9436                 0.8988
 IR Inten    --      3.0405                 0.7547                 2.8499

                     40                     41                     42
                      A                      A                      A
 Frequencies --    962.1055               981.2597               995.4261
 Red. masses --      1.3226                 1.1996                 1.3149
 Frc consts  --      0.7213                 0.6805                 0.7676
 IR Inten    --      0.1808                 0.0358                 0.1653

                     43                     44                     45
                      A                      A                      A
 Frequencies --   1040.8216              1046.7159              1061.4802
 Red. masses --      2.9429                 1.8344                 1.3890
 Frc consts  --      1.8784                 1.1841                 0.9221
 IR Inten    --      3.1328                24.3259                 0.0014

                     46                     47                     48
                      A                      A                      A
 Frequencies --   1089.4848              1095.0576              1149.0428
 Red. masses --      2.4879                 2.0126                 1.3979
 Frc consts  --      1.7399                 1.4219                 1.0874
 IR Inten    --     50.6211                14.5193                 6.5651

                     49                     50                     51
                      A                      A                      A
 Frequencies --   1213.9045              1236.5723              1240.8599
 Red. masses --      1.3698                 2.3970                 2.6475
 Frc consts  --      1.1893                 2.1595                 2.4017
 IR Inten    --      3.5895                 4.3578                 2.9219

                     52                     53                     54
                      A                      A                      A
 Frequencies --   1246.5375              1267.6495              1294.5690
 Red. masses --      1.9460                 2.8686                 3.0534
 Frc consts  --      1.7815                 2.7159                 3.0149
 IR Inten    --      1.1711                 7.8492                19.0439

                     55                     56                     57
                      A                      A                      A
 Frequencies --   1324.2366              1344.0749              1368.6316
 Red. masses --      3.5822                 2.1259                 3.4576
 Frc consts  --      3.7011                 2.2627                 3.8159
 IR Inten    --     22.1212                 3.9388                11.9299

                     58                     59                     60
                      A                      A                      A
 Frequencies --   1421.3354              1426.5493              1455.6483
 Red. masses --      1.2110                 1.2260                 1.2472
 Frc consts  --      1.4414                 1.4700                 1.5570
 IR Inten    --      4.9498                13.6831                 2.7174

                     61                     62                     63
                      A                      A                      A
 Frequencies --   1460.4548              1507.4297              1518.7722
 Red. masses --      3.0209                 1.0476                 1.0647
 Frc consts  --      3.7963                 1.4026                 1.4469
 IR Inten    --      9.5086                 0.0074                 3.2034

                     64                     65                     66
                      A                      A                      A
 Frequencies --   1519.8553              1522.5459              1529.8360
 Red. masses --      1.0457                 3.2132                 1.0698
 Frc consts  --      1.4232                 4.3886                 1.4752
 IR Inten    --      0.1683                 3.4088                 5.5722

                     67                     68                     69
                      A                      A                      A
 Frequencies --   1535.0438              1544.7743              1566.9814
 Red. masses --      1.0478                 1.4173                 3.0485
 Frc consts  --      1.4546                 1.9927                 4.4102
 IR Inten    --      8.1436                10.9587                23.2334

                     70                     71                     72
                      A                      A                      A
 Frequencies --   1576.1264              1613.2760              1669.9964
 Red. masses --      3.4716                 6.9266                 5.6337
 Frc consts  --      5.0812                10.6215                 9.2571
 IR Inten    --     30.9781                 0.0144                62.7926

                     73                     74                     75
                      A                      A                      A
 Frequencies --   2347.3626              3048.6835              3051.4195
 Red. masses --     12.6792                 1.0352                 1.0352
 Frc consts  --     41.1624                 5.6688                 5.6789
 IR Inten    --     65.5552                14.2278                25.9945

                     76                     77                     78
                      A                      A                      A
 Frequencies --   3057.1011              3115.7659              3119.5048
 Red. masses --      1.0364                 1.1033                 1.1027
 Frc consts  --      5.7070                 6.3105                 6.3222
 IR Inten    --     24.1252                 2.2748                 8.5112

                     79                     80                     81
                      A                      A                      A
 Frequencies --   3119.6179              3126.3239              3143.2213
 Red. masses --      1.1028                 1.1015                 1.1022
 Frc consts  --      6.3232                 6.3430                 6.4161
 IR Inten    --     34.4370                65.0781                 2.3993

                     82                     83                     84
                      A                      A                      A
 Frequencies --   3147.1474              3204.7850              3216.2481
 Red. masses --      1.1014                 1.0877                 1.0902
 Frc consts  --      6.4273                 6.5818                 6.6445
 IR Inten    --     31.1390                 7.6415                 3.9220

                     85                     86                     87
                      A                      A                      A
 Frequencies --   3223.4923              3241.2507              3282.3497
 Red. masses --      1.0949                 1.0929                 1.0938
 Frc consts  --      6.7028                 6.7647                 6.9433
 IR Inten    --      7.0680                 0.9662                 2.2901

 - Thermochemistry -
 -------------------
 Temperature   298.150 Kelvin.  Pressure   1.00000 Atm.
 Atom     1 has atomic number  6 and mass  12.00000

 Molecular mass:   242.08777 amu.
 Principal axes and moments of inertia in atomic units:
                           1         2         3
     Eigenvalues --  1556.999919840.60284**********
           X            0.99984   0.01803   0.00000
           Y           -0.01803   0.99984   0.00000
           Z           -0.00000  -0.00000   1.00000
 This molecule is an asymmetric top.
 Rotational symmetry number  1.
 Warning -- assumption of classical behavior for rotation
           may cause significant error
 Rotational temperatures (Kelvin)      0.05563     0.00880     0.00788
 Rotational constants (GHZ):           1.15911     0.18340     0.16409
 Zero-point vibrational energy     651741.6 (Joules/Mol)
                                  155.76997 (Kcal/Mol)
 Warning -- explicit consideration of  25 degrees of freedom as
           vibrations may cause significant error
 Vibrational temperatures:     16.47    34.31    72.90   106.64   162.56
          (Kelvin)            210.55   243.62   316.17   339.02   353.07
                              402.85   410.77   421.19   430.56   459.56
                              481.08   574.04   589.62   598.11   665.26
                              674.49   777.97   807.59   814.67   823.87
                              893.46   954.06   990.31  1009.78  1045.11
                             1108.85  1126.90  1186.56  1216.25  1246.76
                             1256.59  1332.42  1360.99  1377.72  1384.26
                             1411.81  1432.20  1497.51  1505.99  1527.23
                             1567.53  1575.54  1653.22  1746.54  1779.15
                             1785.32  1793.49  1823.86  1862.60  1905.28
                             1933.82  1969.16  2044.98  2052.49  2094.35
                             2101.27  2168.86  2185.17  2186.73  2190.60
                             2201.09  2208.59  2222.59  2254.54  2267.69
                             2321.14  2402.75  3377.33  4386.38  4390.31
                             4398.49  4482.89  4488.27  4488.43  4498.08
                             4522.39  4528.04  4610.97  4627.46  4637.89
                             4663.44  4722.57

 Zero-point correction=                           0.248235 (Hartree/Particle)
 Thermal correction to Energy=                    0.264285
 Thermal correction to Enthalpy=                  0.265229
 Thermal correction to Gibbs Free Energy=         0.202605
 Sum of electronic and zero-point Energies=          -1049.436356
 Sum of electronic and thermal Energies=             -1049.420306
 Sum of electronic and thermal Enthalpies=           -1049.419362
 Sum of electronic and thermal Free Energies=        -1049.481986

                     E (Thermal)             CV                S
                      KCal/Mol        Cal/Mol-Kelvin    Cal/Mol-Kelvin
 Total                  165.841             61.283            131.804
 Electronic               0.000              0.000              0.000
 Translational            0.889              2.981             42.353
 Rotational               0.889              2.981             33.488
 Vibrational            164.064             55.322             55.963
 Vibration     1          0.593              1.987              7.743
 Vibration     2          0.593              1.985              6.285
 Vibration     3          0.595              1.977              4.791
 Vibration     4          0.599              1.966              4.041
 Vibration     5          0.607              1.939              3.217
 Vibration     6          0.617              1.907              2.719
 Vibration     7          0.625              1.880              2.443
 Vibration     8          0.647              1.811              1.961
 Vibration     9          0.655              1.786              1.836
 Vibration    10          0.660              1.770              1.763
 Vibration    11          0.680              1.711              1.534
 Vibration    12          0.683              1.701              1.500
 Vibration    13          0.688              1.687              1.458
 Vibration    14          0.692              1.675              1.421
 Vibration    15          0.705              1.636              1.313
 Vibration    16          0.716              1.607              1.239
 Vibration    17          0.765              1.472              0.966
 Vibration    18          0.774              1.449              0.927
 Vibration    19          0.779              1.436              0.907
 Vibration    20          0.820              1.333              0.759
 Vibration    21          0.826              1.319              0.741
 Vibration    22          0.896              1.160              0.564
 Vibration    23          0.917              1.115              0.521
 Vibration    24          0.922              1.104              0.512
 Vibration    25          0.929              1.090              0.499

 Optimization completed.
    -- Stationary point found.
 Normal termination of Gaussian 16 at Sun Dec 13 16:26:56 2020.

 ----------------------------------------------------------------------
 # B3LYP/6-311++G(d,p) empiricaldispersion=gd3bj scf=xqc pop=npa geom=c
 heck
 ----------------------------------------------------------------------

 --------------------------------------
 CID_58432861_JID_7405_Energie_neutraal
 --------------------------------------
 Structure from the checkpoint file:  "JID_7405.chk"
 Charge =  0 Multiplicity = 1

 SCF Done:  E(RB3LYP) =  -1049.87728957     A.U. after   17 cycles
 Normal termination of Gaussian 16 at Sun Dec 13 16:32:45 2020.

 ----------------------------------------------------------------------
 # B3LYP/6-311++G(d,p) empiricaldispersion=gd3bj scf=xqc pop=npa geom=c
 heck
 ----------------------------------------------------------------------

 ------------------------------------
 CID_58432861_JID_7405_Energie_kation
 ------------------------------------
 Structure from the checkpoint file:  "JID_7405.chk"
 Charge =  1 Multiplicity = 2

 SCF Done:  E(UB3LYP) =  -1049.57990119     A.U. after   23 cycles
 Normal termination of Gaussian 16 at Sun Dec 13 16:44:00 2020.
 Gaussian 16:  ES64L-G16RevA.03 25-Dec-2016

 ----------------------------------------------------------------------
 # B3LYP/6-311++G(d,p) empiricaldispersion=gd3bj scf=xqc pop=npa geom=c
 heck
 ----------------------------------------------------------------------

 -----------------------------------
 CID_58432861_JID_7405_Energie_anion
 -----------------------------------
 Structure from the checkpoint file:  "JID_7405.chk"
 Charge = -1 Multiplicity = 2

                         Standard orientation:
 ---------------------------------------------------------------------
 Center     Atomic      Atomic             Coordinates (Angstroms)
 Number     Number       Type             X           Y           Z
 ---------------------------------------------------------------------
      1          6           0       -4.755775   -0.084736    0.000429
      2          6           0       -3.432486   -0.864321    0.000029
      3          6           0       -3.348165   -1.749052    1.261497
      4          6           0       -3.348555   -1.748390   -1.261935
      5          6           0       -2.235589    0.067631    0.000059
      6          7           0       -1.004324   -0.346159    0.000058
      7          6           0       -0.089653    0.692419   -0.000009
      8          6           0       -0.658319    1.942917   -0.000069
      9         16           0       -2.381925    1.828868   -0.000026
     10          6           0        1.346845    0.378017    0.000004
     11          6           0        1.762421   -0.964129   -0.000063
     12          6           0        3.111178   -1.291850   -0.000062
     13          6           0        4.081640   -0.277135    0.000003
     14          6           0        3.676450    1.068375    0.000078
     15          6           0        2.326317    1.385771    0.000083
     16          6           0        5.473711   -0.608558   -0.000004
     17          7           0        6.605829   -0.877139   -0.000011
     18          1           0       -5.596897   -0.785472    0.000428
     19          1           0       -4.850724    0.549170   -0.888476
     20          1           0       -4.850396    0.548811    0.889621
     21          1           0       -4.173156   -2.470340    1.269135
     22          1           0       -2.401631   -2.295476    1.283237
     23          1           0       -3.414171   -1.141716    2.170818
     24          1           0       -3.414820   -1.140578   -2.170922
     25          1           0       -2.402039   -2.294829   -1.284238
     26          1           0       -4.173560   -2.469662   -1.269710
     27          1           0       -0.171472    2.907063   -0.000132
     28          1           0        1.006643   -1.740318   -0.000109
     29          1           0        3.423771   -2.330762   -0.000110
     30          1           0        4.425538    1.853008    0.000141
     31          1           0        2.033051    2.430526    0.000170
 ---------------------------------------------------------------------

 SCF Done:  E(UB3LYP) =  -1049.90095150     A.U. after   22 cycles

 The electronic state is 2-A.
 Alpha  occ. eigenvalues --  -88.75465 -14.19141 -14.16252 -10.11557 -10.10808
 Alpha  occ. eigenvalues --  -10.08146 -10.07443 -10.07443 -10.07308 -10.06527
 Alpha  occ. eigenvalues --  -10.05486 -10.05330 -10.05017 -10.04211 -10.03904
 Alpha  occ. eigenvalues --  -10.03837 -10.03577  -7.84121  -5.80390  -5.80042
 Alpha  occ. eigenvalues --   -5.79766  -0.84390  -0.76627  -0.73790  -0.72556
 Alpha  occ. eigenvalues --   -0.67478  -0.65317  -0.61858  -0.60660  -0.60239
 Alpha  occ. eigenvalues --   -0.59674  -0.51668  -0.50182  -0.47700  -0.44649
 Alpha  occ. eigenvalues --   -0.41559  -0.41088  -0.38518  -0.36044  -0.35983
 Alpha  occ. eigenvalues --   -0.34930  -0.32390  -0.32197  -0.31712  -0.30991
 Alpha  occ. eigenvalues --   -0.29521  -0.28905  -0.28660  -0.28327  -0.26856
 Alpha  occ. eigenvalues --   -0.26059  -0.25336  -0.25064  -0.24739  -0.23286
 Alpha  occ. eigenvalues --   -0.22293  -0.21732  -0.21267  -0.19232  -0.16895
 Alpha  occ. eigenvalues --   -0.15642  -0.14950  -0.13175  -0.09677   0.03050
 Alpha virt. eigenvalues --    0.06070   0.08278   0.08458   0.08709   0.08964
 Alpha virt. eigenvalues --    0.09660   0.10307   0.10874   0.11052   0.11870
 Alpha virt. eigenvalues --    0.11936   0.12498   0.12828   0.13170   0.13632

  Beta  occ. eigenvalues --  -88.75422 -14.19166 -14.16020 -10.11535 -10.10810
  Beta  occ. eigenvalues --  -10.08144 -10.07441 -10.07441 -10.07304 -10.06546
  Beta  occ. eigenvalues --  -10.05071 -10.05056 -10.05011 -10.04089 -10.03829
  Beta  occ. eigenvalues --  -10.03603 -10.03527  -7.84082  -5.80372  -5.80027
  Beta  occ. eigenvalues --   -5.79617  -0.84327  -0.76276  -0.73706  -0.72254
  Beta  occ. eigenvalues --   -0.67120  -0.64801  -0.61582  -0.60632  -0.60236
  Beta  occ. eigenvalues --   -0.59337  -0.51348  -0.49675  -0.47570  -0.44340
  Beta  occ. eigenvalues --   -0.41390  -0.41027  -0.38374  -0.36028  -0.35828
  Beta  occ. eigenvalues --   -0.34827  -0.32210  -0.32079  -0.31639  -0.30919
  Beta  occ. eigenvalues --   -0.29465  -0.28797  -0.28522  -0.27996  -0.26670
  Beta  occ. eigenvalues --   -0.25392  -0.25231  -0.24704  -0.24614  -0.22969
  Beta  occ. eigenvalues --   -0.22106  -0.21499  -0.20278  -0.19106  -0.16116
  Beta  occ. eigenvalues --   -0.15617  -0.13623  -0.12381  -0.08030
  Beta virt. eigenvalues --    0.06044   0.08244   0.08257   0.08665   0.08678
  Beta virt. eigenvalues --    0.09621   0.09623   0.10271   0.10829   0.11112
  Beta virt. eigenvalues --    0.11827   0.12305   0.12466   0.12801   0.13233

 Mulliken charges and spin densities:
               1          2
     1  C   -0.682515  -0.011244
     2  C    1.220763   0.005300
     3  C   -0.590964   0.003409
     4  C   -0.590907   0.003418
     5  C   -0.046746   0.013905
     6  N    0.319711  -0.008974
     7  C   -1.117531  -0.053974
     8  C    0.630909   0.338231
     9  S   -0.786146   0.059097
    10  C    1.016339   0.165037
    11  C   -0.268197   0.018721
    12  C   -0.832752   0.128627
    13  C    2.138259   0.187475
    14  C   -0.863180   0.022230
    15  C   -0.422995   0.098401
    16  C   -1.837071  -0.077126
    17  N   -0.299683   0.123655
    18  H    0.144845  -0.000427
    19  H    0.131179   0.005684
    20  H    0.131217   0.005673
    21  H    0.129441   0.000339
    22  H    0.160914   0.002368
    23  H    0.149510  -0.000076
    24  H    0.149521  -0.000079
    25  H    0.160925   0.002365
    26  H    0.129446   0.000338
    27  H    0.291018  -0.019237
    28  H    0.107539   0.001857
    29  H    0.153148  -0.007537
    30  H    0.158613   0.000358
    31  H    0.015393  -0.007816
 Sum of Mulliken charges =  -1.00000   1.00000

 Dipole moment (field-independent basis, Debye):
    X=            -13.0182    Y=              0.4144    Z=             -0.0000  Tot=             13.0248
 Quadrupole moment (field-independent basis, Debye-Ang):
   XX=           -216.7565   YY=           -118.1251   ZZ=           -119.3010
   XY=             16.2264   XZ=              0.0000   YZ=              0.0004

 Summary of Natural Population Analysis:

                                       Natural Population
                Natural  -----------------------------------------------
    Atom  No    Charge         Core      Valence    Rydberg      Total
 -----------------------------------------------------------------------
      C    1   -0.28635      0.99964     2.28120    0.00550     3.28635
      C    2   -0.06701      0.99953     2.05833    0.00915     3.06701
      C    3   -0.27845      0.99964     2.27297    0.00584     3.27845
      C    4   -0.27845      0.99964     2.27297    0.00584     3.27845
      C    5    0.03401      0.99955     1.94497    0.02147     2.96599
      N    6   -0.26864      0.99963     2.74446    0.02454     3.76864
      C    7    0.09634      0.99950     1.89247    0.01169     2.90366
      C    8   -0.10613      0.99948     2.09869    0.00795     3.10613
      S    9    0.17541      4.99945     2.79752    0.02762     7.82459
      C   10   -0.00584      0.99958     1.98529    0.02097     3.00584
      C   11   -0.09969      0.99954     2.09122    0.00894     3.09969
      C   12   -0.05794      0.99955     2.05037    0.00802     3.05794
      C   13   -0.06775      0.99942     2.05379    0.01454     3.06775
      C   14   -0.09784      0.99960     2.08446    0.01379     3.09784
      C   15   -0.05069      0.99945     2.04604    0.00519     3.05069
      C   16    0.14942      0.99964     1.83250    0.01843     2.85058
      N   17   -0.17915      0.99979     2.66795    0.01141     3.67915
      H   18    0.09630      0.00000     0.40295    0.00075     0.40370
      H   19    0.10257      0.00000     0.39641    0.00101     0.39743
      H   20    0.10257      0.00000     0.39641    0.00102     0.39743
      H   21    0.09096      0.00000     0.40823    0.00082     0.40904
      H   22    0.10944      0.00000     0.38971    0.00086     0.39056
      H   23    0.09988      0.00000     0.39934    0.00079     0.40012
      H   24    0.09988      0.00000     0.39934    0.00079     0.40012
      H   25    0.10943      0.00000     0.38971    0.00086     0.39057
      H   26    0.09096      0.00000     0.40822    0.00082     0.40904
      H   27    0.10082      0.00000     0.39797    0.00121     0.39918
      H   28    0.10489      0.00000     0.39401    0.00110     0.39511
      H   29    0.09503      0.00000     0.40407    0.00090     0.40497
      H   30    0.09600      0.00000     0.40276    0.00124     0.40400
      H   31    0.09050      0.00000     0.40828    0.00122     0.40950
 =======================================================================
   * Total *    0.00046     20.99263    42.77264    0.23428    63.99954

 Normal termination of Gaussian 16 at Sun Dec 13 16:54:49 2020.
