 Gaussian 16, Revision A.03,

 -----------------------------------------------------------
 # opt freq B3LYP/6-31G(d) empiricaldispersion=gd3bj scf=xqc
 -----------------------------------------------------------

 -------------------------------
 CID_152658239_JID_4304_neutraal
 -------------------------------
 Symbolic Z-matrix:
 Charge =  0 Multiplicity = 1

 SCF Done:  E(RB3LYP) =  -656.511188313     A.U. after   19 cycles
 SCF Done:  E(RB3LYP) =  -656.520878175     A.U. after   15 cycles
 SCF Done:  E(RB3LYP) =  -656.522637397     A.U. after   14 cycles
 SCF Done:  E(RB3LYP) =  -656.523821041     A.U. after   13 cycles
 SCF Done:  E(RB3LYP) =  -656.525123842     A.U. after   12 cycles
 SCF Done:  E(RB3LYP) =  -656.526766672     A.U. after   13 cycles
 SCF Done:  E(RB3LYP) =  -656.527881646     A.U. after   11 cycles
 SCF Done:  E(RB3LYP) =  -656.528997259     A.U. after   13 cycles
 SCF Done:  E(RB3LYP) =  -656.529283038     A.U. after   13 cycles
 SCF Done:  E(RB3LYP) =  -656.529535368     A.U. after   12 cycles
 SCF Done:  E(RB3LYP) =  -656.531166043     A.U. after   13 cycles
 SCF Done:  E(RB3LYP) =  -656.531166452     A.U. after   10 cycles
 SCF Done:  E(RB3LYP) =  -656.531166283     A.U. after   10 cycles
 SCF Done:  E(RB3LYP) =  -656.531166510     A.U. after   11 cycles
 SCF Done:  E(RB3LYP) =  -656.531166538     A.U. after    9 cycles
 Optimization completed.
    -- Stationary point found.

 1\1\GINC-NODE121\FOpt\RB3LYP\6-31G(d)\C7H11N7\VSC10255\10-Dec-2020\0\\
 # opt freq B3LYP/6-31G(d) empiricaldispersion=gd3bj scf=xqc\\CID_15265
 8239_JID_4304_neutraal\\0,1\C,0.9501729837,0.2649971204,0.3228647075\N
 ,0.4353066947,1.6170911824,0.1913265576\C,1.512144817,2.5661635899,-0.
 1198463048\C,0.8528261068,3.8552911954,-0.4742990452\C,-0.4881726559,4
 .0257398906,-0.7030009678\N,-0.808769012,5.3500609102,-0.9076645052\C,
 0.3334485913,5.9978407712,-0.8200244316\N,1.3732233195,5.141651114,-0.
 5472079275\N,2.7335078412,5.5034552426,-0.5922579236\N,3.2851796778,5.

 Normal termination of Gaussian 16 at Thu Dec 10 09:36:14 2020.

 --------------------------------------------------------------------
 #N Geom=AllCheck Guess=TCheck SCRF=Check GenChk RB3LYP/6-31G(d) Freq
 --------------------------------------------------------------------

 Structure from the checkpoint file:  "JID_4304.chk"
 -------------------------------
 CID_152658239_JID_4304_neutraal
 -------------------------------
 Charge =  0 Multiplicity = 1

 SCF Done:  E(RB3LYP) =  -656.531166537     A.U. after    1 cycles

  Exact polarizability: 142.794   9.656 127.057   4.798   5.342  80.617
 Approx polarizability: 201.149  32.629 207.494  16.221  27.683 144.832

                      1                      2                      3
                      A                      A                      A
 Frequencies --     23.6761                54.0803                91.5647
 Red. masses --      8.5212                 5.7744                 3.5272
 Frc consts  --      0.0028                 0.0100                 0.0174
 IR Inten    --      0.0759                 0.6144                 0.8718

                      4                      5                      6
                      A                      A                      A
 Frequencies --    121.6994               150.3541               207.1520
 Red. masses --      2.8967                 3.9034                 2.2212
 Frc consts  --      0.0253                 0.0520                 0.0562
 IR Inten    --      3.1909                 0.5269                 1.4054

                      7                      8                      9
                      A                      A                      A
 Frequencies --    214.4331               229.5439               241.8390
 Red. masses --      3.8819                 1.3280                 1.2360
 Frc consts  --      0.1052                 0.0412                 0.0426
 IR Inten    --      0.2513                 1.2303                 1.8188

                     10                     11                     12
                      A                      A                      A
 Frequencies --    274.8270               321.1802               352.1937
 Red. masses --      5.8158                 2.3752                 3.1139
 Frc consts  --      0.2588                 0.1444                 0.2276
 IR Inten    --      2.5018                 1.6649                 2.0566

                     13                     14                     15
                      A                      A                      A
 Frequencies --    384.3278               428.6067               434.1640
 Red. masses --      3.1181                 3.1192                 4.1927
 Frc consts  --      0.2714                 0.3376                 0.4656
 IR Inten    --      7.2410                 0.9369                 2.2847

                     16                     17                     18
                      A                      A                      A
 Frequencies --    493.4971               533.8648               545.3862
 Red. masses --      5.5390                 5.9427                12.7708
 Frc consts  --      0.7948                 0.9979                 2.2381
 IR Inten    --      4.8928                 4.8269                10.2359

                     19                     20                     21
                      A                      A                      A
 Frequencies --    595.6238               621.8806               677.1625
 Red. masses --      3.9852                 4.5134                 6.4168
 Frc consts  --      0.8330                 1.0284                 1.7336
 IR Inten    --     10.6906                 2.2253                 1.4018

                     22                     23                     24
                      A                      A                      A
 Frequencies --    736.4125               768.7819               786.0986
 Red. masses --      7.5780                 1.4715                 3.7670
 Frc consts  --      2.4213                 0.5124                 1.3715
 IR Inten    --      7.4861                 7.7367                 6.5035

                     25                     26                     27
                      A                      A                      A
 Frequencies --    820.3776               886.4566               955.4110
 Red. masses --      7.8286                 4.8538                 3.6356
 Frc consts  --      3.1043                 2.2472                 1.9553
 IR Inten    --     18.0212                25.9820                17.1204

                     28                     29                     30
                      A                      A                      A
 Frequencies --   1018.9958              1038.3429              1044.1252
 Red. masses --      2.0903                 2.1152                 1.9987
 Frc consts  --      1.2788                 1.3436                 1.2838
 IR Inten    --     23.4789                32.8960                 0.5094

                     31                     32                     33
                      A                      A                      A
 Frequencies --   1070.3612              1128.6561              1144.8643
 Red. masses --      2.5023                 3.1141                 3.0090
 Frc consts  --      1.6891                 2.3373                 2.3237
 IR Inten    --      5.2381                29.6561               101.5609

                     34                     35                     36
                      A                      A                      A
 Frequencies --   1160.8131              1171.6349              1199.2413
 Red. masses --      1.3574                 1.4634                 3.6253
 Frc consts  --      1.0777                 1.1836                 3.0719
 IR Inten    --     10.9377                13.1233                33.5350

                     37                     38                     39
                      A                      A                      A
 Frequencies --   1211.3217              1227.2212              1242.5778
 Red. masses --      1.7630                 1.8409                 2.6500
 Frc consts  --      1.5241                 1.6335                 2.4107
 IR Inten    --     21.1618                 2.6854                22.6976

                     40                     41                     42
                      A                      A                      A
 Frequencies --   1269.1897              1285.0589              1340.5927
 Red. masses --      1.7151                 3.0452                 6.3129
 Frc consts  --      1.6278                 2.9628                 6.6846
 IR Inten    --      7.4698                 2.4676                40.3569

                     43                     44                     45
                      A                      A                      A
 Frequencies --   1357.5713              1380.6264              1393.6187
 Red. masses --      1.4837                 1.9307                 2.4170
 Frc consts  --      1.6111                 2.1683                 2.7658
 IR Inten    --      6.6607                 9.6259                17.3637

                     46                     47                     48
                      A                      A                      A
 Frequencies --   1430.9011              1466.1390              1479.8586
 Red. masses --      1.3763                 1.3756                 3.5089
 Frc consts  --      1.6602                 1.7421                 4.5276
 IR Inten    --     29.8497                28.7814                38.3966

                     49                     50                     51
                      A                      A                      A
 Frequencies --   1489.3442              1508.5908              1516.4087
 Red. masses --      1.2389                 1.7306                 1.0586
 Frc consts  --      1.6192                 2.3206                 1.4342
 IR Inten    --      5.7823                 7.0681                16.1448

                     52                     53                     54
                      A                      A                      A
 Frequencies --   1519.9118              1523.5969              1534.4330
 Red. masses --      1.0822                 1.4440                 1.0668
 Frc consts  --      1.4730                 1.9750                 1.4798
 IR Inten    --     17.2605                 9.9819                 5.6711

                     55                     56                     57
                      A                      A                      A
 Frequencies --   1538.6559              1543.4933              1651.3733
 Red. masses --      1.1019                 1.1913                 8.2743
 Frc consts  --      1.5371                 1.6721                13.2945
 IR Inten    --      2.5452                17.3503                94.2811

                     58                     59                     60
                      A                      A                      A
 Frequencies --   2229.9505              2897.4957              2941.4631
 Red. masses --     13.9908                 1.0741                 1.0619
 Frc consts  --     40.9904                 5.3131                 5.4131
 IR Inten    --    360.4124                63.1262                68.6174

                     61                     62                     63
                      A                      A                      A
 Frequencies --   2959.6323              3010.1408              3041.2024
 Red. masses --      1.0720                 1.0494                 1.0846
 Frc consts  --      5.5325                 5.6021                 5.9104
 IR Inten    --    114.9038                56.9257                27.3050

                     64                     65                     66
                      A                      A                      A
 Frequencies --   3078.9526              3100.5930              3116.9059
 Red. masses --      1.0709                 1.0889                 1.0927
 Frc consts  --      5.9812                 6.1678                 6.2546
 IR Inten    --     37.8461                37.0963                19.0900

                     67                     68                     69
                      A                      A                      A
 Frequencies --   3124.4272              3157.0556              3283.6057
 Red. masses --      1.1022                 1.1007                 1.0973
 Frc consts  --      6.3393                 6.4639                 6.9707
 IR Inten    --     40.4573                12.7005                 0.1140

 - Thermochemistry -
 -------------------
 Temperature   298.150 Kelvin.  Pressure   1.00000 Atm.
 Atom     1 has atomic number  6 and mass  12.00000

 Molecular mass:   193.10759 amu.
 Principal axes and moments of inertia in atomic units:
                           1         2         3
     Eigenvalues --  1691.447053200.105644481.82123
           X            0.99932  -0.03611  -0.00774
           Y            0.03593   0.99909  -0.02317
           Z            0.00857   0.02288   0.99970
 This molecule is an asymmetric top.
 Rotational symmetry number  1.
 Warning -- assumption of classical behavior for rotation
           may cause significant error
 Rotational temperatures (Kelvin)      0.05121     0.02707     0.01933
 Rotational constants (GHZ):           1.06698     0.56396     0.40268
 Zero-point vibrational energy     525038.2 (Joules/Mol)
                                  125.48715 (Kcal/Mol)
 Warning -- explicit consideration of  19 degrees of freedom as
           vibrations may cause significant error
 Vibrational temperatures:     34.06    77.81   131.74   175.10   216.33
          (Kelvin)            298.05   308.52   330.26   347.95   395.41
                              462.11   506.73   552.96   616.67   624.67
                              710.03   768.11   784.69   856.97   894.75
                              974.29  1059.53  1106.11  1131.02  1180.34
                             1275.41  1374.62  1466.11  1493.94  1502.26
                             1540.01  1623.88  1647.20  1670.15  1685.72
                             1725.44  1742.82  1765.70  1787.79  1826.08
                             1848.91  1928.81  1953.24  1986.41  2005.11
                             2058.75  2109.45  2129.19  2142.83  2170.53
                             2181.77  2186.81  2192.12  2207.71  2213.78
                             2220.74  2375.96  3208.40  4168.85  4232.11
                             4258.25  4330.92  4375.61  4429.93  4461.06
                             4484.53  4495.35  4542.30  4724.38

 Zero-point correction=                           0.199977 (Hartree/Particle)
 Thermal correction to Energy=                    0.212688
 Thermal correction to Enthalpy=                  0.213632
 Thermal correction to Gibbs Free Energy=         0.159846
 Sum of electronic and zero-point Energies=           -656.331190
 Sum of electronic and thermal Energies=              -656.318479
 Sum of electronic and thermal Enthalpies=            -656.317535
 Sum of electronic and thermal Free Energies=         -656.371321

                     E (Thermal)             CV                S
                      KCal/Mol        Cal/Mol-Kelvin    Cal/Mol-Kelvin
 Total                  133.464             47.072            113.203
 Electronic               0.000              0.000              0.000
 Translational            0.889              2.981             41.680
 Rotational               0.889              2.981             31.562
 Vibrational            131.686             41.110             39.961
 Vibration     1          0.593              1.985              6.299
 Vibration     2          0.596              1.976              4.662
 Vibration     3          0.602              1.955              3.626
 Vibration     4          0.609              1.931              3.073
 Vibration     5          0.618              1.902              2.668
 Vibration     6          0.641              1.830              2.069
 Vibration     7          0.644              1.819              2.006
 Vibration     8          0.652              1.796              1.883
 Vibration     9          0.658              1.776              1.789
 Vibration    10          0.677              1.720              1.566
 Vibration    11          0.707              1.633              1.304
 Vibration    12          0.729              1.571              1.156
 Vibration    13          0.753              1.504              1.022
 Vibration    14          0.790              1.408              0.863
 Vibration    15          0.795              1.396              0.845
 Vibration    16          0.849              1.264              0.675
 Vibration    17          0.889              1.175              0.579
 Vibration    18          0.901              1.150              0.554
 Vibration    19          0.953              1.041              0.457

 Optimization completed.
    -- Stationary point found.

 1\1\GINC-NODE121\Freq\RB3LYP\6-31G(d)\C7H11N7\VSC10255\10-Dec-2020\0\\
 #N Geom=AllCheck Guess=TCheck SCRF=Check GenChk RB3LYP/6-31G(d) Freq\\
 CID_152658239_JID_4304_neutraal\\0,1\C,0.9501729837,0.2649971204,0.322
 8647075\N,0.4353066947,1.6170911824,0.1913265576\C,1.512144817,2.56616
 35899,-0.1198463048\C,0.8528261068,3.8552911954,-0.4742990452\C,-0.488
 1726559,4.0257398906,-0.7030009678\N,-0.808769012,5.3500609102,-0.9076
 645052\C,0.3334485913,5.9978407712,-0.8200244316\N,1.3732233195,5.1416
 51114,-0.5472079275\N,2.7335078412,5.5034552426,-0.5922579236\N,3.2851

 Normal termination of Gaussian 16 at Thu Dec 10 09:43:31 2020.

 ----------------------------------------------------------------------
 # B3LYP/6-311++G(d,p) empiricaldispersion=gd3bj scf=xqc pop=npa geom=c
 heck
 ----------------------------------------------------------------------

 ---------------------------------------
 CID_152658239_JID_4304_Energie_neutraal
 ---------------------------------------
 Structure from the checkpoint file:  "JID_4304.chk"
 Charge =  0 Multiplicity = 1

 SCF Done:  E(RB3LYP) =  -656.706125386     A.U. after   18 cycles
 Normal termination of Gaussian 16 at Thu Dec 10 09:47:16 2020.

 ----------------------------------------------------------------------
 # B3LYP/6-311++G(d,p) empiricaldispersion=gd3bj scf=xqc pop=npa geom=c
 heck
 ----------------------------------------------------------------------

 -------------------------------------
 CID_152658239_JID_4304_Energie_kation
 -------------------------------------
 Structure from the checkpoint file:  "JID_4304.chk"
 Charge =  1 Multiplicity = 2

 SCF Done:  E(UB3LYP) =  -656.431989422     A.U. after   26 cycles
 Normal termination of Gaussian 16 at Thu Dec 10 09:54:59 2020.
 Gaussian 16:  ES64L-G16RevA.03 25-Dec-2016

 ------------------------------------
 CID_152658239_JID_4304_Energie_anion
 ------------------------------------
 Structure from the checkpoint file:  "JID_4304.chk"
 Charge = -1 Multiplicity = 2

                         Standard orientation:
 ---------------------------------------------------------------------
 Center     Atomic      Atomic             Coordinates (Angstroms)
 Number     Number       Type             X           Y           Z
 ---------------------------------------------------------------------
      1          6           0        2.129086   -2.673823    0.028513
      2          7           0        1.544819   -1.355145   -0.145468
      3          6           0        0.139764   -1.337576    0.281916
      4          6           0       -0.281772    0.092204    0.296871
      5          6           0        0.557671    1.169687    0.178544
      6          7           0       -0.138097    2.357741    0.124414
      7          6           0       -1.405835    2.018561    0.223199
      8          7           0       -1.551862    0.655436    0.319045
      9          7           0       -2.760806    0.005814    0.634879
     10          7           0       -3.144993   -0.743652   -0.304438
     11          7           0       -3.627668   -1.490355   -1.012778
     12          7           0        1.953082    1.042006    0.142646
     13          6           0        2.320379   -0.308931    0.546309
     14          6           0        2.568731    1.504754   -1.104015
     15          1           0        2.161962   -3.004241    1.085167
     16          1           0        3.151203   -2.677797   -0.363801
     17          1           0        1.546238   -3.410309   -0.535282
     18          1           0       -0.445023   -1.932720   -0.432757
     19          1           0        0.000716   -1.809094    1.277406
     20          1           0       -2.260179    2.679545    0.243146
     21          1           0        2.190054   -0.380932    1.641707
     22          1           0        3.377145   -0.466060    0.316525
     23          1           0        2.336591    0.845763   -1.954871
     24          1           0        2.197242    2.508638   -1.319468
     25          1           0        3.654573    1.555036   -0.973907
 ---------------------------------------------------------------------

 SCF Done:  E(UB3LYP) =  -656.718757050     A.U. after   33 cycles
 SCF Done:  E(UB3LYP) =  -656.718757050     a.u. after    1 cycles

 The electronic state is 2-A.
 Alpha  occ. eigenvalues --  -14.27067 -14.26147 -14.22403 -14.20935 -14.20870
 Alpha  occ. eigenvalues --  -14.19263 -14.17396 -10.12110 -10.10005 -10.09967
 Alpha  occ. eigenvalues --  -10.09507 -10.09001 -10.08546 -10.07519  -0.97197
 Alpha  occ. eigenvalues --   -0.90610  -0.85847  -0.82209  -0.79420  -0.71871
 Alpha  occ. eigenvalues --   -0.65919  -0.61466  -0.59336  -0.54989  -0.52068
 Alpha  occ. eigenvalues --   -0.50647  -0.44830  -0.42934  -0.39576  -0.38377
 Alpha  occ. eigenvalues --   -0.36647  -0.36390  -0.34580  -0.33725  -0.32932
 Alpha  occ. eigenvalues --   -0.32565  -0.31384  -0.30423  -0.29227  -0.28822
 Alpha  occ. eigenvalues --   -0.28071  -0.27639  -0.26820  -0.26142  -0.20443
 Alpha  occ. eigenvalues --   -0.17116  -0.15865  -0.13813  -0.12541  -0.10257
 Alpha  occ. eigenvalues --   -0.08114   0.04755
 Alpha virt. eigenvalues --    0.06181   0.08101   0.09295   0.09654   0.10246
 Alpha virt. eigenvalues --    0.11280   0.11841   0.12227   0.12807   0.13070
 Alpha virt. eigenvalues --    0.13602   0.14854   0.15548   0.15682   0.16099

  Beta  occ. eigenvalues --  -14.26442 -14.25941 -14.22440 -14.20929 -14.20867
  Beta  occ. eigenvalues --  -14.18389 -14.17398 -10.12103 -10.10004 -10.09961
  Beta  occ. eigenvalues --  -10.09487 -10.08996 -10.08541 -10.07522  -0.96150
  Beta  occ. eigenvalues --   -0.90245  -0.85743  -0.81925  -0.79313  -0.71521
  Beta  occ. eigenvalues --   -0.65838  -0.61450  -0.59310  -0.54863  -0.51926
  Beta  occ. eigenvalues --   -0.50292  -0.44724  -0.42856  -0.39518  -0.38337
  Beta  occ. eigenvalues --   -0.36363  -0.35767  -0.34203  -0.33300  -0.32650
  Beta  occ. eigenvalues --   -0.31902  -0.31170  -0.30045  -0.28764  -0.28297
  Beta  occ. eigenvalues --   -0.27769  -0.26818  -0.26288  -0.26065  -0.19009
  Beta  occ. eigenvalues --   -0.17052  -0.15421  -0.13680  -0.12493  -0.10033
  Beta  occ. eigenvalues --   -0.08046
  Beta virt. eigenvalues --    0.06713   0.08178   0.09393   0.09672   0.10252
  Beta virt. eigenvalues --    0.11242   0.11787   0.12049   0.12771   0.13109
  Beta virt. eigenvalues --    0.13562   0.14007   0.14969   0.15542   0.15685

 Mulliken charges and spin densities:
               1          2
     1  C    0.232689  -0.558232
     2  N   -0.041787   0.108655
     3  C   -0.308151  -0.153003
     4  C    0.537898   0.070537
     5  C   -0.921413  -0.269554
     6  N   -0.221576   0.015247
     7  C    0.012741   0.144185
     8  N    0.183693   0.017018
     9  N   -0.794449   0.027640
    10  N    0.394347   0.179098
    11  N   -0.289864   0.523341
    12  N    0.226676   0.019947
    13  C   -0.251475  -0.164323
    14  C   -0.209179  -0.130519
    15  H   -0.052126   0.171482
    16  H   -0.261600   0.392206
    17  H    0.039193   0.080973
    18  H    0.262747  -0.050537
    19  H    0.014156   0.137825
    20  H    0.009872   0.159054
    21  H    0.150465   0.004664
    22  H    0.019547   0.145467
    23  H    0.113809   0.016784
    24  H    0.113886   0.024823
    25  H    0.039899   0.087219
 Sum of Mulliken charges =  -1.00000   1.00000

 Dipole moment (field-independent basis, Debye):
    X=              4.7247    Y=              0.9711    Z=              0.2298  Tot=              4.8289
 Quadrupole moment (field-independent basis, Debye-Ang):
   XX=           -138.5229   YY=           -113.2384   ZZ=            -99.2851
   XY=             -6.1424   XZ=             -3.2313   YZ=             -4.9084

 Summary of Natural Population Analysis:

                                       Natural Population
                Natural  -----------------------------------------------
    Atom  No    Charge         Core      Valence    Rydberg      Total
 -----------------------------------------------------------------------
      C    1   -0.17769      0.99965     2.16934    0.00869     3.17769
      N    2   -0.28344      0.99972     2.77240    0.01132     3.78344
      C    3   -0.09260      0.99959     2.08370    0.00931     3.09260
      C    4    0.03181      0.99939     1.95780    0.01100     2.96819
      C    5    0.14483      0.99939     1.83953    0.01625     2.85517
      N    6   -0.27270      0.99969     2.76168    0.01132     3.77270
      C    7    0.10336      0.99963     1.88046    0.01654     2.89664
      N    8   -0.09857      0.99957     2.58683    0.01217     3.59857
      N    9   -0.16152      0.99971     2.64519    0.01662     3.66152
      N   10    0.15316      0.99970     2.33217    0.01497     3.34684
      N   11    0.07598      0.99981     2.41015    0.01405     3.42402
      N   12   -0.26863      0.99966     2.75625    0.01272     3.76863
      C   13    0.01479      0.99961     1.97003    0.01557     2.98521
      C   14   -0.17494      0.99964     2.16858    0.00672     3.17494
      H   15    0.07913      0.00000     0.41940    0.00147     0.42087
      H   16    0.09549      0.00000     0.40339    0.00112     0.40451
      H   17    0.09598      0.00000     0.40296    0.00106     0.40402
      H   18    0.10698      0.00000     0.39145    0.00157     0.39302
      H   19    0.08532      0.00000     0.41275    0.00192     0.41468
      H   20    0.09270      0.00000     0.40579    0.00151     0.40730
      H   21    0.08273      0.00000     0.41547    0.00180     0.41727
      H   22    0.09300      0.00000     0.40548    0.00152     0.40700
      H   23    0.08505      0.00000     0.41278    0.00216     0.41495
      H   24    0.10280      0.00000     0.39575    0.00144     0.39720
      H   25    0.08696      0.00000     0.41161    0.00143     0.41304
 =======================================================================
   * Total *   -0.00000     13.99480    36.81094    0.19426    51.00000

 Normal termination of Gaussian 16 at Thu Dec 10 10:04:44 2020.
