 Gaussian 16, Revision A.03,

 -----------------------------------------------------------
 # opt freq B3LYP/6-31G(d) empiricaldispersion=gd3bj scf=xqc
 -----------------------------------------------------------

 ------------------------------
 CID_82729073_JID_8632_neutraal
 ------------------------------
 Symbolic Z-matrix:
 Charge =  0 Multiplicity = 1

 SCF Done:  E(RB3LYP) =  -820.372289423     A.U. after   14 cycles
 SCF Done:  E(RB3LYP) =  -820.378527712     A.U. after   12 cycles
 SCF Done:  E(RB3LYP) =  -820.379164578     A.U. after   11 cycles
 SCF Done:  E(RB3LYP) =  -820.379333820     A.U. after   10 cycles
 SCF Done:  E(RB3LYP) =  -820.379432364     A.U. after   11 cycles
 SCF Done:  E(RB3LYP) =  -820.379482629     A.U. after   10 cycles
 SCF Done:  E(RB3LYP) =  -820.379510545     A.U. after   10 cycles
 SCF Done:  E(RB3LYP) =  -820.379534294     A.U. after   10 cycles
 SCF Done:  E(RB3LYP) =  -820.379547731     A.U. after   10 cycles
 SCF Done:  E(RB3LYP) =  -820.379569443     A.U. after   10 cycles
 SCF Done:  E(RB3LYP) =  -820.386180152     A.U. after    8 cycles
 SCF Done:  E(RB3LYP) =  -820.386182747     A.U. after    9 cycles
 SCF Done:  E(RB3LYP) =  -820.386183361     A.U. after    8 cycles
 SCF Done:  E(RB3LYP) =  -820.386183494     A.U. after    7 cycles
 SCF Done:  E(RB3LYP) =  -820.386183569     A.U. after    7 cycles
 Optimization completed.
    -- Stationary point found.
 Normal termination of Gaussian 16 at Fri Dec 11 22:05:20 2020.

 --------------------------------------------------------------------
 #N Geom=AllCheck Guess=TCheck SCRF=Check GenChk RB3LYP/6-31G(d) Freq
 --------------------------------------------------------------------

 Structure from the checkpoint file:  "JID_8632.chk"
 ------------------------------
 CID_82729073_JID_8632_neutraal
 ------------------------------
 Charge =  0 Multiplicity = 1

 SCF Done:  E(RB3LYP) =  -820.386183569     A.U. after    1 cycles

  Exact polarizability: 232.465 -11.517 156.284  -4.167  -1.746  97.139
 Approx polarizability: 318.201 -20.734 268.552  -8.959  -2.820 143.709

                      1                      2                      3
                      A                      A                      A
 Frequencies --     41.2139                64.4479                70.0243
 Red. masses --      4.0684                 3.6190                 3.4461
 Frc consts  --      0.0041                 0.0089                 0.0100
 IR Inten    --      0.5473                 0.9109                 3.9545

                      4                      5                      6
                      A                      A                      A
 Frequencies --    101.3352               121.1903               137.4037
 Red. masses --      2.4811                 3.7543                 5.3028
 Frc consts  --      0.0150                 0.0325                 0.0590
 IR Inten    --      2.2460                 0.9630                 0.5798

                      7                      8                      9
                      A                      A                      A
 Frequencies --    170.1780               193.9421               221.7826
 Red. masses --      3.7667                 2.8886                 1.7876
 Frc consts  --      0.0643                 0.0640                 0.0518
 IR Inten    --      5.0110                 4.6579                 1.1568

                     10                     11                     12
                      A                      A                      A
 Frequencies --    241.8170               248.8531               269.5571
 Red. masses --      1.6306                 4.2142                 1.2383
 Frc consts  --      0.0562                 0.1538                 0.0530
 IR Inten    --      4.7740                 1.5950                 0.0422

                     13                     14                     15
                      A                      A                      A
 Frequencies --    307.4303               313.1052               335.5652
 Red. masses --      5.5265                 2.9639                 3.9058
 Frc consts  --      0.3077                 0.1712                 0.2591
 IR Inten    --      5.9623                 0.2670                 2.4666

                     16                     17                     18
                      A                      A                      A
 Frequencies --    357.6842               396.9782               440.6943
 Red. masses --      3.9349                 4.8346                 3.0363
 Frc consts  --      0.2966                 0.4489                 0.3474
 IR Inten    --      2.0444                 3.0011                 4.4330

                     19                     20                     21
                      A                      A                      A
 Frequencies --    446.4437               461.6224               524.8063
 Red. masses --      3.7583                 3.5692                 2.5314
 Frc consts  --      0.4413                 0.4481                 0.4108
 IR Inten    --      3.2722                35.9834                25.0414

                     22                     23                     24
                      A                      A                      A
 Frequencies --    540.5407               563.9582               621.2652
 Red. masses --      1.6628                 4.5433                 3.6642
 Frc consts  --      0.2863                 0.8514                 0.8333
 IR Inten    --     44.3941                11.3506                21.2569

                     25                     26                     27
                      A                      A                      A
 Frequencies --    638.0079               675.9120               698.9703
 Red. masses --      3.0835                 2.7003                 2.3903
 Frc consts  --      0.7395                 0.7269                 0.6881
 IR Inten    --      1.1862                10.7009                82.7689

                     28                     29                     30
                      A                      A                      A
 Frequencies --    715.6654               724.9427               740.7716
 Red. masses --      5.5228                 3.7145                 4.7439
 Frc consts  --      1.6666                 1.1502                 1.5338
 IR Inten    --     49.0900                36.2000                 2.5985

                     31                     32                     33
                      A                      A                      A
 Frequencies --    753.5174               773.3402               782.2125
 Red. masses --      1.9768                 3.9125                 1.6772
 Frc consts  --      0.6613                 1.3786                 0.6046
 IR Inten    --    143.4489                11.8732                31.2943

                     34                     35                     36
                      A                      A                      A
 Frequencies --    797.9942               841.9566               866.6189
 Red. masses --      5.2090                 2.7254                 1.9153
 Frc consts  --      1.9543                 1.1383                 0.8475
 IR Inten    --      3.4955                 7.9030                 9.8264

                     37                     38                     39
                      A                      A                      A
 Frequencies --    870.0709               880.9622               893.9964
 Red. masses --      1.4412                 1.2682                 2.8401
 Frc consts  --      0.6428                 0.5799                 1.3374
 IR Inten    --     25.2038                 0.4458                15.0263

                     40                     41                     42
                      A                      A                      A
 Frequencies --    930.1002               966.9252               986.0956
 Red. masses --      2.4981                 3.5630                 3.3238
 Frc consts  --      1.2733                 1.9627                 1.9043
 IR Inten    --      3.6004                 5.1523                 5.9089

                     43                     44                     45
                      A                      A                      A
 Frequencies --   1013.0819              1015.6548              1076.6261
 Red. masses --      1.8605                 2.3117                 2.9926
 Frc consts  --      1.1251                 1.4050                 2.0437
 IR Inten    --     15.9969                 4.5854                33.4236

                     46                     47                     48
                      A                      A                      A
 Frequencies --   1091.3954              1098.9374              1135.2259
 Red. masses --      2.6249                 1.8464                 2.4425
 Frc consts  --      1.8422                 1.3138                 1.8546
 IR Inten    --     72.4011                12.4499                17.5638

                     49                     50                     51
                      A                      A                      A
 Frequencies --   1144.2833              1157.6262              1173.3829
 Red. masses --      1.8752                 1.8019                 1.5287
 Frc consts  --      1.4466                 1.4228                 1.2401
 IR Inten    --     40.2395                50.2249                 2.3900

                     52                     53                     54
                      A                      A                      A
 Frequencies --   1187.2716              1205.4841              1210.8259
 Red. masses --      1.2714                 2.0087                 1.7500
 Frc consts  --      1.0560                 1.7199                 1.5116
 IR Inten    --      0.7767                22.9168               131.6546

                     55                     56                     57
                      A                      A                      A
 Frequencies --   1228.2209              1230.4265              1240.7661
 Red. masses --      1.6279                 1.3445                 1.9986
 Frc consts  --      1.4468                 1.1993                 1.8129
 IR Inten    --     33.2816                18.9988               187.0318

                     58                     59                     60
                      A                      A                      A
 Frequencies --   1283.9140              1306.0444              1321.1574
 Red. masses --      2.6101                 1.5942                 2.0096
 Frc consts  --      2.5350                 1.6022                 2.0667
 IR Inten    --      4.3007                19.1361                80.3539

                     61                     62                     63
                      A                      A                      A
 Frequencies --   1330.9726              1336.8414              1358.6413
 Red. masses --      3.9303                 1.3812                 1.4173
 Frc consts  --      4.1021                 1.4543                 1.5415
 IR Inten    --      9.9414                 0.3260                 4.8345

                     64                     65                     66
                      A                      A                      A
 Frequencies --   1381.1026              1415.8730              1423.0140
 Red. masses --      1.4017                 1.7377                 1.9050
 Frc consts  --      1.5753                 2.0525                 2.2729
 IR Inten    --     15.2910                 9.0862                11.7220

                     67                     68                     69
                      A                      A                      A
 Frequencies --   1432.8723              1440.0278              1487.7533
 Red. masses --      1.8256                 1.3369                 2.6855
 Frc consts  --      2.2084                 1.6334                 3.5022
 IR Inten    --     36.4962                 7.2010                76.0755

                     70                     71                     72
                      A                      A                      A
 Frequencies --   1493.7691              1500.3571              1518.0879
 Red. masses --      2.3345                 1.7728                 1.1053
 Frc consts  --      3.0691                 2.3513                 1.5007
 IR Inten    --    123.6551                30.1914                 3.0844

                     73                     74                     75
                      A                      A                      A
 Frequencies --   1519.8025              1520.8993              1529.5948
 Red. masses --      1.0486                 1.0617                 1.7559
 Frc consts  --      1.4270                 1.4469                 2.4204
 IR Inten    --      4.5728                 4.4631               106.1117

                     76                     77                     78
                      A                      A                      A
 Frequencies --   1530.3350              1542.8375              1559.9807
 Red. masses --      1.0897                 1.3192                 1.0918
 Frc consts  --      1.5036                 1.8501                 1.5654
 IR Inten    --     19.5588                 0.7838                 3.5907

                     79                     80                     81
                      A                      A                      A
 Frequencies --   1598.3786              1646.2859              1684.6198
 Red. masses --      3.5696                 5.1285                 2.5121
 Frc consts  --      5.3732                 8.1894                 4.2003
 IR Inten    --    443.4615                41.2807               133.5748

                     82                     83                     84
                      A                      A                      A
 Frequencies --   1705.5278              3014.8228              3052.4968
 Red. masses --      2.3985                 1.0354                 1.0635
 Frc consts  --      4.1106                 5.5447                 5.8385
 IR Inten    --     89.1422                68.3312                51.6316

                     85                     86                     87
                      A                      A                      A
 Frequencies --   3057.6168              3068.8366              3081.6337
 Red. masses --      1.0367                 1.1061                 1.0698
 Frc consts  --      5.7104                 6.1375                 5.9857
 IR Inten    --      8.9402                52.5099                 5.6907

                     88                     89                     90
                      A                      A                      A
 Frequencies --   3099.1443              3104.7617              3107.2983
 Red. masses --      1.0883                 1.0941                 1.0920
 Frc consts  --      6.1584                 6.2141                 6.2119
 IR Inten    --     14.0448                29.1409                22.3167

                     91                     92                     93
                      A                      A                      A
 Frequencies --   3129.6371              3141.8137              3147.0365
 Red. masses --      1.1000                 1.1017                 1.1031
 Frc consts  --      6.3479                 6.4075                 6.4368
 IR Inten    --     31.1423                21.6814                16.8545

                     94                     95                     96
                      A                      A                      A
 Frequencies --   3149.9419              3190.9241              3230.3379
 Red. masses --      1.0986                 1.0893                 1.0915
 Frc consts  --      6.4226                 6.5347                 6.7107
 IR Inten    --     35.6224                16.3389                 3.2476

                     97                     98                     99
                      A                      A                      A
 Frequencies --   3234.8891              3476.7991              3644.3320
 Red. masses --      1.0906                 1.0576                 1.0910
 Frc consts  --      6.7241                 7.5326                 8.5370
 IR Inten    --     11.0730               200.7795                73.7070

 - Thermochemistry -
 -------------------
 Temperature   298.150 Kelvin.  Pressure   1.00000 Atm.
 Atom     1 has atomic number  6 and mass  12.00000

 Molecular mass:   247.13208 amu.
 Principal axes and moments of inertia in atomic units:
                           1         2         3
     Eigenvalues --  1729.303847996.915558943.08915
           X            1.00000  -0.00182  -0.00208
           Y            0.00179   0.99992  -0.01243
           Z            0.00211   0.01243   0.99992
 This molecule is an asymmetric top.
 Rotational symmetry number  1.
 Warning -- assumption of classical behavior for rotation
           may cause significant error
 Rotational temperatures (Kelvin)      0.05009     0.01083     0.00969
 Rotational constants (GHZ):           1.04362     0.22568     0.20180
 Zero-point vibrational energy     776018.3 (Joules/Mol)
                                  185.47281 (Kcal/Mol)
 Warning -- explicit consideration of  23 degrees of freedom as
           vibrations may cause significant error
 Vibrational temperatures:     59.30    92.73   100.75   145.80   174.37
          (Kelvin)            197.69   244.85   279.04   319.10   347.92
                              358.04   387.83   442.32   450.49   482.80
                              514.63   571.16   634.06   642.33   664.17
                              755.08   777.72   811.41   893.86   917.95
                              972.49  1005.66  1029.68  1043.03  1065.81
                             1084.14  1112.66  1125.43  1148.14  1211.39
                             1246.87  1251.84  1267.51  1286.26  1338.21
                             1391.19  1418.77  1457.60  1461.30  1549.02
                             1570.27  1581.13  1633.34  1646.37  1665.57
                             1688.24  1708.22  1734.42  1742.11  1767.14
                             1770.31  1785.19  1847.27  1879.11  1900.85
                             1914.97  1923.42  1954.78  1987.10  2037.13
                             2047.40  2061.58  2071.88  2140.55  2149.20
                             2158.68  2184.19  2186.66  2188.23  2200.75
                             2201.81  2219.80  2244.46  2299.71  2368.64
                             2423.79  2453.87  4337.66  4391.86  4399.23
                             4415.37  4433.78  4458.98  4467.06  4470.71
                             4502.85  4520.37  4527.88  4532.06  4591.03
                             4647.74  4654.28  5002.34  5243.38

 Zero-point correction=                           0.295570 (Hartree/Particle)
 Thermal correction to Energy=                    0.311412
 Thermal correction to Enthalpy=                  0.312356
 Thermal correction to Gibbs Free Energy=         0.252531
 Sum of electronic and zero-point Energies=           -820.090614
 Sum of electronic and thermal Energies=              -820.074772
 Sum of electronic and thermal Enthalpies=            -820.073828
 Sum of electronic and thermal Free Energies=         -820.133652

                     E (Thermal)             CV                S
                      KCal/Mol        Cal/Mol-Kelvin    Cal/Mol-Kelvin
 Total                  195.414             62.607            125.912
 Electronic               0.000              0.000              0.000
 Translational            0.889              2.981             42.415
 Rotational               0.889              2.981             33.180
 Vibrational            193.636             56.645             50.316
 Vibration     1          0.594              1.981              5.200
 Vibration     2          0.597              1.971              4.316
 Vibration     3          0.598              1.968              4.153
 Vibration     4          0.604              1.948              3.428
 Vibration     5          0.609              1.932              3.081
 Vibration     6          0.614              1.916              2.840
 Vibration     7          0.625              1.879              2.434
 Vibration     8          0.635              1.848              2.190
 Vibration     9          0.648              1.808              1.944
 Vibration    10          0.658              1.776              1.789
 Vibration    11          0.662              1.765              1.739
 Vibration    12          0.674              1.729              1.599
 Vibration    13          0.697              1.660              1.376
 Vibration    14          0.701              1.649              1.346
 Vibration    15          0.717              1.604              1.233
 Vibration    16          0.733              1.559              1.132
 Vibration    17          0.763              1.477              0.974
 Vibration    18          0.801              1.381              0.824
 Vibration    19          0.806              1.369              0.807
 Vibration    20          0.819              1.335              0.761
 Vibration    21          0.880              1.195              0.599
 Vibration    22          0.896              1.160              0.564
 Vibration    23          0.920              1.109              0.516

                           ! Non-Optimized Parameters !
 Normal termination of Gaussian 16 at Fri Dec 11 22:22:53 2020.

 ----------------------------------------------------------------------
 # B3LYP/6-311++G(d,p) empiricaldispersion=gd3bj scf=xqc pop=npa geom=c
 heck
 ----------------------------------------------------------------------

 --------------------------------------
 CID_82729073_JID_8632_Energie_neutraal
 --------------------------------------
 Structure from the checkpoint file:  "JID_8632.chk"
 Charge =  0 Multiplicity = 1

 SCF Done:  E(RB3LYP) =  -820.611965628     A.U. after   16 cycles
 Normal termination of Gaussian 16 at Fri Dec 11 22:31:05 2020.

 ----------------------------------------------------------------------
 # B3LYP/6-311++G(d,p) empiricaldispersion=gd3bj scf=xqc pop=npa geom=c
 heck
 ----------------------------------------------------------------------

 ------------------------------------
 CID_82729073_JID_8632_Energie_kation
 ------------------------------------
 Structure from the checkpoint file:  "JID_8632.chk"
 Charge =  1 Multiplicity = 2

 SCF Done:  E(UB3LYP) =  -820.351703809     A.U. after   25 cycles
 Normal termination of Gaussian 16 at Fri Dec 11 22:49:40 2020.
 Gaussian 16:  ES64L-G16RevA.03 25-Dec-2016

 ----------------------------------------------------------------------
 # B3LYP/6-311++G(d,p) empiricaldispersion=gd3bj scf=xqc pop=npa geom=c
 heck
 ----------------------------------------------------------------------

 -----------------------------------
 CID_82729073_JID_8632_Energie_anion
 -----------------------------------
 Structure from the checkpoint file:  "JID_8632.chk"
 Charge = -1 Multiplicity = 2

                         Standard orientation:
 ---------------------------------------------------------------------
 Center     Atomic      Atomic             Coordinates (Angstroms)
 Number     Number       Type             X           Y           Z
 ---------------------------------------------------------------------
      1          6           0       -3.965545   -1.546549    1.289726
      2          6           0       -3.130752   -0.396330    0.737478
      3          6           0       -1.747361   -0.837230    0.242986
      4          6           0       -2.059913   -1.298284   -1.194923
      5          6           0       -3.145253   -0.306639   -1.631004
      6          8           0       -3.767790    0.182728   -0.423568
      7          7           0       -0.735669    0.214020    0.272763
      8          6           0        0.632157   -0.083508    0.184158
      9          6           0        1.285711    1.169501    0.089653
     10          6           0        2.673652    1.223196    0.005865
     11          6           0        3.386379    0.017376    0.007568
     12          6           0        2.726956   -1.221713    0.089661
     13          6           0        1.328816   -1.280816    0.176505
     14          8           0        4.750224    0.147789   -0.080619
     15          6           0        5.530828   -1.030259   -0.078585
     16          7           0        0.352985    2.196859    0.085643
     17          6           0       -0.819169    1.603971    0.179429
     18          7           0       -2.004062    2.293612    0.262150
     19          1           0       -4.015658   -2.384532    0.586363
     20          1           0       -4.985752   -1.200009    1.477086
     21          1           0       -3.543678   -1.910237    2.233326
     22          1           0       -3.053428    0.397105    1.485334
     23          1           0       -1.361043   -1.655080    0.857324
     24          1           0       -2.443292   -2.323373   -1.184602
     25          1           0       -1.171375   -1.270768   -1.829239
     26          1           0       -3.912124   -0.761141   -2.265653
     27          1           0       -2.716738    0.550055   -2.165317
     28          1           0        3.204266    2.165925   -0.062964
     29          1           0        3.288658   -2.147271    0.084441
     30          1           0        0.829142   -2.243542    0.233643
     31          1           0        5.395975   -1.606493    0.847417
     32          1           0        5.295815   -1.676310   -0.936076
     33          1           0        6.570260   -0.703678   -0.149984
     34          1           0       -1.880867    3.267857    0.018458
     35          1           0       -2.831453    1.849639   -0.131066
 ---------------------------------------------------------------------

 SCF Done:  E(UB3LYP) =  -820.603147856     A.U. after   33 cycles
 SCF Done:  E(UB3LYP) =  -820.603147856     a.u. after    1 cycles

 The electronic state is 2-A.
 Alpha  occ. eigenvalues --  -19.06049 -19.04746 -14.27302 -14.23981 -14.19467
 Alpha  occ. eigenvalues --  -10.18390 -10.14440 -10.13868 -10.13698 -10.13630
 Alpha  occ. eigenvalues --  -10.13444 -10.10876 -10.10344 -10.08849 -10.08559
 Alpha  occ. eigenvalues --  -10.07672 -10.07261 -10.07189  -0.97613  -0.96297
 Alpha  occ. eigenvalues --   -0.93202  -0.83092  -0.80211  -0.74616  -0.70562
 Alpha  occ. eigenvalues --   -0.68518  -0.66418  -0.63837  -0.61033  -0.59932
 Alpha  occ. eigenvalues --   -0.54117  -0.53425  -0.52064  -0.49954  -0.48044
 Alpha  occ. eigenvalues --   -0.45166  -0.44680  -0.43185  -0.42241  -0.39870
 Alpha  occ. eigenvalues --   -0.39587  -0.38132  -0.38028  -0.36701  -0.35888
 Alpha  occ. eigenvalues --   -0.35709  -0.34378  -0.32640  -0.32037  -0.31955
 Alpha  occ. eigenvalues --   -0.30884  -0.30115  -0.29159  -0.28771  -0.28202
 Alpha  occ. eigenvalues --   -0.27028  -0.26257  -0.24899  -0.24426  -0.23798
 Alpha  occ. eigenvalues --   -0.20276  -0.19146  -0.18617  -0.18348  -0.12393
 Alpha  occ. eigenvalues --   -0.11088   0.03880
 Alpha virt. eigenvalues --    0.05445   0.06737   0.07235   0.07490   0.07586
 Alpha virt. eigenvalues --    0.08660   0.09303   0.09307   0.09845   0.10275
 Alpha virt. eigenvalues --    0.10470   0.10501   0.11252   0.11796   0.12300

  Beta  occ. eigenvalues --  -19.06044 -19.04744 -14.27302 -14.23976 -14.19465
  Beta  occ. eigenvalues --  -10.18388 -10.14436 -10.13855 -10.13698 -10.13606
  Beta  occ. eigenvalues --  -10.13421 -10.10877 -10.10342 -10.08816 -10.08543
  Beta  occ. eigenvalues --  -10.07663 -10.07210 -10.07189  -0.97602  -0.96288
  Beta  occ. eigenvalues --   -0.93197  -0.83084  -0.80203  -0.74605  -0.70534
  Beta  occ. eigenvalues --   -0.68473  -0.66398  -0.63824  -0.60985  -0.59886
  Beta  occ. eigenvalues --   -0.54068  -0.53406  -0.52031  -0.49911  -0.48015
  Beta  occ. eigenvalues --   -0.45142  -0.44663  -0.43165  -0.42187  -0.39844
  Beta  occ. eigenvalues --   -0.39569  -0.38114  -0.38008  -0.36669  -0.35864
  Beta  occ. eigenvalues --   -0.35683  -0.34353  -0.32594  -0.32004  -0.31917
  Beta  occ. eigenvalues --   -0.30860  -0.30060  -0.29123  -0.28749  -0.28186
  Beta  occ. eigenvalues --   -0.26995  -0.26214  -0.24879  -0.24404  -0.23781
  Beta  occ. eigenvalues --   -0.20266  -0.19134  -0.18603  -0.18327  -0.12386
  Beta  occ. eigenvalues --   -0.11079
  Beta virt. eigenvalues --    0.05866   0.06337   0.07287   0.07503   0.07947
  Beta virt. eigenvalues --    0.08222   0.09022   0.09582   0.09715   0.10026
  Beta virt. eigenvalues --    0.10582   0.10827   0.10884   0.11340   0.11969

 Mulliken charges and spin densities:
               1          2
     1  C    1.527323  -2.107441
     2  C   -2.597182   1.750101
     3  C    0.080811   0.223523
     4  C    0.858216  -1.207342
     5  C    0.739601  -1.030032
     6  O   -0.092359   0.004090
     7  N    0.264944  -0.027603
     8  C    1.906148  -1.735381
     9  C    0.003241   0.050335
    10  C   -0.865165   0.391572
    11  C   -1.021577   0.180122
    12  C   -0.629186   0.587697
    13  C    0.616640  -0.697097
    14  O   -0.191328   0.023618
    15  C    0.196426  -0.542745
    16  N   -0.154874  -0.009070
    17  C    0.678362  -0.119981
    18  N   -0.446339   0.073604
    19  H   -0.397941   0.565520
    20  H   -0.201825   0.364600
    21  H   -0.299393   0.460137
    22  H   -0.018714   0.253853
    23  H    0.145240   0.140928
    24  H   -0.415931   0.607903
    25  H    0.189459  -0.031177
    26  H   -0.459850   0.648598
    27  H    0.072489   0.102189
    28  H    0.146707   0.025145
    29  H   -0.038993   0.251278
    30  H   -0.877617   1.031211
    31  H   -0.034826   0.177896
    32  H   -0.072304   0.216134
    33  H   -0.139976   0.303812
    34  H    0.250241   0.041529
    35  H    0.279534   0.032473
 Sum of Mulliken charges =  -1.00000   1.00000

 Dipole moment (field-independent basis, Debye):
    X=              2.1367    Y=              5.9920    Z=             -0.4057  Tot=              6.3745
 Quadrupole moment (field-independent basis, Debye-Ang):
   XX=           -200.2720   YY=           -160.4350   ZZ=           -141.2206
   XY=            -17.5057   XZ=             -0.7171   YZ=             -1.6977

 Summary of Natural Population Analysis:

                                       Natural Population
                Natural  -----------------------------------------------
    Atom  No    Charge         Core      Valence    Rydberg      Total
 -----------------------------------------------------------------------
      C    1   -0.29277      0.99964     2.28684    0.00629     3.29277
      C    2    0.05734      0.99955     1.92834    0.01477     2.94266
      C    3   -0.01596      0.99955     2.00165    0.01477     3.01596
      C    4   -0.21063      0.99961     2.20243    0.00858     3.21063
      C    5   -0.01361      0.99959     2.00182    0.01220     3.01361
      O    6   -0.31547      0.99989     3.30692    0.00865     4.31547
      N    7   -0.23062      0.99959     2.72113    0.00990     3.73062
      C    8    0.06064      0.99945     1.92996    0.00995     2.93936
      C    9    0.07133      0.99947     1.91658    0.01263     2.92867
      C   10   -0.12852      0.99948     2.12028    0.00876     3.12852
      C   11    0.15171      0.99940     1.83495    0.01394     2.84829
      C   12   -0.15131      0.99954     2.14247    0.00931     3.15131
      C   13   -0.11046      0.99953     2.10185    0.00908     3.11046
      O   14   -0.27760      0.99986     3.26846    0.00929     4.27760
      C   15   -0.10136      0.99961     2.09247    0.00929     3.10136
      N   16   -0.29044      0.99967     2.78045    0.01033     3.79044
      C   17    0.30251      0.99962     1.68093    0.01695     2.69749
      N   18   -0.40719      0.99969     2.89927    0.00823     3.90719
      H   19    0.10476      0.00000     0.39266    0.00259     0.39524
      H   20    0.10546      0.00000     0.39341    0.00114     0.39454
      H   21    0.10378      0.00000     0.39484    0.00138     0.39622
      H   22    0.09961      0.00000     0.39856    0.00183     0.40039
      H   23    0.11379      0.00000     0.38357    0.00264     0.38621
      H   24    0.11067      0.00000     0.38614    0.00319     0.38933
      H   25    0.11214      0.00000     0.38669    0.00117     0.38786
      H   26    0.09509      0.00000     0.40321    0.00170     0.40491
      H   27    0.08166      0.00000     0.41684    0.00150     0.41834
      H   28    0.10708      0.00000     0.39134    0.00158     0.39292
      H   29    0.10539      0.00000     0.39310    0.00151     0.39461
      H   30    0.10714      0.00000     0.39092    0.00195     0.39286
      H   31    0.08399      0.00000     0.41469    0.00132     0.41601
      H   32    0.08407      0.00000     0.41459    0.00134     0.41593
      H   33    0.09106      0.00000     0.40802    0.00092     0.40894
      H   34    0.19345      0.00000     0.30479    0.00176     0.30655
      H   35    0.20329      0.00000     0.29404    0.00267     0.29671
 =======================================================================
   * Total *   -0.00000     17.99274    47.78418    0.22308    66.00000

 Normal termination of Gaussian 16 at Fri Dec 11 23:13:46 2020.
