 Gaussian 16, Revision A.03,

 -----------------------------------------------------------
 # opt freq B3LYP/6-31G(d) empiricaldispersion=gd3bj scf=xqc
 -----------------------------------------------------------

 -------------------------------
 CID_103101848_JID_4849_neutraal
 -------------------------------
 Symbolic Z-matrix:
 Charge =  0 Multiplicity = 1

 SCF Done:  E(RB3LYP) =  -669.182392579     A.U. after   14 cycles
 SCF Done:  E(RB3LYP) =  -669.186228992     A.U. after   13 cycles
 SCF Done:  E(RB3LYP) =  -669.187698334     A.U. after   13 cycles
 SCF Done:  E(RB3LYP) =  -669.188360592     A.U. after   12 cycles
 SCF Done:  E(RB3LYP) =  -669.187978850     A.U. after   12 cycles
 SCF Done:  E(RB3LYP) =  -669.187708384     A.U. after   12 cycles
 SCF Done:  E(RB3LYP) =  -669.187713383     A.U. after   11 cycles
 SCF Done:  E(RB3LYP) =  -669.188666894     A.U. after    8 cycles
 SCF Done:  E(RB3LYP) =  -669.189726792     A.U. after   12 cycles
 SCF Done:  E(RB3LYP) =  -669.189451551     A.U. after   11 cycles
 SCF Done:  E(RB3LYP) =  -669.190118765     A.U. after   10 cycles
 SCF Done:  E(RB3LYP) =  -669.190119442     A.U. after    8 cycles
 SCF Done:  E(RB3LYP) =  -669.190120042     A.U. after    7 cycles
 SCF Done:  E(RB3LYP) =  -669.190120398     A.U. after    8 cycles
 SCF Done:  E(RB3LYP) =  -669.190120485     A.U. after    7 cycles
 Optimization completed.
    -- Stationary point found.
 Normal termination of Gaussian 16 at Thu Dec 10 10:46:45 2020.

 --------------------------------------------------------------------
 #N Geom=AllCheck Guess=TCheck SCRF=Check GenChk RB3LYP/6-31G(d) Freq
 --------------------------------------------------------------------

 Structure from the checkpoint file:  "JID_4849.chk"
 -------------------------------
 CID_103101848_JID_4849_neutraal
 -------------------------------
 Charge =  0 Multiplicity = 1

 SCF Done:  E(RB3LYP) =  -669.190120485     A.U. after    1 cycles

  Exact polarizability: 129.312   9.677 115.111  -4.298  -5.264 110.361
 Approx polarizability: 177.838  21.311 166.922  -8.299 -18.961 164.599

                      1                      2                      3
                      A                      A                      A
 Frequencies --     34.9690                42.5735                54.7181
 Red. masses --      7.2100                 3.9577                 5.1027
 Frc consts  --      0.0052                 0.0042                 0.0090
 IR Inten    --      0.9863                 0.3958                 0.3958

                      4                      5                      6
                      A                      A                      A
 Frequencies --     89.4385               101.7388               130.5965
 Red. masses --      2.8986                 3.3286                 2.7995
 Frc consts  --      0.0137                 0.0203                 0.0281
 IR Inten    --      0.0674                 1.4957                 1.9327

                      7                      8                      9
                      A                      A                      A
 Frequencies --    150.7134               166.4185               187.9301
 Red. masses --      2.2657                 3.9914                 2.7006
 Frc consts  --      0.0303                 0.0651                 0.0562
 IR Inten    --      0.3041                 2.3830                 1.5938

                     10                     11                     12
                      A                      A                      A
 Frequencies --    226.7789               233.9435               249.3353
 Red. masses --      2.0953                 1.7839                 2.4190
 Frc consts  --      0.0635                 0.0575                 0.0886
 IR Inten    --      1.9641                 0.6783                 1.7574

                     13                     14                     15
                      A                      A                      A
 Frequencies --    271.9619               300.6924               319.4983
 Red. masses --      1.4087                 1.8047                 2.2698
 Frc consts  --      0.0614                 0.0961                 0.1365
 IR Inten    --      3.6803                 8.1248                34.2884

                     16                     17                     18
                      A                      A                      A
 Frequencies --    349.6985               361.2811               388.9505
 Red. masses --      2.2133                 1.9699                 2.1104
 Frc consts  --      0.1595                 0.1515                 0.1881
 IR Inten    --     33.3309                 2.9724                17.9196

                     19                     20                     21
                      A                      A                      A
 Frequencies --    408.5686               423.1578               463.5271
 Red. masses --      1.5414                 2.5761                 2.1995
 Frc consts  --      0.1516                 0.2718                 0.2784
 IR Inten    --    147.9217                45.7483                33.7284

                     22                     23                     24
                      A                      A                      A
 Frequencies --    479.9381               521.2289               548.7375
 Red. masses --      2.5558                 3.3731                 3.3075
 Frc consts  --      0.3469                 0.5399                 0.5868
 IR Inten    --     31.3322                25.7679                17.6821

                     25                     26                     27
                      A                      A                      A
 Frequencies --    618.7956               685.0999               744.9291
 Red. masses --      3.3704                 2.1411                 2.0507
 Frc consts  --      0.7604                 0.5921                 0.6705
 IR Inten    --     11.9017                 8.7821                 9.1374

                     28                     29                     30
                      A                      A                      A
 Frequencies --    750.8621               761.9581               800.3773
 Red. masses --      2.2039                 1.5504                 1.6676
 Frc consts  --      0.7321                 0.5303                 0.6294
 IR Inten    --      5.2887                10.6195                 4.0107

                     31                     32                     33
                      A                      A                      A
 Frequencies --    813.6357               884.6790               890.6604
 Red. masses --      1.3174                 2.6000                 4.2766
 Frc consts  --      0.5138                 1.1989                 1.9988
 IR Inten    --      9.9912                 3.2178                 3.1290

                     34                     35                     36
                      A                      A                      A
 Frequencies --    903.7064               927.2887               965.1723
 Red. masses --      1.7175                 1.9435                 1.5256
 Frc consts  --      0.8264                 0.9846                 0.8374
 IR Inten    --     15.6957                76.4096                66.5561

                     37                     38                     39
                      A                      A                      A
 Frequencies --    973.7558               993.1254              1028.4989
 Red. masses --      2.2119                 2.3671                 2.4738
 Frc consts  --      1.2357                 1.3756                 1.5418
 IR Inten    --     71.1897                 4.5463                 7.6140

                     40                     41                     42
                      A                      A                      A
 Frequencies --   1071.6180              1091.4942              1110.7830
 Red. masses --      2.1540                 1.4132                 2.0493
 Frc consts  --      1.4574                 0.9920                 1.4898
 IR Inten    --      2.9317                 0.9862                 6.6796

                     43                     44                     45
                      A                      A                      A
 Frequencies --   1127.5375              1142.8205              1153.4240
 Red. masses --      1.7266                 1.7155                 2.0462
 Frc consts  --      1.2933                 1.3201                 1.6039
 IR Inten    --     29.8317                 4.2695                 1.9219

                     46                     47                     48
                      A                      A                      A
 Frequencies --   1167.4111              1204.7709              1220.3056
 Red. masses --      1.7596                 1.9260                 1.5565
 Frc consts  --      1.4129                 1.6471                 1.3656
 IR Inten    --     25.7377                37.0035                 5.0460

                     49                     50                     51
                      A                      A                      A
 Frequencies --   1267.6643              1300.3849              1324.8180
 Red. masses --      1.4015                 1.7621                 1.3444
 Frc consts  --      1.3269                 1.7556                 1.3902
 IR Inten    --      1.4797                84.6708                 6.5366

                     52                     53                     54
                      A                      A                      A
 Frequencies --   1330.5189              1355.7730              1363.5394
 Red. masses --      1.2624                 1.5497                 1.3989
 Frc consts  --      1.3167                 1.6783                 1.5324
 IR Inten    --     11.2127                11.4214                 7.0106

                     55                     56                     57
                      A                      A                      A
 Frequencies --   1391.5457              1399.9019              1402.4008
 Red. masses --      1.4908                 1.7488                 1.4383
 Frc consts  --      1.7009                 2.0192                 1.6667
 IR Inten    --     12.1595                17.2234                11.1200

                     58                     59                     60
                      A                      A                      A
 Frequencies --   1411.9156              1424.5374              1445.0900
 Red. masses --      1.3889                 1.3360                 1.2539
 Frc consts  --      1.6313                 1.5974                 1.5427
 IR Inten    --     15.1329                16.9561                 7.4054

                     61                     62                     63
                      A                      A                      A
 Frequencies --   1451.4064              1481.1345              1500.8528
 Red. masses --      1.2361                 1.4624                 1.5224
 Frc consts  --      1.5342                 1.8902                 2.0204
 IR Inten    --      8.8154                38.4948                34.5392

                     64                     65                     66
                      A                      A                      A
 Frequencies --   1514.0710              1521.1979              1522.6974
 Red. masses --      1.1329                 1.0793                 1.0527
 Frc consts  --      1.5301                 1.4715                 1.4381
 IR Inten    --     20.1876                14.1830                 7.4159

                     67                     68                     69
                      A                      A                      A
 Frequencies --   1528.0936              1534.2958              1539.1951
 Red. masses --      1.0624                 1.0544                 1.0822
 Frc consts  --      1.4616                 1.4624                 1.5106
 IR Inten    --      3.3804                 2.1237                 8.2001

                     70                     71                     72
                      A                      A                      A
 Frequencies --   1547.3699              1630.1840              1693.6169
 Red. masses --      1.0681                 1.4858                 4.2210
 Frc consts  --      1.5067                 2.3264                 7.1335
 IR Inten    --      4.9372               234.8192               119.6624

                     73                     74                     75
                      A                      A                      A
 Frequencies --   1705.0596              1805.1691              3038.2670
 Red. masses --      1.0989                 8.9434                 1.0629
 Frc consts  --      1.8822                17.1707                 5.7810
 IR Inten    --     18.8731               347.6154                16.1969

                     76                     77                     78
                      A                      A                      A
 Frequencies --   3047.1068              3050.0718              3055.4250
 Red. masses --      1.0739                 1.0367                 1.0656
 Frc consts  --      5.8750                 5.6825                 5.8612
 IR Inten    --     33.8040                24.7934                 7.4673

                     79                     80                     81
                      A                      A                      A
 Frequencies --   3065.8040              3072.8665              3096.3161
 Red. masses --      1.0373                 1.0937                 1.0596
 Frc consts  --      5.7442                 6.0844                 5.9851
 IR Inten    --     21.0801                27.9145                12.8643

                     82                     83                     84
                      A                      A                      A
 Frequencies --   3099.4884              3114.6888              3117.1863
 Red. masses --      1.1015                 1.1022                 1.0996
 Frc consts  --      6.2349                 6.2998                 6.2954
 IR Inten    --      8.7599                53.4135                44.4559

                     85                     86                     87
                      A                      A                      A
 Frequencies --   3126.5141              3136.7174              3151.4791
 Red. masses --      1.0903                 1.1004                 1.1002
 Frc consts  --      6.2796                 6.3790                 6.4377
 IR Inten    --     38.9106                14.8049                12.0821

                     88                     89                     90
                      A                      A                      A
 Frequencies --   3161.9705              3176.2371              3450.9514
 Red. masses --      1.1062                 1.0902                 1.0496
 Frc consts  --      6.5161                 6.4799                 7.3650
 IR Inten    --      7.7869                25.7154                 1.9190

                     91                     92                     93
                      A                      A                      A
 Frequencies --   3504.3587              3535.3576              3681.6571
 Red. masses --      1.0530                 1.0916                 1.0996
 Frc consts  --      7.6187                 8.0383                 8.7818
 IR Inten    --    110.1136                 1.9065                76.8863

 - Thermochemistry -
 -------------------
 Temperature   298.150 Kelvin.  Pressure   1.00000 Atm.
 Atom     1 has atomic number  6 and mass  12.00000

 Molecular mass:   201.14773 amu.
 Principal axes and moments of inertia in atomic units:
                           1         2         3
     Eigenvalues --  2053.424493683.716474180.69686
           X            0.99969  -0.01880  -0.01660
           Y            0.01869   0.99981  -0.00623
           Z            0.01672   0.00592   0.99984
 This molecule is an asymmetric top.
 Rotational symmetry number  1.
 Warning -- assumption of classical behavior for rotation
           may cause significant error
 Rotational temperatures (Kelvin)      0.04218     0.02351     0.02072
 Rotational constants (GHZ):           0.87889     0.48992     0.43168
 Zero-point vibrational energy     769282.6 (Joules/Mol)
                                  183.86295 (Kcal/Mol)
 Warning -- explicit consideration of  25 degrees of freedom as
           vibrations may cause significant error
 Vibrational temperatures:     50.31    61.25    78.73   128.68   146.38
          (Kelvin)            187.90   216.84   239.44   270.39   326.28
                              336.59   358.74   391.29   432.63   459.69
                              503.14   519.80   559.61   587.84   608.83
                              666.91   690.52   749.93   789.51   890.31
                              985.71  1071.79  1080.32  1096.29  1151.56
                             1170.64  1272.86  1281.46  1300.23  1334.16
                             1388.67  1401.02  1428.89  1479.78  1541.82
                             1570.42  1598.17  1622.27  1644.26  1659.52
                             1679.64  1733.40  1755.75  1823.89  1870.96
                             1906.12  1914.32  1950.65  1961.83  2002.12
                             2014.15  2017.74  2031.43  2049.59  2079.16
                             2088.25  2131.02  2159.39  2178.41  2188.66
                             2190.82  2198.59  2207.51  2214.56  2226.32
                             2345.47  2436.74  2453.20  2597.24  4371.39
                             4384.11  4388.37  4396.08  4411.01  4421.17
                             4454.91  4459.47  4481.34  4484.94  4498.36
                             4513.04  4534.28  4549.37  4569.90  4965.15
                             5041.99  5086.59  5297.08

 Zero-point correction=                           0.293004 (Hartree/Particle)
 Thermal correction to Energy=                    0.309101
 Thermal correction to Enthalpy=                  0.310045
 Thermal correction to Gibbs Free Energy=         0.249434
 Sum of electronic and zero-point Energies=           -668.897116
 Sum of electronic and thermal Energies=              -668.881019
 Sum of electronic and thermal Enthalpies=            -668.880075
 Sum of electronic and thermal Free Energies=         -668.940686

                     E (Thermal)             CV                S
                      KCal/Mol        Cal/Mol-Kelvin    Cal/Mol-Kelvin
 Total                  193.964             59.617            127.567
 Electronic               0.000              0.000              0.000
 Translational            0.889              2.981             41.801
 Rotational               0.889              2.981             31.825
 Vibrational            192.187             53.655             53.941
 Vibration     1          0.594              1.982              5.525
 Vibration     2          0.595              1.980              5.136
 Vibration     3          0.596              1.976              4.639
 Vibration     4          0.602              1.957              3.672
 Vibration     5          0.604              1.948              3.421
 Vibration     6          0.612              1.923              2.937
 Vibration     7          0.618              1.902              2.663
 Vibration     8          0.624              1.884              2.476
 Vibration     9          0.633              1.856              2.248
 Vibration    10          0.650              1.800              1.904
 Vibration    11          0.654              1.789              1.848
 Vibration    12          0.662              1.764              1.735
 Vibration    13          0.675              1.725              1.584
 Vibration    14          0.693              1.672              1.413
 Vibration    15          0.705              1.636              1.313
 Vibration    16          0.727              1.576              1.168
 Vibration    17          0.735              1.552              1.117
 Vibration    18          0.757              1.494              1.004
 Vibration    19          0.773              1.452              0.932
 Vibration    20          0.785              1.420              0.881
 Vibration    21          0.821              1.331              0.756
 Vibration    22          0.836              1.295              0.710
 Vibration    23          0.876              1.203              0.607
 Vibration    24          0.904              1.142              0.547
 Vibration    25          0.979              0.992              0.418

 Optimization completed.
    -- Stationary point found.
 Normal termination of Gaussian 16 at Thu Dec 10 10:56:52 2020.

 ----------------------------------------------------------------------
 # B3LYP/6-311++G(d,p) empiricaldispersion=gd3bj scf=xqc pop=npa geom=c
 heck
 ----------------------------------------------------------------------

 ---------------------------------------
 CID_103101848_JID_4849_Energie_neutraal
 ---------------------------------------
 Structure from the checkpoint file:  "JID_4849.chk"
 Charge =  0 Multiplicity = 1

 SCF Done:  E(RB3LYP) =  -669.399732643     A.U. after   15 cycles
 Normal termination of Gaussian 16 at Thu Dec 10 11:01:06 2020.

 ----------------------------------------------------------------------
 # B3LYP/6-311++G(d,p) empiricaldispersion=gd3bj scf=xqc pop=npa geom=c
 heck
 ----------------------------------------------------------------------

 -------------------------------------
 CID_103101848_JID_4849_Energie_kation
 -------------------------------------
 Structure from the checkpoint file:  "JID_4849.chk"
 Charge =  1 Multiplicity = 2

 SCF Done:  E(UB3LYP) =  -669.082660460     A.U. after   27 cycles
 Normal termination of Gaussian 16 at Thu Dec 10 11:10:49 2020.
 Gaussian 16:  ES64L-G16RevA.03 25-Dec-2016

 ----------------------------------------------------------------------
 # B3LYP/6-311++G(d,p) empiricaldispersion=gd3bj scf=xqc pop=npa geom=c
 heck
 ----------------------------------------------------------------------

 ------------------------------------
 CID_103101848_JID_4849_Energie_anion
 ------------------------------------
 Structure from the checkpoint file:  "JID_4849.chk"
 Charge = -1 Multiplicity = 2

                         Standard orientation:
 ---------------------------------------------------------------------
 Center     Atomic      Atomic             Coordinates (Angstroms)
 Number     Number       Type             X           Y           Z
 ---------------------------------------------------------------------
      1          6           0       -2.221826    2.393979    0.608043
      2          6           0       -1.833488    1.144044    1.404355
      3          6           0       -2.460527   -0.150281    0.870170
      4          6           0       -1.906296   -0.635099   -0.480671
      5          6           0       -0.423411   -1.001928   -0.296203
      6          8           0       -0.167756   -1.970171    0.440002
      7          7           0        0.579337   -0.324289   -0.921081
      8          6           0        0.448737    0.886061   -1.739471
      9          6           0        1.060821    2.125935   -1.085169
     10          6           0        1.949254   -0.814494   -0.722937
     11          6           0        2.623553   -0.278698    0.553865
     12          8           0        3.597390    0.462418    0.508628
     13          7           0        2.035206   -0.700274    1.701430
     14          7           0       -2.671941   -1.811518   -0.909305
     15          1           0       -1.904271    2.334176   -0.438691
     16          1           0       -1.767222    3.294581    1.035112
     17          1           0       -3.309394    2.533177    0.611827
     18          1           0       -0.740070    1.040835    1.438794
     19          1           0       -2.151982    1.277619    2.445672
     20          1           0       -2.300943   -0.960181    1.591935
     21          1           0       -3.543329   -0.029146    0.751711
     22          1           0       -2.058078    0.137403   -1.235560
     23          1           0        0.941238    0.690763   -2.700906
     24          1           0       -0.604998    1.054863   -1.954680
     25          1           0        2.127094    1.989509   -0.886683
     26          1           0        0.938685    2.989421   -1.748226
     27          1           0        0.564997    2.347735   -0.135794
     28          1           0        1.913704   -1.906473   -0.687275
     29          1           0        2.559794   -0.492963   -1.567559
     30          1           0        1.242810   -1.335544    1.661953
     31          1           0        2.417404   -0.389329    2.583052
     32          1           0       -2.362224   -2.099793   -1.837466
     33          1           0       -2.419395   -2.579173   -0.285466
 ---------------------------------------------------------------------

 SCF Done:  E(UB3LYP) =  -669.388592187     A.U. after   33 cycles
 SCF Done:  E(UB3LYP) =  -669.388592187     a.u. after    1 cycles

 The electronic state is 2-A.
 Alpha  occ. eigenvalues --  -18.99793 -18.99565 -14.26053 -14.23424 -14.19768
 Alpha  occ. eigenvalues --  -10.18204 -10.17563 -10.11745 -10.11341 -10.11091
 Alpha  occ. eigenvalues --  -10.07594 -10.07174 -10.06668 -10.06373  -0.95199
 Alpha  occ. eigenvalues --   -0.94312  -0.84770  -0.81096  -0.79394  -0.69872
 Alpha  occ. eigenvalues --   -0.67052  -0.64591  -0.61475  -0.55847  -0.54282
 Alpha  occ. eigenvalues --   -0.50785  -0.48713  -0.45650  -0.44299  -0.43199
 Alpha  occ. eigenvalues --   -0.40121  -0.38194  -0.37687  -0.37473  -0.35272
 Alpha  occ. eigenvalues --   -0.34650  -0.33366  -0.33074  -0.32169  -0.31306
 Alpha  occ. eigenvalues --   -0.30532  -0.30275  -0.29382  -0.28872  -0.27271
 Alpha  occ. eigenvalues --   -0.26727  -0.25693  -0.24497  -0.24071  -0.23153
 Alpha  occ. eigenvalues --   -0.18586  -0.18115  -0.17649  -0.15227  -0.14868
 Alpha  occ. eigenvalues --    0.04345
 Alpha virt. eigenvalues --    0.06405   0.06887   0.07698   0.08887   0.09142
 Alpha virt. eigenvalues --    0.09351   0.09627   0.09796   0.10500   0.10789
 Alpha virt. eigenvalues --    0.11676   0.12206   0.12872   0.13194   0.13429

  Beta  occ. eigenvalues --  -18.99786 -18.99528 -14.26058 -14.23398 -14.19736
  Beta  occ. eigenvalues --  -10.18200 -10.17530 -10.11722 -10.11300 -10.11077
  Beta  occ. eigenvalues --  -10.07585 -10.07166 -10.06641 -10.06351  -0.95156
  Beta  occ. eigenvalues --   -0.94283  -0.84744  -0.81060  -0.79334  -0.69839
  Beta  occ. eigenvalues --   -0.67003  -0.64538  -0.61431  -0.55783  -0.54219
  Beta  occ. eigenvalues --   -0.50736  -0.48665  -0.45615  -0.44234  -0.43156
  Beta  occ. eigenvalues --   -0.40073  -0.38150  -0.37644  -0.37428  -0.35235
  Beta  occ. eigenvalues --   -0.34617  -0.33327  -0.33026  -0.32133  -0.31248
  Beta  occ. eigenvalues --   -0.30494  -0.30234  -0.29329  -0.28819  -0.27228
  Beta  occ. eigenvalues --   -0.26656  -0.25659  -0.24465  -0.24047  -0.23119
  Beta  occ. eigenvalues --   -0.18559  -0.18080  -0.17600  -0.15186  -0.14819
  Beta virt. eigenvalues --    0.06509   0.07349   0.07605   0.08195   0.09461
  Beta virt. eigenvalues --    0.09497   0.09652   0.10001   0.10232   0.10720
  Beta virt. eigenvalues --    0.11152   0.11896   0.12519   0.13191   0.13347

 Mulliken charges and spin densities:
               1          2
     1  C    0.462898  -1.076186
     2  C   -0.525337   0.422433
     3  C   -0.812545   0.500530
     4  C    2.164987  -2.472696
     5  C   -1.374868   0.996519
     6  O   -0.353452   0.053812
     7  N    0.029592   0.195679
     8  C    0.785347  -1.032218
     9  C    0.024867  -0.480478
    10  C    0.246102  -0.587162
    11  C    0.313650  -0.223887
    12  O   -0.338933   0.023188
    13  N   -0.431851   0.094257
    14  N   -0.296858   0.121308
    15  H    0.113545   0.039662
    16  H   -0.162506   0.303633
    17  H   -0.079061   0.205044
    18  H    0.161876  -0.056364
    19  H   -0.038790   0.212742
    20  H    0.054626   0.108440
    21  H    0.138627   0.042748
    22  H   -0.054668   0.271793
    23  H   -0.671403   0.868332
    24  H   -0.457270   0.570931
    25  H    0.171709   0.002789
    26  H   -0.389093   0.540265
    27  H    0.186211  -0.009686
    28  H   -0.175471   0.395017
    29  H    0.101647   0.105069
    30  H    0.225891   0.061948
    31  H   -0.021079   0.305477
    32  H   -0.152058   0.396912
    33  H    0.153670   0.100149
 Sum of Mulliken charges =  -1.00000   1.00000

 Dipole moment (field-independent basis, Debye):
    X=             -0.3122    Y=             -1.2560    Z=              4.8157  Tot=              4.9866
 Quadrupole moment (field-independent basis, Debye-Ang):
   XX=           -146.2159   YY=           -131.9670   ZZ=           -134.3403
   XY=             -2.7837   XZ=             -5.8970   YZ=              2.1038

 Summary of Natural Population Analysis:

                                       Natural Population
                Natural  -----------------------------------------------
    Atom  No    Charge         Core      Valence    Rydberg      Total
 -----------------------------------------------------------------------
      C    1   -0.28672      0.99966     2.28214    0.00491     3.28672
      C    2   -0.19556      0.99963     2.18815    0.00777     3.19556
      C    3   -0.18738      0.99961     2.17931    0.00847     3.18738
      C    4   -0.04865      0.99955     2.03637    0.01273     3.04865
      C    5    0.35199      0.99959     1.62323    0.02519     2.64801
      O    6   -0.35641      0.99988     3.35103    0.00550     4.35641
      N    7   -0.25087      0.99963     2.73498    0.01626     3.75087
      C    8   -0.08028      0.99959     2.06895    0.01174     3.08028
      C    9   -0.29575      0.99964     2.29052    0.00558     3.29575
      C   10   -0.12970      0.99956     2.11803    0.01212     3.12970
      C   11    0.33248      0.99970     1.64573    0.02209     2.66752
      O   12   -0.32384      0.99988     3.31804    0.00592     4.32384
      N   13   -0.40550      0.99969     2.89855    0.00726     3.90550
      N   14   -0.41194      0.99978     2.90242    0.00974     3.91194
      H   15    0.09737      0.00000     0.40126    0.00137     0.40263
      H   16    0.09954      0.00000     0.39951    0.00095     0.40046
      H   17    0.09595      0.00000     0.40307    0.00098     0.40405
      H   18    0.09646      0.00000     0.40174    0.00179     0.40354
      H   19    0.09510      0.00000     0.40401    0.00089     0.40490
      H   20    0.10238      0.00000     0.39639    0.00122     0.39762
      H   21    0.10122      0.00000     0.39750    0.00128     0.39878
      H   22    0.09905      0.00000     0.39834    0.00261     0.40095
      H   23    0.09829      0.00000     0.39825    0.00346     0.40171
      H   24    0.10255      0.00000     0.39432    0.00313     0.39745
      H   25    0.10869      0.00000     0.38992    0.00139     0.39131
      H   26    0.10400      0.00000     0.39481    0.00119     0.39600
      H   27    0.09848      0.00000     0.40008    0.00144     0.40152
      H   28    0.11716      0.00000     0.38135    0.00148     0.38284
      H   29    0.10980      0.00000     0.38900    0.00120     0.39020
      H   30    0.21297      0.00000     0.28485    0.00218     0.28703
      H   31    0.19301      0.00000     0.30487    0.00213     0.30699
      H   32    0.17794      0.00000     0.31981    0.00225     0.32206
      H   33    0.17815      0.00000     0.31968    0.00217     0.32185
 =======================================================================
   * Total *   -0.00000     13.99540    40.81621    0.18839    55.00000

 Normal termination of Gaussian 16 at Thu Dec 10 11:22:36 2020.
