 Gaussian 16, Revision A.03,

 -----------------------------------------------------------
 # opt freq B3LYP/6-31G(d) empiricaldispersion=gd3bj scf=xqc
 -----------------------------------------------------------

 ------------------------------
 CID_148633687_JID_310_neutraal
 ------------------------------
 Symbolic Z-matrix:
 Charge =  0 Multiplicity = 1

 SCF Done:  E(RB3LYP) =  -480.961576548     A.U. after   13 cycles
 SCF Done:  E(RB3LYP) =  -480.968198558     A.U. after   12 cycles
 SCF Done:  E(RB3LYP) =  -480.968753737     A.U. after   12 cycles
 SCF Done:  E(RB3LYP) =  -480.969155298     A.U. after   12 cycles
 SCF Done:  E(RB3LYP) =  -480.971518292     A.U. after   11 cycles
 SCF Done:  E(RB3LYP) =  -480.972124103     A.U. after   11 cycles
 SCF Done:  E(RB3LYP) =  -480.972782114     A.U. after   11 cycles
 SCF Done:  E(RB3LYP) =  -480.973263921     A.U. after   11 cycles
 SCF Done:  E(RB3LYP) =  -480.973192075     A.U. after   12 cycles
 SCF Done:  E(RB3LYP) =  -480.973404639     A.U. after   10 cycles
 SCF Done:  E(RB3LYP) =  -480.973513183     A.U. after    9 cycles
 SCF Done:  E(RB3LYP) =  -480.973514965     A.U. after    9 cycles
 SCF Done:  E(RB3LYP) =  -480.973515202     A.U. after    8 cycles
 SCF Done:  E(RB3LYP) =  -480.973515326     A.U. after    7 cycles
 SCF Done:  E(RB3LYP) =  -480.973515379     A.U. after    7 cycles
 Optimization completed.
    -- Stationary point found.
 Normal termination of Gaussian 16 at Tue Dec  8 10:26:35 2020.

 --------------------------------------------------------------------
 #N Geom=AllCheck Guess=TCheck SCRF=Check GenChk RB3LYP/6-31G(d) Freq
 --------------------------------------------------------------------

 Structure from the checkpoint file:  "JID_310.chk"
 ------------------------------
 CID_148633687_JID_310_neutraal
 ------------------------------
 Charge =  0 Multiplicity = 1

 SCF Done:  E(RB3LYP) =  -480.973515379     A.U. after    1 cycles

  Exact polarizability:  98.322  -3.016  91.969  -1.778   3.062  73.801
 Approx polarizability: 127.569  -9.552 141.822  -3.468   5.375 100.238

                      1                      2                      3
                      A                      A                      A
 Frequencies --     33.5357                65.5533               108.6856
 Red. masses --      3.2325                 5.3382                 2.6375
 Frc consts  --      0.0021                 0.0135                 0.0184
 IR Inten    --      2.9281                 1.5218                 0.9667

                      4                      5                      6
                      A                      A                      A
 Frequencies --    130.3830               177.4422               180.0152
 Red. masses --      2.8294                 1.2812                 1.5416
 Frc consts  --      0.0283                 0.0238                 0.0294
 IR Inten    --      1.3763                 0.2938                 1.0243

                      7                      8                      9
                      A                      A                      A
 Frequencies --    215.3346               245.8821               269.9858
 Red. masses --      1.5263                 2.2442                 1.4471
 Frc consts  --      0.0417                 0.0799                 0.0622
 IR Inten    --      0.5892                38.8586                72.5051

                     10                     11                     12
                      A                      A                      A
 Frequencies --    308.2434               369.2572               383.7134
 Red. masses --      2.8780                 2.6921                 3.1487
 Frc consts  --      0.1611                 0.2163                 0.2731
 IR Inten    --     21.1630                 4.7184                 3.6642

                     13                     14                     15
                      A                      A                      A
 Frequencies --    416.5409               454.0572               492.9352
 Red. masses --      2.7508                 2.7937                 2.0003
 Frc consts  --      0.2812                 0.3394                 0.2864
 IR Inten    --      0.4296                 2.1747                 4.8158

                     16                     17                     18
                      A                      A                      A
 Frequencies --    550.9675               582.5870               651.7941
 Red. masses --      2.7931                 2.9476                 1.9358
 Frc consts  --      0.4996                 0.5894                 0.4846
 IR Inten    --      5.5304                69.6224                 7.6358

                     19                     20                     21
                      A                      A                      A
 Frequencies --    677.5057               738.5489               759.9610
 Red. masses --      1.3511                 2.6104                 1.3585
 Frc consts  --      0.3654                 0.8389                 0.4623
 IR Inten    --     71.5385                 6.1814                 9.4655

                     22                     23                     24
                      A                      A                      A
 Frequencies --    829.3137               877.6101               896.9086
 Red. masses --      1.1799                 1.3866                 2.4259
 Frc consts  --      0.4781                 0.6292                 1.1498
 IR Inten    --      3.0956                44.4754                13.5732

                     25                     26                     27
                      A                      A                      A
 Frequencies --    925.5584               977.0118              1034.4900
 Red. masses --      2.1689                 1.7557                 2.2105
 Frc consts  --      1.0947                 0.9874                 1.3938
 IR Inten    --     10.3688                 6.6630                52.1032

                     28                     29                     30
                      A                      A                      A
 Frequencies --   1049.6518              1074.3750              1099.9769
 Red. masses --      2.6394                 2.5917                 1.6022
 Frc consts  --      1.7133                 1.7626                 1.1422
 IR Inten    --     25.5315                24.3411                28.6793

                     31                     32                     33
                      A                      A                      A
 Frequencies --   1116.0524              1123.4288              1173.6378
 Red. masses --      4.2428                 1.7585                 1.5668
 Frc consts  --      3.1137                 1.3077                 1.2716
 IR Inten    --     87.1399                23.4237                 7.5818

                     34                     35                     36
                      A                      A                      A
 Frequencies --   1204.9674              1225.2051              1249.9810
 Red. masses --      2.0019                 2.0613                 1.5609
 Frc consts  --      1.7126                 1.8231                 1.4369
 IR Inten    --     62.2286                 3.0333                25.9733

                     37                     38                     39
                      A                      A                      A
 Frequencies --   1286.3855              1324.6249              1337.2651
 Red. masses --      1.2258                 1.5678                 1.1807
 Frc consts  --      1.1951                 1.6208                 1.2440
 IR Inten    --     27.4305                 1.4444                 3.0731

                     40                     41                     42
                      A                      A                      A
 Frequencies --   1349.2960              1359.0007              1413.8967
 Red. masses --      1.5615                 1.3692                 1.2936
 Frc consts  --      1.6750                 1.4899                 1.5236
 IR Inten    --     64.3336                77.9162                 6.9535

                     43                     44                     45
                      A                      A                      A
 Frequencies --   1433.1823              1444.1038              1469.5594
 Red. masses --      1.3073                 1.2815                 1.2093
 Frc consts  --      1.5821                 1.5745                 1.5387
 IR Inten    --     64.7154                14.7507                 1.7152

                     46                     47                     48
                      A                      A                      A
 Frequencies --   1483.3143              1507.8379              1518.7656
 Red. masses --      1.1920                 1.2536                 1.1866
 Frc consts  --      1.5453                 1.6792                 1.6126
 IR Inten    --      1.5608                29.9039                75.9096

                     49                     50                     51
                      A                      A                      A
 Frequencies --   1519.7268              1530.5336              1534.7723
 Red. masses --      1.0867                 1.0880                 1.0648
 Frc consts  --      1.4787                 1.5016                 1.4777
 IR Inten    --      6.4539                37.4695                17.6179

                     52                     53                     54
                      A                      A                      A
 Frequencies --   1540.7369              1554.6036              1715.2372
 Red. masses --      1.0507                 1.0911                 4.8487
 Frc consts  --      1.4696                 1.5536                 8.4048
 IR Inten    --      1.2267                 7.4707                50.6999

                     55                     56                     57
                      A                      A                      A
 Frequencies --   2930.8001              2991.6999              3009.9884
 Red. masses --      1.0827                 1.0720                 1.0549
 Frc consts  --      5.4792                 5.6530                 5.6309
 IR Inten    --     98.5632                41.5379                80.3588

                     58                     59                     60
                      A                      A                      A
 Frequencies --   3063.4723              3075.7795              3088.8742
 Red. masses --      1.0377                 1.0635                 1.0893
 Frc consts  --      5.7378                 5.9276                 6.1237
 IR Inten    --     19.5811                18.0766                16.1623

                     61                     62                     63
                      A                      A                      A
 Frequencies --   3113.9515              3127.4600              3128.2991
 Red. masses --      1.0852                 1.1029                 1.1004
 Frc consts  --      6.1998                 6.3555                 6.3449
 IR Inten    --     27.2490                29.2253                21.4091

                     64                     65                     66
                      A                      A                      A
 Frequencies --   3152.8706              3173.7394              3192.5861
 Red. masses --      1.1002                 1.0978                 1.0602
 Frc consts  --      6.4439                 6.5150                 6.3667
 IR Inten    --     21.7150                15.8012                 2.4296

                     67                     68                     69
                      A                      A                      A
 Frequencies --   3269.2139              3495.8888              3735.4089
 Red. masses --      1.1158                 1.0657                 1.0652
 Frc consts  --      7.0260                 7.6739                 8.7573
 IR Inten    --     12.8093               355.7012                23.7713

 - Thermochemistry -
 -------------------
 Temperature   298.150 Kelvin.  Pressure   1.00000 Atm.
 Atom     1 has atomic number  6 and mass  12.00000

 Molecular mass:   145.11028 amu.
 Principal axes and moments of inertia in atomic units:
                           1         2         3
     Eigenvalues --   942.039702174.020362266.32146
           X            0.99986   0.01219  -0.01137
           Y           -0.01055   0.99082   0.13477
           Z            0.01291  -0.13464   0.99081
 This molecule is an asymmetric top.
 Rotational symmetry number  1.
 Warning -- assumption of classical behavior for rotation
           may cause significant error
 Rotational temperatures (Kelvin)      0.09194     0.03984     0.03822
 Rotational constants (GHZ):           1.91578     0.83014     0.79633
 Zero-point vibrational energy     583442.5 (Joules/Mol)
                                  139.44611 (Kcal/Mol)
 Warning -- explicit consideration of  17 degrees of freedom as
           vibrations may cause significant error
 Vibrational temperatures:     48.25    94.32   156.37   187.59   255.30
          (Kelvin)            259.00   309.82   353.77   388.45   443.49
                              531.28   552.08   599.31   653.29   709.22
                              792.72   838.21   937.79   974.78  1062.61
                             1093.41  1193.20  1262.69  1290.45  1331.67
                             1405.70  1488.40  1510.21  1545.79  1582.62
                             1605.75  1616.36  1688.60  1733.68  1762.80
                             1798.44  1850.82  1905.84  1924.03  1941.34
                             1955.30  2034.28  2062.03  2077.74  2114.37
                             2134.16  2169.44  2185.17  2186.55  2202.10
                             2208.19  2216.78  2236.73  2467.84  4216.77
                             4304.39  4330.70  4407.65  4425.36  4444.20
                             4480.28  4499.72  4500.92  4536.28  4566.30
                             4593.42  4703.67  5029.80  5374.42

 Zero-point correction=                           0.222222 (Hartree/Particle)
 Thermal correction to Energy=                    0.234074
 Thermal correction to Enthalpy=                  0.235019
 Thermal correction to Gibbs Free Energy=         0.184406
 Sum of electronic and zero-point Energies=           -480.751294
 Sum of electronic and thermal Energies=              -480.739441
 Sum of electronic and thermal Enthalpies=            -480.738497
 Sum of electronic and thermal Free Energies=         -480.789109

                     E (Thermal)             CV                S
                      KCal/Mol        Cal/Mol-Kelvin    Cal/Mol-Kelvin
 Total                  146.884             43.764            106.523
 Electronic               0.000              0.000              0.000
 Translational            0.889              2.981             40.828
 Rotational               0.889              2.981             29.919
 Vibrational            145.106             37.802             35.776
 Vibration     1          0.594              1.983              5.608
 Vibration     2          0.597              1.971              4.283
 Vibration     3          0.606              1.942              3.292
 Vibration     4          0.612              1.923              2.940
 Vibration     5          0.628              1.870              2.355
 Vibration     6          0.629              1.867              2.328
 Vibration     7          0.645              1.818              1.998
 Vibration     8          0.660              1.770              1.760
 Vibration     9          0.674              1.728              1.596
 Vibration    10          0.698              1.658              1.372
 Vibration    11          0.742              1.535              1.083
 Vibration    12          0.753              1.505              1.024
 Vibration    13          0.780              1.434              0.904
 Vibration    14          0.813              1.352              0.784
 Vibration    15          0.849              1.266              0.676
 Vibration    16          0.906              1.138              0.542
 Vibration    17          0.939              1.069              0.481

 Optimization completed.
    -- Stationary point found.
 Normal termination of Gaussian 16 at Tue Dec  8 10:31:34 2020.

 ----------------------------------------------------------------------
 # B3LYP/6-311++G(d,p) empiricaldispersion=gd3bj scf=xqc pop=npa geom=c
 heck
 ----------------------------------------------------------------------

 --------------------------------------
 CID_148633687_JID_310_Energie_neutraal
 --------------------------------------
 Structure from the checkpoint file:  "JID_310.chk"
 Charge =  0 Multiplicity = 1

 SCF Done:  E(RB3LYP) =  -481.134076807     A.U. after   13 cycles
 Normal termination of Gaussian 16 at Tue Dec  8 10:35:34 2020.

 ----------------------------------------------------------------------
 # B3LYP/6-311++G(d,p) empiricaldispersion=gd3bj scf=xqc pop=npa geom=c
 heck
 ----------------------------------------------------------------------

 ------------------------------------
 CID_148633687_JID_310_Energie_kation
 ------------------------------------
 Structure from the checkpoint file:  "JID_310.chk"
 Charge =  1 Multiplicity = 2

 SCF Done:  E(UB3LYP) =  -480.832348004     A.U. after   20 cycles
 Normal termination of Gaussian 16 at Tue Dec  8 10:43:05 2020.
 Gaussian 16:  ES64L-G16RevA.03 25-Dec-2016

 ----------------------------------------------------------------------
 # B3LYP/6-311++G(d,p) empiricaldispersion=gd3bj scf=xqc pop=npa geom=c
 heck
 ----------------------------------------------------------------------

 -----------------------------------
 CID_148633687_JID_310_Energie_anion
 -----------------------------------
 Structure from the checkpoint file:  "JID_310.chk"
 Charge = -1 Multiplicity = 2

                         Standard orientation:
 ---------------------------------------------------------------------
 Center     Atomic      Atomic             Coordinates (Angstroms)
 Number     Number       Type             X           Y           Z
 ---------------------------------------------------------------------
      1          6           0       -2.334865   -0.215201    1.643559
      2          6           0       -2.325036   -0.415334    0.129528
      3          7           0       -0.970012   -0.377250   -0.435745
      4          6           0       -0.885006   -1.089387   -1.720056
      5          6           0       -0.301514    0.890104   -0.433138
      6          6           0       -0.911872    2.058143   -0.188449
      7          6           0        1.200120    0.814698   -0.601509
      8          6           0        1.873417    0.025247    0.530089
      9          8           0        1.452684   -1.320152    0.576372
     10          8           0        3.254324    0.047832    0.283772
     11          1           0       -1.735692   -0.991797    2.130543
     12          1           0       -3.359730   -0.281186    2.024205
     13          1           0       -1.925821    0.756725    1.928469
     14          1           0       -2.727558   -1.407578   -0.097651
     15          1           0       -2.989594    0.307705   -0.371565
     16          1           0       -1.454630   -0.580024   -2.513006
     17          1           0        0.154987   -1.178742   -2.034017
     18          1           0       -1.283763   -2.099744   -1.593384
     19          1           0       -0.330524    2.971269   -0.127204
     20          1           0       -1.979385    2.151475   -0.029375
     21          1           0        1.495390    0.335381   -1.541233
     22          1           0        1.614470    1.826208   -0.613654
     23          1           0        1.646874    0.517075    1.495734
     24          1           0        0.474589   -1.294263    0.482442
     25          1           0        3.642939   -0.622816    0.868613
 ---------------------------------------------------------------------

 SCF Done:  E(UB3LYP) =  -481.116639992     A.U. after   33 cycles
 SCF Done:  E(UB3LYP) =  -481.116639992     a.u. after    1 cycles

 The electronic state is 2-A.
 Alpha  occ. eigenvalues --  -19.03265 -19.01209 -14.22728 -10.16902 -10.10882
 Alpha  occ. eigenvalues --  -10.08968 -10.08941 -10.07353 -10.05271 -10.04908
 Alpha  occ. eigenvalues --   -0.96560  -0.89401  -0.83844  -0.69302  -0.64869
 Alpha  occ. eigenvalues --   -0.62025  -0.56516  -0.53517  -0.50902  -0.44358
 Alpha  occ. eigenvalues --   -0.42370  -0.41380  -0.38896  -0.37411  -0.36610
 Alpha  occ. eigenvalues --   -0.33939  -0.31851  -0.31671  -0.29843  -0.29414
 Alpha  occ. eigenvalues --   -0.27696  -0.27591  -0.26085  -0.25384  -0.24497
 Alpha  occ. eigenvalues --   -0.24093  -0.20832  -0.18511  -0.16835  -0.12010
 Alpha  occ. eigenvalues --    0.05012
 Alpha virt. eigenvalues --    0.07206   0.07697   0.07984   0.09322   0.09764
 Alpha virt. eigenvalues --    0.10205   0.10803   0.10933   0.12199   0.12433
 Alpha virt. eigenvalues --    0.13346   0.13554   0.14897   0.15321   0.16537

  Beta  occ. eigenvalues --  -19.03255 -19.01200 -14.22726 -10.16890 -10.10872
  Beta  occ. eigenvalues --  -10.08930 -10.08900 -10.07346 -10.05227 -10.04865
  Beta  occ. eigenvalues --   -0.96541  -0.89383  -0.83820  -0.69270  -0.64814
  Beta  occ. eigenvalues --   -0.61979  -0.56431  -0.53444  -0.50828  -0.44311
  Beta  occ. eigenvalues --   -0.42339  -0.41328  -0.38849  -0.37351  -0.36561
  Beta  occ. eigenvalues --   -0.33895  -0.31812  -0.31629  -0.29787  -0.29390
  Beta  occ. eigenvalues --   -0.27664  -0.27560  -0.26009  -0.25353  -0.24461
  Beta  occ. eigenvalues --   -0.24033  -0.20816  -0.18443  -0.16808  -0.11944
  Beta virt. eigenvalues --    0.07246   0.08054   0.08511   0.08599   0.10042
  Beta virt. eigenvalues --    0.10403   0.10860   0.11089   0.11433   0.12643
  Beta virt. eigenvalues --    0.12891   0.13899   0.14182   0.15202   0.15582

 Mulliken charges and spin densities:
               1          2
     1  C    0.922921  -1.342685
     2  C    0.184809  -0.437381
     3  N   -0.224502   0.235695
     4  C    1.110247  -1.443136
     5  C   -0.936761   1.167167
     6  C    0.243564  -0.741863
     7  C   -0.058177  -0.331753
     8  C    0.481849  -0.867869
     9  O   -0.305025   0.041598
    10  O   -0.269927   0.022043
    11  H   -0.133518   0.275301
    12  H   -0.570943   0.720458
    13  H   -0.263579   0.410869
    14  H   -0.631269   0.783477
    15  H   -0.031490   0.167829
    16  H   -0.489432   0.662550
    17  H   -0.049375   0.182251
    18  H   -0.265144   0.430165
    19  H   -0.148101   0.284534
    20  H   -0.100860   0.218406
    21  H    0.151890   0.039203
    22  H   -0.010852   0.175018
    23  H   -0.002891   0.181109
    24  H    0.261537   0.042438
    25  H    0.135028   0.124577
 Sum of Mulliken charges =  -1.00000   1.00000

 Dipole moment (field-independent basis, Debye):
    X=              5.9607    Y=              1.9520    Z=             -0.3251  Tot=              6.2806
 Quadrupole moment (field-independent basis, Debye-Ang):
   XX=           -125.5664   YY=           -102.8413   ZZ=            -99.3532
   XY=             -5.9782   XZ=              3.3623   YZ=             -3.4748

 Summary of Natural Population Analysis:

                                       Natural Population
                Natural  -----------------------------------------------
    Atom  No    Charge         Core      Valence    Rydberg      Total
 -----------------------------------------------------------------------
      C    1   -0.29030      0.99966     2.28471    0.00594     3.29030
      C    2   -0.08364      0.99961     2.07155    0.01248     3.08364
      N    3   -0.29693      0.99969     2.78089    0.01635     3.79693
      C    4   -0.17293      0.99962     2.16498    0.00833     3.17293
      C    5    0.09707      0.99948     1.88855    0.01490     2.90293
      C    6   -0.21933      0.99949     2.21109    0.00875     3.21933
      C    7   -0.22483      0.99955     2.21536    0.00992     3.22483
      C    8    0.22265      0.99962     1.75964    0.01809     2.77735
      O    9   -0.39159      0.99989     3.38434    0.00736     4.39159
      O   10   -0.36993      0.99989     3.36409    0.00596     4.36993
      H   11    0.09846      0.00000     0.39995    0.00159     0.40154
      H   12    0.10373      0.00000     0.39448    0.00179     0.39627
      H   13    0.10185      0.00000     0.39652    0.00163     0.39815
      H   14    0.10148      0.00000     0.39553    0.00299     0.39852
      H   15    0.08786      0.00000     0.40968    0.00246     0.41214
      H   16    0.08902      0.00000     0.40948    0.00150     0.41098
      H   17    0.09816      0.00000     0.40064    0.00121     0.40184
      H   18    0.10140      0.00000     0.39665    0.00196     0.39860
      H   19    0.09679      0.00000     0.40221    0.00101     0.40321
      H   20    0.10064      0.00000     0.39816    0.00119     0.39936
      H   21    0.10647      0.00000     0.39201    0.00153     0.39353
      H   22    0.10877      0.00000     0.39008    0.00115     0.39123
      H   23    0.05827      0.00000     0.43999    0.00174     0.44173
      H   24    0.24511      0.00000     0.25068    0.00420     0.25489
      H   25    0.23174      0.00000     0.26518    0.00308     0.26826
 =======================================================================
   * Total *    0.00000      9.99649    29.86642    0.13709    40.00000

 Normal termination of Gaussian 16 at Tue Dec  8 10:54:57 2020.
