 Gaussian 16, Revision A.03,

 -----------------------------------------------------------
 # opt freq B3LYP/6-31G(d) empiricaldispersion=gd3bj scf=xqc
 -----------------------------------------------------------

 -----------------------------
 CID_142180437_JID_50_neutraal
 -----------------------------
 Symbolic Z-matrix:
 Charge =  0 Multiplicity = 1

 SCF Done:  E(RB3LYP) =  -441.433674192     A.U. after   14 cycles
 SCF Done:  E(RB3LYP) =  -441.438723134     A.U. after   12 cycles
 SCF Done:  E(RB3LYP) =  -441.441172156     A.U. after   12 cycles
 SCF Done:  E(RB3LYP) =  -441.442066977     A.U. after   12 cycles
 SCF Done:  E(RB3LYP) =  -441.442230450     A.U. after   11 cycles
 SCF Done:  E(RB3LYP) =  -441.442317034     A.U. after   11 cycles
 SCF Done:  E(RB3LYP) =  -441.442344572     A.U. after   10 cycles
 SCF Done:  E(RB3LYP) =  -441.442363376     A.U. after   10 cycles
 SCF Done:  E(RB3LYP) =  -441.442365050     A.U. after    9 cycles
 SCF Done:  E(RB3LYP) =  -441.442365256     A.U. after    8 cycles
 Optimization completed.
    -- Stationary point found.
 Normal termination of Gaussian 16 at Tue Dec  8 10:15:37 2020.

 --------------------------------------------------------------------
 #N Geom=AllCheck Guess=TCheck SCRF=Check GenChk RB3LYP/6-31G(d) Freq
 --------------------------------------------------------------------

 Structure from the checkpoint file:  "JID_50.chk"
 -----------------------------
 CID_142180437_JID_50_neutraal
 -----------------------------
 Charge =  0 Multiplicity = 1

 SCF Done:  E(RB3LYP) =  -441.442365256     A.U. after    1 cycles

  Exact polarizability: 121.864  -6.603 108.863  -3.569  -1.832  55.444
 Approx polarizability: 182.786 -16.390 192.377  -9.109  -4.179  82.760

                      1                      2                      3
                      A                      A                      A
 Frequencies --    106.3481               119.2738               146.7588
 Red. masses --      3.2982                 1.4222                 2.4043
 Frc consts  --      0.0220                 0.0119                 0.0305
 IR Inten    --      3.3279                 1.2316                 1.2975

                      4                      5                      6
                      A                      A                      A
 Frequencies --    193.6496               268.7795               315.7854
 Red. masses --      3.2576                 2.4825                 2.7629
 Frc consts  --      0.0720                 0.1057                 0.1623
 IR Inten    --      3.9481                10.2636                 1.2380

                      7                      8                      9
                      A                      A                      A
 Frequencies --    353.6559               374.5264               391.9790
 Red. masses --      4.8281                 1.4957                 2.1778
 Frc consts  --      0.3558                 0.1236                 0.1972
 IR Inten    --      2.5365                32.1677                33.2665

                     10                     11                     12
                      A                      A                      A
 Frequencies --    420.2412               452.4421               484.5886
 Red. masses --      1.2873                 1.7233                 3.0595
 Frc consts  --      0.1339                 0.2078                 0.4233
 IR Inten    --     41.1426                38.6344                 0.9316

                     13                     14                     15
                      A                      A                      A
 Frequencies --    512.3017               545.6244               610.1008
 Red. masses --      2.7445                 3.5651                 1.6248
 Frc consts  --      0.4244                 0.6253                 0.3563
 IR Inten    --     60.5222                 8.1919               208.9040

                     16                     17                     18
                      A                      A                      A
 Frequencies --    614.3395               650.3359               734.6183
 Red. masses --      3.0814                 5.6570                 4.3195
 Frc consts  --      0.6852                 1.4097                 1.3734
 IR Inten    --     24.7311                11.8738                 2.4372

                     19                     20                     21
                      A                      A                      A
 Frequencies --    767.1318               821.1354               845.0727
 Red. masses --      1.3383                 2.5826                 1.8825
 Frc consts  --      0.4640                 1.0260                 0.7921
 IR Inten    --     55.1808                42.3813                 1.2400

                     22                     23                     24
                      A                      A                      A
 Frequencies --    892.6121               956.6269               970.0637
 Red. masses --      3.7745                 1.9593                 1.3931
 Frc consts  --      1.7719                 1.0564                 0.7724
 IR Inten    --      1.1334                 5.7000                 2.4130

                     25                     26                     27
                      A                      A                      A
 Frequencies --    979.8369              1054.4983              1069.0932
 Red. masses --      1.7222                 1.8284                 1.4627
 Frc consts  --      0.9742                 1.1979                 0.9850
 IR Inten    --      9.5402                 9.3315                 3.8860

                     28                     29                     30
                      A                      A                      A
 Frequencies --   1099.1723              1147.4687              1172.5360
 Red. masses --      2.2187                 1.3786                 1.5792
 Frc consts  --      1.5793                 1.0695                 1.2792
 IR Inten    --     10.1356                14.2551                77.4592

                     31                     32                     33
                      A                      A                      A
 Frequencies --   1236.8748              1254.2659              1312.6853
 Red. masses --      1.3911                 1.8879                 1.6479
 Frc consts  --      1.2539                 1.7499                 1.6730
 IR Inten    --     33.0151                64.9782                69.8557

                     34                     35                     36
                      A                      A                      A
 Frequencies --   1335.4895              1350.5427              1398.8501
 Red. masses --      1.2832                 2.0154                 2.0324
 Frc consts  --      1.3484                 2.1658                 2.3431
 IR Inten    --      4.2717                25.7990                19.8726

                     37                     38                     39
                      A                      A                      A
 Frequencies --   1420.3812              1446.3480              1487.3526
 Red. masses --      1.9104                 1.3302                 1.1322
 Frc consts  --      2.2709                 1.6395                 1.4757
 IR Inten    --     15.2136                 2.0640                 9.2275

                     40                     41                     42
                      A                      A                      A
 Frequencies --   1500.9344              1525.0133              1530.6157
 Red. masses --      1.9422                 1.0574                 1.0858
 Frc consts  --      2.5779                 1.4489                 1.4987
 IR Inten    --      6.0929                 3.2279                 5.3739

                     43                     44                     45
                      A                      A                      A
 Frequencies --   1584.1791              1667.4290              1693.3246
 Red. masses --      6.5928                 1.8011                 3.7256
 Frc consts  --      9.7484                 2.9504                 6.2939
 IR Inten    --     79.2114                 0.5973                74.7137

                     46                     47                     48
                      A                      A                      A
 Frequencies --   1701.1597              3018.5736              3053.1834
 Red. masses --      2.5956                 1.0418                 1.0617
 Frc consts  --      4.4257                 5.5928                 5.8310
 IR Inten    --    145.4254                49.3587                24.8453

                     49                     50                     51
                      A                      A                      A
 Frequencies --   3068.7049              3108.7381              3118.3362
 Red. masses --      1.0981                 1.0973                 1.1030
 Frc consts  --      6.0929                 6.2481                 6.3191
 IR Inten    --     32.7184                14.2402                12.8985

                     52                     53                     54
                      A                      A                      A
 Frequencies --   3136.3524              3144.1194              3163.2156
 Red. masses --      1.0833                 1.0877                 1.0925
 Frc consts  --      6.2786                 6.3354                 6.4406
 IR Inten    --      1.6790                48.4193                52.2195

                     55                     56                     57
                      A                      A                      A
 Frequencies --   3527.8229              3634.7141              3747.0124
 Red. masses --      1.0472                 1.0983                 1.0652
 Frc consts  --      7.6788                 8.5488                 8.8111
 IR Inten    --      6.3393                 6.3747                32.6017

 - Thermochemistry -
 -------------------
 Temperature   298.150 Kelvin.  Pressure   1.00000 Atm.
 Atom     1 has atomic number  6 and mass  12.00000

 Molecular mass:   137.08406 amu.
 Principal axes and moments of inertia in atomic units:
                           1         2         3
     Eigenvalues --   923.573691471.324002176.74428
           X            0.99975  -0.02108   0.00785
           Y            0.02111   0.99977  -0.00345
           Z           -0.00778   0.00361   0.99996
 This molecule is an asymmetric top.
 Rotational symmetry number  1.
 Warning -- assumption of classical behavior for rotation
           may cause significant error
 Rotational temperatures (Kelvin)      0.09378     0.05887     0.03979
 Rotational constants (GHZ):           1.95408     1.22661     0.82910
 Zero-point vibrational energy     467960.1 (Joules/Mol)
                                  111.84514 (Kcal/Mol)
 Warning -- explicit consideration of  16 degrees of freedom as
           vibrations may cause significant error
 Vibrational temperatures:    153.01   171.61   211.15   278.62   386.71
          (Kelvin)            454.34   508.83   538.86   563.97   604.63
                              650.96   697.21   737.09   785.03   877.80
                              883.90   935.69  1056.95  1103.73  1181.43
                             1215.87  1284.27  1376.37  1395.71  1409.77
                             1517.19  1538.19  1581.46  1650.95  1687.02
                             1779.59  1804.61  1888.66  1921.47  1943.13
                             2012.63  2043.61  2080.97  2139.97  2159.51
                             2194.15  2202.21  2279.28  2399.06  2436.32
                             2447.59  4343.05  4392.85  4415.18  4472.78
                             4486.59  4512.51  4523.69  4551.16  5075.75
                             5229.54  5391.12

 Zero-point correction=                           0.178237 (Hartree/Particle)
 Thermal correction to Energy=                    0.187953
 Thermal correction to Enthalpy=                  0.188897
 Thermal correction to Gibbs Free Energy=         0.144090
 Sum of electronic and zero-point Energies=           -441.264129
 Sum of electronic and thermal Energies=              -441.254412
 Sum of electronic and thermal Enthalpies=            -441.253468
 Sum of electronic and thermal Free Energies=         -441.298275

                     E (Thermal)             CV                S
                      KCal/Mol        Cal/Mol-Kelvin    Cal/Mol-Kelvin
 Total                  117.942             38.223             94.304
 Electronic               0.000              0.000              0.000
 Translational            0.889              2.981             40.658
 Rotational               0.889              2.981             29.471
 Vibrational            116.165             32.261             24.175
 Vibration     1          0.605              1.944              3.335
 Vibration     2          0.609              1.933              3.112
 Vibration     3          0.617              1.906              2.714
 Vibration     4          0.635              1.849              2.193
 Vibration     5          0.673              1.731              1.604
 Vibration     6          0.703              1.643              1.332
 Vibration     7          0.730              1.568              1.150
 Vibration     8          0.746              1.524              1.061
 Vibration     9          0.759              1.487              0.993
 Vibration    10          0.783              1.426              0.891
 Vibration    11          0.811              1.355              0.788
 Vibration    12          0.841              1.284              0.698
 Vibration    13          0.867              1.223              0.628
 Vibration    14          0.901              1.149              0.553
 Vibration    15          0.969              1.010              0.433
 Vibration    16          0.974              1.002              0.426

 Optimization completed.
    -- Stationary point found.
 Normal termination of Gaussian 16 at Tue Dec  8 10:19:17 2020.

 ----------------------------------------------------------------------
 # B3LYP/6-311++G(d,p) empiricaldispersion=gd3bj scf=xqc pop=npa geom=c
 heck
 ----------------------------------------------------------------------

 -------------------------------------
 CID_142180437_JID_50_Energie_neutraal
 -------------------------------------
 Structure from the checkpoint file:  "JID_50.chk"
 Charge =  0 Multiplicity = 1

 SCF Done:  E(RB3LYP) =  -441.581197203     A.U. after   15 cycles
 Normal termination of Gaussian 16 at Tue Dec  8 10:20:29 2020.

 ----------------------------------------------------------------------
 # B3LYP/6-311++G(d,p) empiricaldispersion=gd3bj scf=xqc pop=npa geom=c
 heck
 ----------------------------------------------------------------------

 -----------------------------------
 CID_142180437_JID_50_Energie_kation
 -----------------------------------
 Structure from the checkpoint file:  "JID_50.chk"
 Charge =  1 Multiplicity = 2

 SCF Done:  E(UB3LYP) =  -441.326313733     A.U. after   20 cycles
 Normal termination of Gaussian 16 at Tue Dec  8 10:22:41 2020.
 Gaussian 16:  ES64L-G16RevA.03 25-Dec-2016

 ----------------------------------------------------------------------
 # B3LYP/6-311++G(d,p) empiricaldispersion=gd3bj scf=xqc pop=npa geom=c
 heck
 ----------------------------------------------------------------------

 ----------------------------------
 CID_142180437_JID_50_Energie_anion
 ----------------------------------
 Structure from the checkpoint file:  "JID_50.chk"
 Charge = -1 Multiplicity = 2

                         Standard orientation:
 ---------------------------------------------------------------------
 Center     Atomic      Atomic             Coordinates (Angstroms)
 Number     Number       Type             X           Y           Z
 ---------------------------------------------------------------------
      1          6           0       -2.822434    0.084324   -0.461138
      2          6           0       -1.406799    0.251006    0.050519
      3          6           0       -0.617831   -0.836191    0.264456
      4          6           0        0.711930   -0.749519    0.950054
      5          6           0        1.677567   -0.063234    0.013531
      6          6           0        1.529471    1.265285   -0.253712
      7          6           0        0.371300    2.040651    0.091182
      8          6           0       -0.914446    1.595309    0.243395
      9          7           0        2.649278   -0.865995   -0.568361
     10          8           0       -0.956706   -2.117116   -0.085570
     11          1           0       -3.446778    0.920568   -0.128555
     12          1           0       -3.295350   -0.835303   -0.092127
     13          1           0       -2.875147    0.073860   -1.559710
     14          1           0        0.616637   -0.155972    1.866741
     15          1           0        1.051771   -1.757148    1.206814
     16          1           0        2.328347    1.776899   -0.790520
     17          1           0        0.522626    3.117408    0.156050
     18          1           0       -1.677808    2.353080    0.418188
     19          1           0        3.073467   -1.556232    0.041429
     20          1           0        3.334684   -0.377947   -1.132719
     21          1           0       -1.696294   -2.086097   -0.712229
 ---------------------------------------------------------------------

 SCF Done:  E(UB3LYP) =  -441.567515092     A.U. after   32 cycles

 The electronic state is 2-A.
 Alpha  occ. eigenvalues --  -19.04359 -14.20764 -10.11761 -10.10284 -10.06903
 Alpha  occ. eigenvalues --  -10.06205 -10.05648 -10.05604 -10.05257 -10.04063
 Alpha  occ. eigenvalues --   -0.95147  -0.80759  -0.71910  -0.66046  -0.64862
 Alpha  occ. eigenvalues --   -0.59132  -0.53852  -0.51019  -0.46205  -0.43323
 Alpha  occ. eigenvalues --   -0.40279  -0.38600  -0.35808  -0.34023  -0.32815
 Alpha  occ. eigenvalues --   -0.32217  -0.30285  -0.29178  -0.27514  -0.26334
 Alpha  occ. eigenvalues --   -0.25397  -0.24553  -0.23508  -0.21290  -0.18687
 Alpha  occ. eigenvalues --   -0.11415  -0.07597   0.04644
 Alpha virt. eigenvalues --    0.06535   0.08059   0.08918   0.09159   0.09552
 Alpha virt. eigenvalues --    0.10447   0.10933   0.11408   0.12028   0.13224
 Alpha virt. eigenvalues --    0.13943   0.14298   0.15147   0.16554   0.17214

  Beta  occ. eigenvalues --  -19.04323 -14.20691 -10.11740 -10.10264 -10.06884
  Beta  occ. eigenvalues --  -10.06156 -10.05655 -10.05594 -10.05239 -10.04050
  Beta  occ. eigenvalues --   -0.95074  -0.80667  -0.71867  -0.65995  -0.64815
  Beta  occ. eigenvalues --   -0.59060  -0.53795  -0.50937  -0.46132  -0.43242
  Beta  occ. eigenvalues --   -0.40217  -0.38539  -0.35758  -0.33963  -0.32767
  Beta  occ. eigenvalues --   -0.32174  -0.30239  -0.29142  -0.27468  -0.26277
  Beta  occ. eigenvalues --   -0.25351  -0.24509  -0.23472  -0.21224  -0.18625
  Beta  occ. eigenvalues --   -0.11370  -0.07508
  Beta virt. eigenvalues --    0.07105   0.08072   0.08474   0.09134   0.09800
  Beta virt. eigenvalues --    0.10161   0.11052   0.11256   0.11867   0.12466
  Beta virt. eigenvalues --    0.13699   0.14050   0.14753   0.15511   0.16705

 Mulliken charges and spin densities:
               1          2
     1  C    2.398655  -3.073583
     2  C    0.541402   0.580245
     3  C   -2.037639   1.605235
     4  C    2.149550  -2.816561
     5  C    0.631965  -0.364710
     6  C   -0.454699   0.040147
     7  C    1.218494  -1.339464
     8  C   -2.608342   2.062174
     9  N   -0.458460   0.180894
    10  O   -0.205151   0.019013
    11  H   -0.193913   0.342247
    12  H   -0.447960   0.581189
    13  H   -0.087914   0.257299
    14  H    0.042702   0.101203
    15  H   -0.051565   0.218978
    16  H   -0.333831   0.463609
    17  H    0.053848   0.080941
    18  H   -0.066168   0.187943
    19  H   -0.313001   0.550158
    20  H   -0.492369   0.757519
    21  H   -0.285604   0.565524
 Sum of Mulliken charges =  -1.00000   1.00000

 Dipole moment (field-independent basis, Debye):
    X=             -2.7777    Y=              2.7467    Z=              2.0997  Tot=              4.4349
 Quadrupole moment (field-independent basis, Debye-Ang):
   XX=           -126.6228   YY=            -94.5560   ZZ=            -86.5111
   XY=              0.6952   XZ=              2.3090   YZ=             -1.5966

 Summary of Natural Population Analysis:

                                       Natural Population
                Natural  -----------------------------------------------
    Atom  No    Charge         Core      Valence    Rydberg      Total
 -----------------------------------------------------------------------
      C    1   -0.29625      0.99964     2.28985    0.00675     3.29625
      C    2   -0.08846      0.99943     2.07818    0.01086     3.08846
      C    3    0.18307      0.99933     1.80259    0.01500     2.81693
      C    4   -0.22678      0.99954     2.21717    0.01006     3.22678
      C    5    0.11680      0.99949     1.86967    0.01404     2.88320
      C    6   -0.16766      0.99947     2.15725    0.01094     3.16766
      C    7   -0.10456      0.99956     2.09517    0.00983     3.10456
      C    8   -0.11377      0.99953     2.10452    0.00972     3.11377
      N    9   -0.38750      0.99970     2.87720    0.01060     3.88750
      O   10   -0.34288      0.99988     3.33588    0.00712     4.34288
      H   11    0.10403      0.00000     0.39484    0.00114     0.39597
      H   12    0.09930      0.00000     0.39880    0.00190     0.40070
      H   13    0.10198      0.00000     0.39671    0.00131     0.39802
      H   14    0.11136      0.00000     0.38748    0.00117     0.38864
      H   15    0.11077      0.00000     0.38777    0.00146     0.38923
      H   16    0.09966      0.00000     0.39901    0.00132     0.40034
      H   17    0.09241      0.00000     0.40632    0.00127     0.40759
      H   18    0.09157      0.00000     0.40690    0.00154     0.40843
      H   19    0.18726      0.00000     0.30556    0.00717     0.31274
      H   20    0.19019      0.00000     0.30187    0.00795     0.30981
      H   21    0.23947      0.00000     0.25612    0.00440     0.26053
 =======================================================================
   * Total *    0.00000      9.99558    26.86887    0.13555    37.00000

 Normal termination of Gaussian 16 at Tue Dec  8 10:26:13 2020.
