 Gaussian 16, Revision A.03,

 -----------------------------------------------------------
 # opt freq B3LYP/6-31G(d) empiricaldispersion=gd3bj scf=xqc
 -----------------------------------------------------------

 ----------------------------
 CID_560352_JID_1881_neutraal
 ----------------------------
 Symbolic Z-matrix:
 Charge =  0 Multiplicity = 1

 SCF Done:  E(RB3LYP) =  -519.148726236     A.U. after   14 cycles
 SCF Done:  E(RB3LYP) =  -519.151541537     A.U. after   12 cycles
 SCF Done:  E(RB3LYP) =  -519.151584320     A.U. after   12 cycles
 SCF Done:  E(RB3LYP) =  -519.152237553     A.U. after   11 cycles
 SCF Done:  E(RB3LYP) =  -519.152166250     A.U. after   11 cycles
 SCF Done:  E(RB3LYP) =  -519.152401095     A.U. after   11 cycles
 SCF Done:  E(RB3LYP) =  -519.152435100     A.U. after   11 cycles
 SCF Done:  E(RB3LYP) =  -519.152511729     A.U. after   10 cycles
 SCF Done:  E(RB3LYP) =  -519.152619157     A.U. after   11 cycles
 SCF Done:  E(RB3LYP) =  -519.152669930     A.U. after   12 cycles
 SCF Done:  E(RB3LYP) =  -519.152937788     A.U. after   12 cycles
 SCF Done:  E(RB3LYP) =  -519.152943864     A.U. after   11 cycles
 SCF Done:  E(RB3LYP) =  -519.152956689     A.U. after   10 cycles
 SCF Done:  E(RB3LYP) =  -519.152957605     A.U. after    8 cycles
 SCF Done:  E(RB3LYP) =  -519.152957714     A.U. after    8 cycles
 SCF Done:  E(RB3LYP) =  -519.152957740     A.U. after    7 cycles
 Optimization completed.
    -- Stationary point found.
 Normal termination of Gaussian 16 at Tue Dec  8 21:36:52 2020.

 --------------------------------------------------------------------
 #N Geom=AllCheck Guess=TCheck SCRF=Check GenChk RB3LYP/6-31G(d) Freq
 --------------------------------------------------------------------

 Structure from the checkpoint file:  "JID_1881.chk"
 ----------------------------
 CID_560352_JID_1881_neutraal
 ----------------------------
 Charge =  0 Multiplicity = 1

 SCF Done:  E(RB3LYP) =  -519.152957739     A.U. after    1 cycles

  Exact polarizability: 116.091  -0.000  93.263  -4.674  -0.001  77.698
 Approx polarizability: 165.077   0.000 132.274  -8.377  -0.008 107.815

                      1                      2                      3
                      A                      A                      A
 Frequencies --     22.0124                46.6035                54.0076
 Red. masses --      5.0854                 2.7006                 3.5177
 Frc consts  --      0.0015                 0.0035                 0.0060
 IR Inten    --      0.7070                 0.4713                 0.1286

                      4                      5                      6
                      A                      A                      A
 Frequencies --     91.2351               104.7116               106.5775
 Red. masses --      4.4243                 3.5364                 2.4558
 Frc consts  --      0.0217                 0.0228                 0.0164
 IR Inten    --      4.0145                 3.8689                 0.7058

                      7                      8                      9
                      A                      A                      A
 Frequencies --    197.8416               208.2332               243.0091
 Red. masses --      2.0520                 1.6911                 1.8213
 Frc consts  --      0.0473                 0.0432                 0.0634
 IR Inten    --      1.1094                 1.1342                 3.3088

                     10                     11                     12
                      A                      A                      A
 Frequencies --    286.2956               307.2548               320.7297
 Red. masses --      1.5066                 1.8771                 2.3897
 Frc consts  --      0.0728                 0.1044                 0.1448
 IR Inten    --      0.0965                 8.7980                 8.4223

                     13                     14                     15
                      A                      A                      A
 Frequencies --    388.1230               421.0596               432.8706
 Red. masses --      2.7174                 2.2665                 7.3338
 Frc consts  --      0.2412                 0.2368                 0.8096
 IR Inten    --      6.8763                 1.2801                 7.5622

                     16                     17                     18
                      A                      A                      A
 Frequencies --    553.0980               610.3115               638.0404
 Red. masses --      2.5832                 2.6583                 5.0934
 Frc consts  --      0.4656                 0.5834                 1.2217
 IR Inten    --      5.5906                 2.7258                 0.5865

                     19                     20                     21
                      A                      A                      A
 Frequencies --    682.3057               734.6620               739.5022
 Red. masses --      2.1704                 1.3693                 1.5692
 Frc consts  --      0.5953                 0.4354                 0.5056
 IR Inten    --     18.6758                99.5979                 2.8496

                     22                     23                     24
                      A                      A                      A
 Frequencies --    794.2729               858.4646               874.9633
 Red. masses --      1.5526                 2.1733                 2.7769
 Frc consts  --      0.5771                 0.9437                 1.2525
 IR Inten    --     15.8412                 2.4711                14.4339

                     25                     26                     27
                      A                      A                      A
 Frequencies --    888.5364               900.0992               915.5279
 Red. masses --      2.2065                 1.4815                 1.4694
 Frc consts  --      1.0264                 0.7072                 0.7256
 IR Inten    --      1.6948                11.2860                 0.4111

                     28                     29                     30
                      A                      A                      A
 Frequencies --    937.2317              1062.4924              1065.9495
 Red. masses --      2.1670                 1.8936                 1.9092
 Frc consts  --      1.1215                 1.2594                 1.2782
 IR Inten    --     16.4802                10.9261                 0.3826

                     31                     32                     33
                      A                      A                      A
 Frequencies --   1101.3233              1107.6528              1126.1624
 Red. masses --      1.6661                 1.8701                 1.7613
 Frc consts  --      1.1906                 1.3518                 1.3161
 IR Inten    --      7.2375                 1.4175                21.5832

                     34                     35                     36
                      A                      A                      A
 Frequencies --   1136.7080              1229.2213              1249.3308
 Red. masses --      1.7046                 1.7569                 1.5192
 Frc consts  --      1.2977                 1.5641                 1.3971
 IR Inten    --      0.3232               188.1759                20.7224

                     37                     38                     39
                      A                      A                      A
 Frequencies --   1291.0687              1291.8916              1312.9966
 Red. masses --      1.7514                 1.6445                 1.2977
 Frc consts  --      1.7200                 1.6171                 1.3181
 IR Inten    --     20.4681               132.5284                71.3182

                     40                     41                     42
                      A                      A                      A
 Frequencies --   1318.4775              1393.0796              1393.3929
 Red. masses --      1.4543                 1.4143                 1.4221
 Frc consts  --      1.4895                 1.6171                 1.6268
 IR Inten    --     38.7931                15.5748                 0.0360

                     43                     44                     45
                      A                      A                      A
 Frequencies --   1405.9968              1410.4176              1444.5122
 Red. masses --      1.5473                 1.7638                 1.2641
 Frc consts  --      1.8021                 2.0672                 1.5541
 IR Inten    --     85.2051                27.7380                11.0326

                     46                     47                     48
                      A                      A                      A
 Frequencies --   1445.2594              1456.9147              1495.7189
 Red. masses --      1.2635                 1.6529                 1.1040
 Frc consts  --      1.5549                 2.0672                 1.4552
 IR Inten    --      0.0540                39.8891                 8.3558

                     49                     50                     51
                      A                      A                      A
 Frequencies --   1517.9506              1518.2265              1530.9366
 Red. masses --      1.0681                 1.0706                 1.0662
 Frc consts  --      1.4501                 1.4540                 1.4723
 IR Inten    --      0.0015                 7.8871                 0.8758

                     52                     53                     54
                      A                      A                      A
 Frequencies --   1532.5377              1533.3473              1534.9857
 Red. masses --      1.0674                 1.0487                 1.0586
 Frc consts  --      1.4771                 1.4527                 1.4696
 IR Inten    --      3.4713                16.3384                 8.8091

                     55                     56                     57
                      A                      A                      A
 Frequencies --   1539.1875              1790.1793              1795.2649
 Red. masses --      1.0710                 7.3486                11.3580
 Frc consts  --      1.4949                13.8755                21.5680
 IR Inten    --     15.8082               426.5033               115.5014

                     58                     59                     60
                      A                      A                      A
 Frequencies --   3044.5755              3045.1442              3055.5197
 Red. masses --      1.0373                 1.0370                 1.0692
 Frc consts  --      5.6649                 5.6658                 5.8812
 IR Inten    --      3.8352                35.2151                11.1834

                     61                     62                     63
                      A                      A                      A
 Frequencies --   3056.1655              3066.1254              3066.5605
 Red. masses --      1.0698                 1.0676                 1.0686
 Frc consts  --      5.8870                 5.9132                 5.9204
 IR Inten    --     10.4143                48.4275                 6.4093

                     64                     65                     66
                      A                      A                      A
 Frequencies --   3097.0195              3097.3759              3119.3380
 Red. masses --      1.0991                 1.0992                 1.1031
 Frc consts  --      6.2113                 6.2135                 6.3239
 IR Inten    --      6.5084                 4.2517                10.6748

                     67                     68                     69
                      A                      A                      A
 Frequencies --   3119.8243              3120.6404              3120.8406
 Red. masses --      1.1027                 1.1004                 1.1006
 Frc consts  --      6.3235                 6.3140                 6.3158
 IR Inten    --     46.3465                72.2579                22.8421

                     70                     71                     72
                      A                      A                      A
 Frequencies --   3159.6219              3181.4468              3551.5604
 Red. masses --      1.0908                 1.0856                 1.0751
 Frc consts  --      6.4160                 6.4741                 7.9897
 IR Inten    --     25.6908                10.9459                38.8167

 - Thermochemistry -
 -------------------
 Temperature   298.150 Kelvin.  Pressure   1.00000 Atm.
 Atom     1 has atomic number  6 and mass  12.00000

 Molecular mass:   157.11028 amu.
 Principal axes and moments of inertia in atomic units:
                           1         2         3
     Eigenvalues --  1314.262482507.628613173.54378
           X            0.99988   0.00001   0.01520
           Y           -0.00001   1.00000   0.00002
           Z           -0.01520  -0.00002   0.99988
 This molecule is an asymmetric top.
 Rotational symmetry number  1.
 Warning -- assumption of classical behavior for rotation
           may cause significant error
 Rotational temperatures (Kelvin)      0.06590     0.03454     0.02729
 Rotational constants (GHZ):           1.37320     0.71970     0.56868
 Zero-point vibrational energy     599870.5 (Joules/Mol)
                                  143.37250 (Kcal/Mol)
 Warning -- explicit consideration of  17 degrees of freedom as
           vibrations may cause significant error
 Vibrational temperatures:     31.67    67.05    77.70   131.27   150.66
          (Kelvin)            153.34   284.65   299.60   349.64   411.92
                              442.07   461.46   558.42   605.81   622.80
                              795.78   878.10   918.00   981.69  1057.01
                             1063.98  1142.78  1235.14  1258.88  1278.41
                             1295.04  1317.24  1348.47  1528.69  1533.66
                             1584.56  1593.67  1620.30  1635.47  1768.58
                             1797.51  1857.56  1858.74  1889.11  1896.99
                             2004.33  2004.78  2022.92  2029.28  2078.33
                             2079.41  2096.18  2152.01  2183.99  2184.39
                             2202.68  2204.98  2206.14  2208.50  2214.55
                             2575.67  2582.99  4380.47  4381.28  4396.21
                             4397.14  4411.47  4412.10  4455.92  4456.43
                             4488.03  4488.73  4489.91  4490.19  4545.99
                             4577.39  5109.90

 Zero-point correction=                           0.228479 (Hartree/Particle)
 Thermal correction to Energy=                    0.241335
 Thermal correction to Enthalpy=                  0.242279
 Thermal correction to Gibbs Free Energy=         0.187568
 Sum of electronic and zero-point Energies=           -518.924479
 Sum of electronic and thermal Energies=              -518.911623
 Sum of electronic and thermal Enthalpies=            -518.910679
 Sum of electronic and thermal Free Energies=         -518.965389

                     E (Thermal)             CV                S
                      KCal/Mol        Cal/Mol-Kelvin    Cal/Mol-Kelvin
 Total                  151.440             45.608            115.148
 Electronic               0.000              0.000              0.000
 Translational            0.889              2.981             41.065
 Rotational               0.889              2.981             30.726
 Vibrational            149.662             39.647             43.357
 Vibration     1          0.593              1.985              6.444
 Vibration     2          0.595              1.979              4.957
 Vibration     3          0.596              1.976              4.665
 Vibration     4          0.602              1.955              3.633
 Vibration     5          0.605              1.945              3.365
 Vibration     6          0.605              1.944              3.330
 Vibration     7          0.637              1.843              2.153
 Vibration     8          0.642              1.828              2.059
 Vibration     9          0.659              1.774              1.781
 Vibration    10          0.684              1.699              1.496
 Vibration    11          0.697              1.660              1.377
 Vibration    12          0.706              1.634              1.306
 Vibration    13          0.756              1.496              1.007
 Vibration    14          0.784              1.424              0.888
 Vibration    15          0.794              1.399              0.849
 Vibration    16          0.908              1.133              0.538
 Vibration    17          0.969              1.010              0.432

                           ! Non-Optimized Parameters !
 Normal termination of Gaussian 16 at Tue Dec  8 21:43:16 2020.

 ----------------------------------------------------------------------
 # B3LYP/6-311++G(d,p) empiricaldispersion=gd3bj scf=xqc pop=npa geom=c
 heck
 ----------------------------------------------------------------------

 ------------------------------------
 CID_560352_JID_1881_Energie_neutraal
 ------------------------------------
 Structure from the checkpoint file:  "JID_1881.chk"
 Charge =  0 Multiplicity = 1

 SCF Done:  E(RB3LYP) =  -519.310452871     A.U. after   13 cycles
 Normal termination of Gaussian 16 at Tue Dec  8 21:46:04 2020.

 ----------------------------------------------------------------------
 # B3LYP/6-311++G(d,p) empiricaldispersion=gd3bj scf=xqc pop=npa geom=c
 heck
 ----------------------------------------------------------------------

 ----------------------------------
 CID_560352_JID_1881_Energie_kation
 ----------------------------------
 Structure from the checkpoint file:  "JID_1881.chk"
 Charge =  1 Multiplicity = 2

 SCF Done:  E(UB3LYP) =  -518.961587841     A.U. after   23 cycles
 Normal termination of Gaussian 16 at Tue Dec  8 21:52:28 2020.
 Gaussian 16:  ES64L-G16RevA.03 25-Dec-2016

 ----------------------------------------------------------------------
 # B3LYP/6-311++G(d,p) empiricaldispersion=gd3bj scf=xqc pop=npa geom=c
 heck
 ----------------------------------------------------------------------

 ---------------------------------
 CID_560352_JID_1881_Energie_anion
 ---------------------------------
 Structure from the checkpoint file:  "JID_1881.chk"
 Charge = -1 Multiplicity = 2

                         Standard orientation:
 ---------------------------------------------------------------------
 Center     Atomic      Atomic             Coordinates (Angstroms)
 Number     Number       Type             X           Y           Z
 ---------------------------------------------------------------------
      1          6           0       -2.357898   -1.468068   -1.204982
      2          6           0       -2.568297   -1.152834    0.277873
      3          6           0       -1.385641   -0.408193    0.915480
      4          6           0       -1.250786    1.005036    0.372174
      5          8           0       -2.207594    1.759960    0.359720
      6          7           0        0.000049    1.517484    0.000478
      7          6           0        1.250508    1.004925   -0.372282
      8          8           0        2.207333    1.759848   -0.360874
      9          6           0        1.384962   -0.408574   -0.914952
     10          6           0        2.568254   -1.152736   -0.277979
     11          6           0        2.358993   -1.467053    1.205240
     12          1           0       -2.191349   -0.552155   -1.784315
     13          1           0       -3.234697   -1.969938   -1.627359
     14          1           0       -1.494527   -2.126980   -1.358423
     15          1           0       -3.462317   -0.533540    0.401983
     16          1           0       -2.737853   -2.080958    0.836387
     17          1           0       -1.582262   -0.270259    1.986898
     18          1           0       -0.462752   -0.982371    0.845696
     19          1           0        0.000048    2.534424    0.000224
     20          1           0        0.462251   -0.982849   -0.843843
     21          1           0        1.580439   -0.271279   -1.986662
     22          1           0        2.737383   -2.081194   -0.836067
     23          1           0        3.462145   -0.533480   -0.403173
     24          1           0        1.495499   -2.125566    1.359739
     25          1           0        3.235942   -1.968995    1.627218
     26          1           0        2.193224   -0.550739    1.784155
 ---------------------------------------------------------------------

 SCF Done:  E(UB3LYP) =  -519.307241489     A.U. after   26 cycles

 The electronic state is 2-A.
 Alpha  occ. eigenvalues --  -18.97045 -18.97045 -14.22945 -10.14941 -10.14939
 Alpha  occ. eigenvalues --  -10.06298 -10.06297 -10.06039 -10.06038 -10.05409
 Alpha  occ. eigenvalues --  -10.05408  -0.93344  -0.91741  -0.79234  -0.68709
 Alpha  occ. eigenvalues --   -0.68278  -0.60030  -0.59852  -0.52781  -0.50541
 Alpha  occ. eigenvalues --   -0.47220  -0.43383  -0.38286  -0.38003  -0.35375
 Alpha  occ. eigenvalues --   -0.34763  -0.33110  -0.32336  -0.30923  -0.29907
 Alpha  occ. eigenvalues --   -0.29488  -0.29020  -0.28089  -0.26624  -0.24259
 Alpha  occ. eigenvalues --   -0.23950  -0.23339  -0.23222  -0.22390  -0.21820
 Alpha  occ. eigenvalues --   -0.16097  -0.15857  -0.13249   0.04474
 Alpha virt. eigenvalues --    0.07380   0.07664   0.08203   0.09762   0.10027
 Alpha virt. eigenvalues --    0.10515   0.11389   0.11822   0.12181   0.13380
 Alpha virt. eigenvalues --    0.13589   0.13946   0.14175   0.14411   0.16514

  Beta  occ. eigenvalues --  -18.96841 -18.96840 -14.23032 -10.14713 -10.14711
  Beta  occ. eigenvalues --  -10.06302 -10.06301 -10.06011 -10.06010 -10.05386
  Beta  occ. eigenvalues --  -10.05385  -0.92990  -0.91343  -0.79134  -0.68647
  Beta  occ. eigenvalues --   -0.68195  -0.59848  -0.59755  -0.52432  -0.50407
  Beta  occ. eigenvalues --   -0.47103  -0.43225  -0.38092  -0.37873  -0.35051
  Beta  occ. eigenvalues --   -0.34565  -0.32901  -0.32221  -0.30698  -0.29634
  Beta  occ. eigenvalues --   -0.29432  -0.28863  -0.27814  -0.26012  -0.24216
  Beta  occ. eigenvalues --   -0.23878  -0.23268  -0.23095  -0.21775  -0.21769
  Beta  occ. eigenvalues --   -0.15922  -0.15300  -0.13084
  Beta virt. eigenvalues --    0.07202   0.08296   0.08663   0.09191   0.09994
  Beta virt. eigenvalues --    0.10579   0.11084   0.11859   0.12015   0.12203
  Beta virt. eigenvalues --    0.13590   0.13777   0.14094   0.14582   0.15299

 Mulliken charges and spin densities:
               1          2
     1  C   -0.064383  -0.436793
     2  C    0.236360  -0.632177
     3  C   -0.329651   0.539787
     4  C    0.053430  -0.153529
     5  O   -0.349006   0.080508
     6  N   -0.298050   0.004259
     7  C    0.052869  -0.152890
     8  O   -0.348972   0.080432
     9  C   -0.328966   0.539226
    10  C    0.233899  -0.629332
    11  C   -0.063860  -0.437492
    12  H    0.097512   0.060228
    13  H   -0.164577   0.302995
    14  H   -0.282916   0.428921
    15  H    0.146690   0.007265
    16  H   -0.357681   0.512968
    17  H   -0.273587   0.472162
    18  H    0.794078  -0.696977
    19  H    0.282030   0.028797
    20  H    0.797971  -0.701424
    21  H   -0.273106   0.471623
    22  H   -0.357510   0.512782
    23  H    0.146459   0.007532
    24  H   -0.282381   0.428319
    25  H   -0.164184   0.302587
    26  H    0.097533   0.060223
 Sum of Mulliken charges =  -1.00000   1.00000

 Dipole moment (field-independent basis, Debye):
    X=              0.0035    Y=              1.0852    Z=             -0.0011  Tot=              1.0853
 Quadrupole moment (field-independent basis, Debye-Ang):
   XX=           -118.2492   YY=           -111.0790   ZZ=            -92.8219
   XY=             -0.0035   XZ=              6.5973   YZ=              0.0059

 Summary of Natural Population Analysis:

                                       Natural Population
                Natural  -----------------------------------------------
    Atom  No    Charge         Core      Valence    Rydberg      Total
 -----------------------------------------------------------------------
      C    1   -0.28777      0.99967     2.28261    0.00550     3.28777
      C    2   -0.18793      0.99964     2.17959    0.00870     3.18793
      C    3   -0.23772      0.99958     2.22955    0.00859     3.23772
      C    4    0.37859      0.99968     1.59964    0.02208     2.62141
      O    5   -0.29962      0.99987     3.29394    0.00581     4.29962
      N    6   -0.34299      0.99965     2.83435    0.00900     3.84299
      C    7    0.37857      0.99968     1.59967    0.02208     2.62143
      O    8   -0.29966      0.99987     3.29398    0.00581     4.29966
      C    9   -0.23772      0.99958     2.22955    0.00859     3.23772
      C   10   -0.18793      0.99964     2.17959    0.00870     3.18793
      C   11   -0.28777      0.99967     2.28261    0.00550     3.28777
      H   12    0.09861      0.00000     0.40049    0.00089     0.40139
      H   13    0.09681      0.00000     0.40245    0.00073     0.40319
      H   14    0.09596      0.00000     0.40282    0.00122     0.40404
      H   15    0.10173      0.00000     0.39701    0.00126     0.39827
      H   16    0.09553      0.00000     0.40289    0.00158     0.40447
      H   17    0.11619      0.00000     0.38228    0.00152     0.38381
      H   18    0.10181      0.00000     0.39616    0.00203     0.39819
      H   19    0.19868      0.00000     0.29825    0.00307     0.30132
      H   20    0.10182      0.00000     0.39615    0.00203     0.39818
      H   21    0.11618      0.00000     0.38230    0.00152     0.38382
      H   22    0.09553      0.00000     0.40289    0.00158     0.40447
      H   23    0.10173      0.00000     0.39700    0.00126     0.39827
      H   24    0.09596      0.00000     0.40282    0.00122     0.40404
      H   25    0.09681      0.00000     0.40246    0.00073     0.40319
      H   26    0.09862      0.00000     0.40049    0.00089     0.40138
 =======================================================================
   * Total *   -0.00000     10.99654    31.87155    0.13191    43.00000

 Normal termination of Gaussian 16 at Tue Dec  8 21:58:58 2020.
