 Gaussian 16, Revision A.03,

 -----------------------------------------------------------
 # opt freq B3LYP/6-31G(d) empiricaldispersion=gd3bj scf=xqc
 -----------------------------------------------------------

 ------------------------------
 CID_89397036_JID_8915_neutraal
 ------------------------------
 Symbolic Z-matrix:
 Charge =  0 Multiplicity = 1

 SCF Done:  E(RB3LYP) =  -877.372764754     A.U. after   15 cycles
 SCF Done:  E(RB3LYP) =  -877.378009083     A.U. after   12 cycles
 SCF Done:  E(RB3LYP) =  -877.378686651     A.U. after   12 cycles
 SCF Done:  E(RB3LYP) =  -877.378577520     A.U. after   12 cycles
 SCF Done:  E(RB3LYP) =  -877.378859666     A.U. after   12 cycles
 SCF Done:  E(RB3LYP) =  -877.379010751     A.U. after   11 cycles
 SCF Done:  E(RB3LYP) =  -877.379082513     A.U. after   12 cycles
 SCF Done:  E(RB3LYP) =  -877.379107574     A.U. after   11 cycles
 SCF Done:  E(RB3LYP) =  -877.379120418     A.U. after   10 cycles
 SCF Done:  E(RB3LYP) =  -877.379123558     A.U. after   10 cycles
 SCF Done:  E(RB3LYP) =  -877.379124273     A.U. after    8 cycles
 SCF Done:  E(RB3LYP) =  -877.379124394     A.U. after    8 cycles
 SCF Done:  E(RB3LYP) =  -877.379124435     A.U. after    8 cycles
 Optimization completed.
    -- Stationary point found.
 Normal termination of Gaussian 16 at Fri Dec 11 21:24:04 2020.

 --------------------------------------------------------------------
 #N Geom=AllCheck Guess=TCheck SCRF=Check GenChk RB3LYP/6-31G(d) Freq
 --------------------------------------------------------------------

 Structure from the checkpoint file:  "JID_8915.chk"
 ------------------------------
 CID_89397036_JID_8915_neutraal
 ------------------------------
 Charge =  0 Multiplicity = 1

 SCF Done:  E(RB3LYP) =  -877.379124435     A.U. after    1 cycles

  Exact polarizability: 183.249  -2.081 165.096 -23.870  -1.620  97.855
 Approx polarizability: 251.429   2.646 271.242 -48.719  -5.445 154.546

                      1                      2                      3
                      A                      A                      A
 Frequencies --     35.5538                38.6202                56.1244
 Red. masses --      5.9401                 7.6039                 4.7505
 Frc consts  --      0.0044                 0.0067                 0.0088
 IR Inten    --      0.5920                 2.8928                 0.3313

                      4                      5                      6
                      A                      A                      A
 Frequencies --     62.6913               119.3876               155.5297
 Red. masses --      4.9266                 3.3343                 1.5554
 Frc consts  --      0.0114                 0.0280                 0.0222
 IR Inten    --      0.2669                 0.0460                 5.8582

                      7                      8                      9
                      A                      A                      A
 Frequencies --    166.9058               182.3681               204.6596
 Red. masses --      2.3762                 3.5192                 3.3736
 Frc consts  --      0.0390                 0.0690                 0.0833
 IR Inten    --      1.5806                 2.8788                 3.4692

                     10                     11                     12
                      A                      A                      A
 Frequencies --    217.4930               242.8973               258.4677
 Red. masses --      1.2672                 3.7277                 1.1444
 Frc consts  --      0.0353                 0.1296                 0.0450
 IR Inten    --      0.8352                 2.3059                24.1438

                     13                     14                     15
                      A                      A                      A
 Frequencies --    265.9960               270.2845               290.7036
 Red. masses --      3.0741                 1.3150                 2.2630
 Frc consts  --      0.1282                 0.0566                 0.1127
 IR Inten    --      1.5629                26.7318                 2.1656

                     16                     17                     18
                      A                      A                      A
 Frequencies --    291.9026               316.3276               339.2224
 Red. masses --      2.4162                 2.9102                 4.2917
 Frc consts  --      0.1213                 0.1716                 0.2910
 IR Inten    --      4.1371                 5.2439                 1.7085

                     19                     20                     21
                      A                      A                      A
 Frequencies --    367.6478               371.6532               431.0929
 Red. masses --      4.6643                 2.8957                 5.2953
 Frc consts  --      0.3714                 0.2357                 0.5798
 IR Inten    --      7.7261                12.3869                 1.6316

                     22                     23                     24
                      A                      A                      A
 Frequencies --    455.6753               493.1527               498.8741
 Red. masses --      6.1516                 5.9850                 7.2589
 Frc consts  --      0.7526                 0.8576                 1.0644
 IR Inten    --      2.8270                 5.4307                 5.6961

                     25                     26                     27
                      A                      A                      A
 Frequencies --    532.1228               557.1381               588.0990
 Red. masses --      4.3500                 4.5844                 3.6500
 Frc consts  --      0.7257                 0.8384                 0.7438
 IR Inten    --      1.4612                10.7457                21.1793

                     28                     29                     30
                      A                      A                      A
 Frequencies --    594.4486               624.6251               627.3600
 Red. masses --      4.8460                 2.6976                 1.7327
 Frc consts  --      1.0089                 0.6201                 0.4018
 IR Inten    --     32.5244                 6.6353                47.3175

                     31                     32                     33
                      A                      A                      A
 Frequencies --    637.3641               669.0795               693.0420
 Red. masses --      2.9276                 4.7400                 5.4832
 Frc consts  --      0.7007                 1.2502                 1.5517
 IR Inten    --     53.2627                87.8884                46.2550

                     34                     35                     36
                      A                      A                      A
 Frequencies --    740.2606               767.8093               775.5208
 Red. masses --      3.0862                 2.3104                 2.5921
 Frc consts  --      0.9964                 0.8025                 0.9185
 IR Inten    --     67.9338               127.7245               151.3166

                     37                     38                     39
                      A                      A                      A
 Frequencies --    787.9602               838.3686               849.5699
 Red. masses --      1.3937                 1.4129                 2.7180
 Frc consts  --      0.5098                 0.5851                 1.1558
 IR Inten    --    209.8798                74.8194                12.2439

                     40                     41                     42
                      A                      A                      A
 Frequencies --    879.2009               928.1918               949.2422
 Red. masses --      2.9216                 2.4435                 2.3584
 Frc consts  --      1.3306                 1.2403                 1.2520
 IR Inten    --      8.3732                 4.9773                27.0404

                     43                     44                     45
                      A                      A                      A
 Frequencies --    996.2269              1010.9850              1040.2006
 Red. masses --      1.8433                 3.4534                 1.9000
 Frc consts  --      1.0779                 2.0796                 1.2112
 IR Inten    --      0.4789                28.4371                84.1212

                     46                     47                     48
                      A                      A                      A
 Frequencies --   1052.1861              1070.8146              1095.9788
 Red. masses --      1.8337                 1.4489                 3.0465
 Frc consts  --      1.1961                 0.9789                 2.1560
 IR Inten    --      2.3673                 2.0479                85.6568

                     49                     50                     51
                      A                      A                      A
 Frequencies --   1119.4099              1129.5659              1157.2765
 Red. masses --      3.0806                 2.3377                 3.5355
 Frc consts  --      2.2744                 1.7573                 2.7898
 IR Inten    --      3.3055                38.7292                54.6146

                     52                     53                     54
                      A                      A                      A
 Frequencies --   1172.5696              1188.6270              1209.4500
 Red. masses --      2.4127                 1.7395                 1.9802
 Frc consts  --      1.9545                 1.4480                 1.7066
 IR Inten    --     22.5570                67.4326               318.6066

                     55                     56                     57
                      A                      A                      A
 Frequencies --   1218.7533              1276.9884              1286.9399
 Red. masses --      2.0735                 2.0446                 1.5263
 Frc consts  --      1.8146                 1.9644                 1.4894
 IR Inten    --     39.7145                 5.7083                19.5122

                     58                     59                     60
                      A                      A                      A
 Frequencies --   1297.2936              1312.0938              1356.3481
 Red. masses --      1.6138                 1.3038                 1.3307
 Frc consts  --      1.6002                 1.3225                 1.4424
 IR Inten    --     12.3818                 6.0565                 4.6736

                     61                     62                     63
                      A                      A                      A
 Frequencies --   1368.0906              1377.1602              1386.9529
 Red. masses --      2.0210                 2.4342                 3.3931
 Frc consts  --      2.2286                 2.7201                 3.8457
 IR Inten    --     43.0348                23.1079                51.2742

                     64                     65                     66
                      A                      A                      A
 Frequencies --   1408.1889              1414.9137              1429.0959
 Red. masses --      1.3837                 1.5862                 2.4931
 Frc consts  --      1.6167                 1.8709                 2.9999
 IR Inten    --      7.0226                27.3150                15.2502

                     67                     68                     69
                      A                      A                      A
 Frequencies --   1442.3482              1446.1057              1505.3707
 Red. masses --      1.3260                 1.2951                 2.1104
 Frc consts  --      1.6253                 1.5957                 2.8178
 IR Inten    --      5.1357                 6.4383                45.5660

                     70                     71                     72
                      A                      A                      A
 Frequencies --   1512.2581              1522.4702              1527.7075
 Red. masses --      1.0446                 1.0967                 1.0611
 Frc consts  --      1.4075                 1.4978                 1.4592
 IR Inten    --      6.6066                 7.2756                 6.0418

                     73                     74                     75
                      A                      A                      A
 Frequencies --   1538.4506              1541.8176              1559.6316
 Red. masses --      1.2517                 1.2923                 3.9006
 Frc consts  --      1.7455                 1.8099                 5.5901
 IR Inten    --     36.1794                38.7252               141.0179

                     76                     77                     78
                      A                      A                      A
 Frequencies --   1662.4392              1669.3612              1684.5254
 Red. masses --      5.8541                 1.6697                 1.1722
 Frc consts  --      9.5324                 2.7415                 1.9597
 IR Inten    --      4.2006                25.9769                94.3053

                     79                     80                     81
                      A                      A                      A
 Frequencies --   1701.7239              1848.1935              3015.1896
 Red. masses --      2.3878                 9.6042                 1.0493
 Frc consts  --      4.0740                19.3289                 5.6207
 IR Inten    --     11.9403               249.1580                53.5532

                     82                     83                     84
                      A                      A                      A
 Frequencies --   3046.4174              3064.9836              3073.5948
 Red. masses --      1.0688                 1.0351                 1.0884
 Frc consts  --      5.8443                 5.7290                 6.0583
 IR Inten    --     42.6344                18.0366                24.9738

                     85                     86                     87
                      A                      A                      A
 Frequencies --   3099.3713              3120.2641              3128.5082
 Red. masses --      1.0862                 1.0888                 1.0993
 Frc consts  --      6.1477                 6.2456                 6.3391
 IR Inten    --     21.1882                 4.1903                15.1927

                     88                     89                     90
                      A                      A                      A
 Frequencies --   3132.1246              3140.0863              3144.7472
 Red. masses --      1.1022                 1.0976                 1.1000
 Frc consts  --      6.3705                 6.3765                 6.4093
 IR Inten    --     24.8984                31.7984                18.4087

                     91                     92                     93
                      A                      A                      A
 Frequencies --   3174.9810              3521.7847              3526.2561
 Red. masses --      1.0896                 1.0483                 1.0484
 Frc consts  --      6.4715                 7.6606                 7.6811
 IR Inten    --     20.6117                 8.5984                 4.4132

                     94                     95                     96
                      A                      A                      A
 Frequencies --   3619.5059              3626.8881              3687.4614
 Red. masses --      1.0959                 1.0959                 1.0641
 Frc consts  --      8.4594                 8.4935                 8.5246
 IR Inten    --     10.1142                11.1608                54.3613

 - Thermochemistry -
 -------------------
 Temperature   298.150 Kelvin.  Pressure   1.00000 Atm.
 Atom     1 has atomic number  6 and mass  12.00000

 Molecular mass:   252.11101 amu.
 Principal axes and moments of inertia in atomic units:
                           1         2         3
     Eigenvalues --  2534.118185707.295687089.58332
           X            0.99970  -0.02228  -0.01064
           Y            0.02217   0.99971  -0.00962
           Z            0.01086   0.00938   0.99990
 This molecule is an asymmetric top.
 Rotational symmetry number  1.
 Warning -- assumption of classical behavior for rotation
           may cause significant error
 Rotational temperatures (Kelvin)      0.03418     0.01518     0.01222
 Rotational constants (GHZ):           0.71218     0.31622     0.25456
 Zero-point vibrational energy     734706.4 (Joules/Mol)
                                  175.59904 (Kcal/Mol)
 Warning -- explicit consideration of  28 degrees of freedom as
           vibrations may cause significant error
 Vibrational temperatures:     51.15    55.57    80.75    90.20   171.77
          (Kelvin)            223.77   240.14   262.39   294.46   312.92
                              349.48   371.88   382.71   388.88   418.26
                              419.98   455.12   488.07   528.96   534.73
                              620.25   655.62   709.54   717.77   765.61
                              801.60   846.14   855.28   898.70   902.63
                              917.02   962.66   997.13  1065.07  1104.71
                             1115.80  1133.70  1206.23  1222.34  1264.97
                             1335.46  1365.75  1433.35  1454.58  1496.62
                             1513.86  1540.66  1576.87  1610.58  1625.19
                             1665.06  1687.07  1710.17  1740.13  1753.51
                             1837.30  1851.62  1866.52  1887.81  1951.48
                             1968.38  1981.43  1995.52  2026.07  2035.75
                             2056.15  2075.22  2080.62  2165.89  2175.80
                             2190.49  2198.03  2213.49  2218.33  2243.96
                             2391.88  2401.84  2423.66  2448.40  2659.14
                             4338.19  4383.12  4409.83  4422.22  4459.30
                             4489.36  4501.23  4506.43  4517.88  4524.59
                             4568.09  5067.06  5073.50  5207.66  5218.28
                             5305.43

 Zero-point correction=                           0.279835 (Hartree/Particle)
 Thermal correction to Energy=                    0.297352
 Thermal correction to Enthalpy=                  0.298296
 Thermal correction to Gibbs Free Energy=         0.234700
 Sum of electronic and zero-point Energies=           -877.099290
 Sum of electronic and thermal Energies=              -877.081773
 Sum of electronic and thermal Enthalpies=            -877.080829
 Sum of electronic and thermal Free Energies=         -877.144425

                     E (Thermal)             CV                S
                      KCal/Mol        Cal/Mol-Kelvin    Cal/Mol-Kelvin
 Total                  186.591             67.279            133.850
 Electronic               0.000              0.000              0.000
 Translational            0.889              2.981             42.474
 Rotational               0.889              2.981             32.994
 Vibrational            184.814             61.318             58.381
 Vibration     1          0.594              1.982              5.493
 Vibration     2          0.594              1.981              5.329
 Vibration     3          0.596              1.975              4.589
 Vibration     4          0.597              1.972              4.371
 Vibration     5          0.609              1.933              3.110
 Vibration     6          0.620              1.896              2.603
 Vibration     7          0.624              1.883              2.470
 Vibration     8          0.630              1.864              2.304
 Vibration     9          0.640              1.833              2.091
 Vibration    10          0.646              1.814              1.980
 Vibration    11          0.659              1.774              1.782
 Vibration    12          0.667              1.748              1.672
 Vibration    13          0.672              1.735              1.622
 Vibration    14          0.674              1.728              1.594
 Vibration    15          0.687              1.691              1.470
 Vibration    16          0.687              1.689              1.463
 Vibration    17          0.703              1.642              1.329
 Vibration    18          0.719              1.597              1.216
 Vibration    19          0.740              1.539              1.090
 Vibration    20          0.743              1.530              1.073
 Vibration    21          0.792              1.403              0.855
 Vibration    22          0.814              1.348              0.779
 Vibration    23          0.849              1.265              0.675
 Vibration    24          0.854              1.253              0.661
 Vibration    25          0.887              1.179              0.582
 Vibration    26          0.913              1.124              0.530
 Vibration    27          0.945              1.057              0.471
 Vibration    28          0.952              1.044              0.459

 Optimization completed.
    -- Stationary point found.
 Normal termination of Gaussian 16 at Fri Dec 11 21:38:29 2020.

 ----------------------------------------------------------------------
 # B3LYP/6-311++G(d,p) empiricaldispersion=gd3bj scf=xqc pop=npa geom=c
 heck
 ----------------------------------------------------------------------

 --------------------------------------
 CID_89397036_JID_8915_Energie_neutraal
 --------------------------------------
 Structure from the checkpoint file:  "JID_8915.chk"
 Charge =  0 Multiplicity = 1

 SCF Done:  E(RB3LYP) =  -877.645957995     A.U. after   16 cycles
 Normal termination of Gaussian 16 at Fri Dec 11 21:44:19 2020.

 ----------------------------------------------------------------------
 # B3LYP/6-311++G(d,p) empiricaldispersion=gd3bj scf=xqc pop=npa geom=c
 heck
 ----------------------------------------------------------------------

 ------------------------------------
 CID_89397036_JID_8915_Energie_kation
 ------------------------------------
 Structure from the checkpoint file:  "JID_8915.chk"
 Charge =  1 Multiplicity = 2

 SCF Done:  E(UB3LYP) =  -877.403529893     A.U. after   22 cycles
 Normal termination of Gaussian 16 at Fri Dec 11 21:55:02 2020.
 Gaussian 16:  ES64L-G16RevA.03 25-Dec-2016

 ----------------------------------------------------------------------
 # B3LYP/6-311++G(d,p) empiricaldispersion=gd3bj scf=xqc pop=npa geom=c
 heck
 ----------------------------------------------------------------------

 -----------------------------------
 CID_89397036_JID_8915_Energie_anion
 -----------------------------------
 Structure from the checkpoint file:  "JID_8915.chk"
 Charge = -1 Multiplicity = 2

                         Standard orientation:
 ---------------------------------------------------------------------
 Center     Atomic      Atomic             Coordinates (Angstroms)
 Number     Number       Type             X           Y           Z
 ---------------------------------------------------------------------
      1          6           0       -4.442155    0.376527    0.857973
      2          6           0       -3.030699    0.394598    0.331102
      3          6           0       -2.396745    1.597492    0.001169
      4          6           0       -1.093452    1.641593   -0.500283
      5          6           0       -0.428014    0.422807   -0.688969
      6          6           0       -1.033773   -0.780513   -0.333280
      7          6           0       -2.340112   -0.817029    0.174279
      8          7           0       -2.942903   -2.059581    0.457298
      9          8           0       -0.353160   -1.985596   -0.413964
     10          6           0        0.812622   -1.927706   -1.226874
     11          6           0        1.639014   -0.687217   -0.897313
     12          8           0        0.858440    0.469176   -1.207536
     13          6           0        2.112562   -0.610816    0.571438
     14          6           0        3.063555   -1.755495    0.944167
     15          6           0        2.743066    0.755637    0.767255
     16          8           0        2.248619    1.688108    1.359485
     17          8           0        3.955243    0.842014    0.159464
     18          7           0       -0.448074    2.837374   -0.858898
     19          1           0       -4.489556    0.038670    1.904419
     20          1           0       -5.072790   -0.306354    0.274930
     21          1           0       -4.889922    1.373688    0.819658
     22          1           0       -2.934481    2.532089    0.143141
     23          1           0       -2.260804   -2.808868    0.488614
     24          1           0       -3.494996   -2.050764    1.308092
     25          1           0        0.529275   -1.883783   -2.286980
     26          1           0        1.365487   -2.851219   -1.044300
     27          1           0        2.507033   -0.639418   -1.561596
     28          1           0        1.232074   -0.627719    1.217940
     29          1           0        3.910886   -1.809499    0.253715
     30          1           0        3.461536   -1.615700    1.954004
     31          1           0        2.534161   -2.712619    0.927891
     32          1           0        4.265774    1.754993    0.306955
     33          1           0       -0.793581    3.631124   -0.330815
     34          1           0        0.558390    2.761935   -0.748042
 ---------------------------------------------------------------------

 SCF Done:  E(UB3LYP) =  -877.636996641     A.U. after   33 cycles
 SCF Done:  E(UB3LYP) =  -877.636996641     a.u. after    1 cycles

 The electronic state is 2-A.
 Alpha  occ. eigenvalues --  -19.07279 -19.06522 -19.06118 -19.01995 -14.21666
 Alpha  occ. eigenvalues --  -14.21663 -10.20969 -10.14985 -10.14086 -10.13177
 Alpha  occ. eigenvalues --  -10.12897 -10.10887 -10.10599 -10.10118 -10.08015
 Alpha  occ. eigenvalues --  -10.07889 -10.07665 -10.06888  -1.01430  -0.99716
 Alpha  occ. eigenvalues --   -0.96155  -0.92487  -0.82381  -0.81299  -0.73986
 Alpha  occ. eigenvalues --   -0.72367  -0.68112  -0.64334  -0.62267  -0.59985
 Alpha  occ. eigenvalues --   -0.57944  -0.55506  -0.51300  -0.50904  -0.47303
 Alpha  occ. eigenvalues --   -0.45594  -0.44427  -0.42584  -0.40361  -0.39423
 Alpha  occ. eigenvalues --   -0.38823  -0.38394  -0.37882  -0.36653  -0.36545
 Alpha  occ. eigenvalues --   -0.35412  -0.33795  -0.33574  -0.33035  -0.31994
 Alpha  occ. eigenvalues --   -0.31535  -0.30539  -0.29910  -0.29571  -0.28686
 Alpha  occ. eigenvalues --   -0.28072  -0.27448  -0.26546  -0.25420  -0.23534
 Alpha  occ. eigenvalues --   -0.23336  -0.22632  -0.21010  -0.18373  -0.17290
 Alpha  occ. eigenvalues --   -0.12137  -0.08770   0.03928
 Alpha virt. eigenvalues --    0.05640   0.06403   0.07331   0.07885   0.08152
 Alpha virt. eigenvalues --    0.08935   0.09130   0.09618   0.10117   0.10587
 Alpha virt. eigenvalues --    0.10862   0.11312   0.11366   0.12228   0.12438

  Beta  occ. eigenvalues --  -19.07222 -19.06513 -19.06117 -19.01965 -14.21653
  Beta  occ. eigenvalues --  -14.21635 -10.20947 -10.14974 -10.14059 -10.13176
  Beta  occ. eigenvalues --  -10.12896 -10.10886 -10.10597 -10.10107 -10.08014
  Beta  occ. eigenvalues --  -10.07869 -10.07619 -10.06885  -1.01348  -0.99700
  Beta  occ. eigenvalues --   -0.96143  -0.92411  -0.82357  -0.81270  -0.73954
  Beta  occ. eigenvalues --   -0.72334  -0.68083  -0.64296  -0.62237  -0.59952
  Beta  occ. eigenvalues --   -0.57866  -0.55453  -0.51212  -0.50878  -0.47261
  Beta  occ. eigenvalues --   -0.45573  -0.44399  -0.42545  -0.40324  -0.39379
  Beta  occ. eigenvalues --   -0.38778  -0.38360  -0.37844  -0.36605  -0.36506
  Beta  occ. eigenvalues --   -0.35375  -0.33766  -0.33526  -0.33006  -0.31958
  Beta  occ. eigenvalues --   -0.31500  -0.30523  -0.29886  -0.29539  -0.28633
  Beta  occ. eigenvalues --   -0.28055  -0.27413  -0.26526  -0.25398  -0.23467
  Beta  occ. eigenvalues --   -0.23314  -0.22578  -0.20987  -0.18305  -0.17274
  Beta  occ. eigenvalues --   -0.12129  -0.08754
  Beta virt. eigenvalues --    0.05956   0.06686   0.07175   0.07894   0.08325
  Beta virt. eigenvalues --    0.08418   0.09171   0.09364   0.10167   0.10341
  Beta virt. eigenvalues --    0.10698   0.11125   0.11351   0.11714   0.12297

 Mulliken charges and spin densities:
               1          2
     1  C    1.241456  -1.613184
     2  C    0.545591   0.292496
     3  C   -0.883428   0.191823
     4  C   -0.194558  -0.258885
     5  C    0.486378  -0.223122
     6  C   -1.042938   0.623289
     7  C   -0.210525   0.042427
     8  N   -0.400168   0.011577
     9  O   -0.114238   0.032748
    10  C    1.121414  -1.503011
    11  C   -0.864019   1.111041
    12  O   -0.116598   0.000692
    13  C    0.205037  -0.165472
    14  C    1.419171  -2.101115
    15  C   -0.564405   0.249494
    16  O   -0.244257   0.027987
    17  O   -0.180620   0.083927
    18  N   -0.308780  -0.016697
    19  H   -0.082351   0.246747
    20  H    0.027827   0.141590
    21  H    0.071343   0.063685
    22  H   -0.005796   0.106375
    23  H   -0.000079   0.280771
    24  H   -0.043405   0.277343
    25  H    0.099456   0.090156
    26  H   -0.432040   0.609408
    27  H   -0.199201   0.476257
    28  H    0.234578   0.027303
    29  H   -0.058032   0.238435
    30  H   -0.137507   0.302197
    31  H   -0.392034   0.552851
    32  H   -0.365770   0.665988
    33  H    0.182489   0.047089
    34  H    0.206010   0.087788
 Sum of Mulliken charges =  -1.00000   1.00000

 Dipole moment (field-independent basis, Debye):
    X=             -3.7741    Y=              2.1087    Z=             -0.5589  Tot=              4.3592
 Quadrupole moment (field-independent basis, Debye-Ang):
   XX=           -185.3439   YY=           -153.3654   ZZ=           -138.1897
   XY=             -9.1351   XZ=             -0.0723   YZ=              3.1304

 Summary of Natural Population Analysis:

                                       Natural Population
                Natural  -----------------------------------------------
    Atom  No    Charge         Core      Valence    Rydberg      Total
 -----------------------------------------------------------------------
      C    1   -0.29268      0.99964     2.28813    0.00491     3.29268
      C    2   -0.03448      0.99950     2.02549    0.00949     3.03448
      C    3   -0.12215      0.99950     2.11507    0.00758     3.12215
      C    4    0.06270      0.99946     1.92798    0.00986     2.93730
      C    5    0.11105      0.99929     1.87766    0.01200     2.88895
      C    6    0.11800      0.99930     1.86985    0.01285     2.88200
      C    7    0.05513      0.99941     1.93388    0.01158     2.94487
      N    8   -0.40343      0.99972     2.89316    0.01055     3.90343
      O    9   -0.28157      0.99987     3.27161    0.01009     4.28157
      C   10   -0.01831      0.99954     2.00648    0.01229     3.01831
      C   11    0.05849      0.99952     1.92762    0.01436     2.94151
      O   12   -0.28308      0.99987     3.27377    0.00944     4.28308
      C   13   -0.16838      0.99953     2.15656    0.01229     3.16838
      C   14   -0.28491      0.99965     2.27913    0.00613     3.28491
      C   15    0.41698      0.99968     1.55573    0.02761     2.58302
      O   16   -0.30405      0.99987     3.29754    0.00664     4.30405
      O   17   -0.34845      0.99988     3.34110    0.00748     4.34845
      N   18   -0.39936      0.99972     2.89054    0.00911     3.89936
      H   19    0.09902      0.00000     0.39930    0.00168     0.40098
      H   20    0.10497      0.00000     0.39358    0.00145     0.39503
      H   21    0.10063      0.00000     0.39856    0.00081     0.39937
      H   22    0.09457      0.00000     0.40450    0.00093     0.40543
      H   23    0.19158      0.00000     0.30625    0.00218     0.30842
      H   24    0.18342      0.00000     0.31462    0.00196     0.31658
      H   25    0.09009      0.00000     0.40873    0.00118     0.40991
      H   26    0.10141      0.00000     0.39698    0.00161     0.39859
      H   27    0.10488      0.00000     0.39333    0.00179     0.39512
      H   28    0.11626      0.00000     0.38157    0.00217     0.38374
      H   29    0.10567      0.00000     0.39271    0.00162     0.39433
      H   30    0.10532      0.00000     0.39357    0.00110     0.39468
      H   31    0.10461      0.00000     0.39383    0.00156     0.39539
      H   32    0.24413      0.00000     0.24156    0.01431     0.25587
      H   33    0.17926      0.00000     0.31940    0.00134     0.32074
      H   34    0.19267      0.00000     0.30535    0.00198     0.30733
 =======================================================================
   * Total *    0.00000     17.99294    48.77513    0.23193    67.00000

 Normal termination of Gaussian 16 at Fri Dec 11 22:10:45 2020.
