 Gaussian 16, Revision A.03,

 -----------------------------------------------------------
 # opt freq B3LYP/6-31G(d) empiricaldispersion=gd3bj scf=xqc
 -----------------------------------------------------------

 -------------------------------
 CID_103546078_JID_9053_neutraal
 -------------------------------
 Symbolic Z-matrix:
 Charge =  0 Multiplicity = 1

 SCF Done:  E(RB3LYP) =  -933.902204902     A.U. after   15 cycles
 SCF Done:  E(RB3LYP) =  -933.911123118     A.U. after   12 cycles
 SCF Done:  E(RB3LYP) =  -933.912402277     A.U. after   13 cycles
 SCF Done:  E(RB3LYP) =  -933.913341788     A.U. after   12 cycles
 SCF Done:  E(RB3LYP) =  -933.916236032     A.U. after   13 cycles
 SCF Done:  E(RB3LYP) =  -933.914514932     A.U. after   13 cycles
 SCF Done:  E(RB3LYP) =  -933.916939547     A.U. after   12 cycles
 SCF Done:  E(RB3LYP) =  -933.917675867     A.U. after   12 cycles
 SCF Done:  E(RB3LYP) =  -933.918001061     A.U. after   11 cycles
 SCF Done:  E(RB3LYP) =  -933.917990151     A.U. after   11 cycles
 SCF Done:  E(RB3LYP) =  -933.918121403     A.U. after   10 cycles
 SCF Done:  E(RB3LYP) =  -933.918124147     A.U. after    8 cycles
 SCF Done:  E(RB3LYP) =  -933.918125034     A.U. after    8 cycles
 SCF Done:  E(RB3LYP) =  -933.918125341     A.U. after    7 cycles
 SCF Done:  E(RB3LYP) =  -933.918125436     A.U. after    6 cycles
 SCF Done:  E(RB3LYP) =  -933.918125487     A.U. after    6 cycles
 Optimization completed.
    -- Stationary point found.
 Normal termination of Gaussian 16 at Thu Dec 17 20:20:41 2020.

 --------------------------------------------------------------------
 #N Geom=AllCheck Guess=TCheck SCRF=Check GenChk RB3LYP/6-31G(d) Freq
 --------------------------------------------------------------------

 Structure from the checkpoint file:  "JID_9053.chk"
 -------------------------------
 CID_103546078_JID_9053_neutraal
 -------------------------------
 Charge =  0 Multiplicity = 1

 SCF Done:  E(RB3LYP) =  -933.918125487     A.U. after    1 cycles

  Exact polarizability: 199.998   0.470 154.539 -16.061   0.898 112.307
 Approx polarizability: 265.506 -11.705 240.660 -33.303  10.393 171.562

                      1                      2                      3
                      A                      A                      A
 Frequencies --     35.5873                40.7768                57.9056
 Red. masses --      4.7492                 4.5498                 4.8307
 Frc consts  --      0.0035                 0.0045                 0.0095
 IR Inten    --      0.0490                 1.1064                 1.8243

                      4                      5                      6
                      A                      A                      A
 Frequencies --     92.0490                98.4809               109.3034
 Red. masses --      3.6969                 2.9781                 2.4078
 Frc consts  --      0.0185                 0.0170                 0.0169
 IR Inten    --      1.6479                 2.9128                 6.5681

                      7                      8                      9
                      A                      A                      A
 Frequencies --    129.4057               135.1925               145.8786
 Red. masses --      2.4743                 1.5036                 2.2731
 Frc consts  --      0.0244                 0.0162                 0.0285
 IR Inten    --      5.1826                 2.5261                 1.1002

                     10                     11                     12
                      A                      A                      A
 Frequencies --    153.1476               178.1851               182.6380
 Red. masses --      3.0922                 2.5516                 1.8921
 Frc consts  --      0.0427                 0.0477                 0.0372
 IR Inten    --      3.6449                 0.3488                 0.4667

                     13                     14                     15
                      A                      A                      A
 Frequencies --    206.5123               222.7962               233.2396
 Red. masses --      2.8625                 1.9114                 1.7798
 Frc consts  --      0.0719                 0.0559                 0.0570
 IR Inten    --      1.4192                 3.9007                 3.9791

                     16                     17                     18
                      A                      A                      A
 Frequencies --    244.4694               296.2728               299.5207
 Red. masses --      2.4102                 2.0081                 1.7158
 Frc consts  --      0.0849                 0.1039                 0.0907
 IR Inten    --      0.6555                35.5624                34.5951

                     19                     20                     21
                      A                      A                      A
 Frequencies --    312.9541               323.8680               349.1264
 Red. masses --      4.1676                 3.3850                 3.0946
 Frc consts  --      0.2405                 0.2092                 0.2222
 IR Inten    --      9.7086                15.0070                 5.7265

                     22                     23                     24
                      A                      A                      A
 Frequencies --    356.9800               372.6143               393.9174
 Red. masses --      4.4503                 3.4289                 4.9475
 Frc consts  --      0.3341                 0.2805                 0.4523
 IR Inten    --      7.2801                 1.1105                 5.5699

                     25                     26                     27
                      A                      A                      A
 Frequencies --    423.6364               443.6152               510.9172
 Red. masses --      2.3250                 3.7577                 2.6749
 Frc consts  --      0.2458                 0.4357                 0.4114
 IR Inten    --      5.0837                 3.6481                 2.0059

                     28                     29                     30
                      A                      A                      A
 Frequencies --    577.5840               606.1316               625.9245
 Red. masses --      4.5274                 4.0229                 4.8664
 Frc consts  --      0.8899                 0.8708                 1.1233
 IR Inten    --      6.3388                 3.2388                11.6776

                     31                     32                     33
                      A                      A                      A
 Frequencies --    667.2302               671.3476               685.7102
 Red. masses --      6.5690                 5.2555                 5.1446
 Frc consts  --      1.7231                 1.3956                 1.4252
 IR Inten    --     24.5151                 6.5976                 7.0967

                     34                     35                     36
                      A                      A                      A
 Frequencies --    756.7754               762.6129               780.7399
 Red. masses --      6.9608                 5.4106                 3.1934
 Frc consts  --      2.3488                 1.8540                 1.1469
 IR Inten    --      7.3500                 7.6612                 9.6918

                     37                     38                     39
                      A                      A                      A
 Frequencies --    792.2405               815.8502               843.9930
 Red. masses --      4.0636                 1.7073                 2.9271
 Frc consts  --      1.5027                 0.6695                 1.2285
 IR Inten    --      9.8032               188.6674                15.0839

                     40                     41                     42
                      A                      A                      A
 Frequencies --    866.4369               913.4132               938.7906
 Red. masses --      1.6344                 3.4330                 2.4552
 Frc consts  --      0.7229                 1.6875                 1.2749
 IR Inten    --      3.4158                24.9335                 5.3741

                     43                     44                     45
                      A                      A                      A
 Frequencies --    956.0247              1002.8794              1011.2807
 Red. masses --      2.4802                 2.3862                 2.7032
 Frc consts  --      1.3356                 1.4140                 1.6288
 IR Inten    --     11.0644                10.8131                15.0055

                     46                     47                     48
                      A                      A                      A
 Frequencies --   1027.9241              1037.2119              1068.8307
 Red. masses --      1.9344                 2.1677                 2.9924
 Frc consts  --      1.2042                 1.3740                 2.0141
 IR Inten    --      4.7364                 9.0551                40.5830

                     49                     50                     51
                      A                      A                      A
 Frequencies --   1078.4355              1089.9289              1122.0803
 Red. masses --      1.4777                 3.2998                 7.0327
 Frc consts  --      1.0126                 2.3096                 5.2170
 IR Inten    --     16.8185                60.6585                98.4359

                     52                     53                     54
                      A                      A                      A
 Frequencies --   1153.6108              1160.8926              1186.5662
 Red. masses --      3.1869                 4.4956                 1.2694
 Frc consts  --      2.4988                 3.5697                 1.0530
 IR Inten    --    116.7494               337.1584                 0.7708

                     55                     56                     57
                      A                      A                      A
 Frequencies --   1187.5437              1193.9030              1201.0644
 Red. masses --      1.4201                 2.5686                 1.9034
 Frc consts  --      1.1799                 2.1572                 1.6177
 IR Inten    --     12.0722                49.2258                34.2546

                     58                     59                     60
                      A                      A                      A
 Frequencies --   1214.6013              1227.0514              1228.4927
 Red. masses --      1.5509                 1.2481                 2.0029
 Frc consts  --      1.3480                 1.1072                 1.7810
 IR Inten    --     67.5314                 7.6272                31.0097

                     61                     62                     63
                      A                      A                      A
 Frequencies --   1241.6767              1255.1475              1277.2986
 Red. masses --      1.5075                 1.2944                 4.3259
 Frc consts  --      1.3693                 1.2014                 4.1582
 IR Inten    --     29.0470                 3.7200                16.7390

                     64                     65                     66
                      A                      A                      A
 Frequencies --   1303.7234              1329.2253              1337.1303
 Red. masses --      1.9017                 1.8483                 1.3043
 Frc consts  --      1.9045                 1.9241                 1.3740
 IR Inten    --     13.1872                14.7075                23.6831

                     67                     68                     69
                      A                      A                      A
 Frequencies --   1372.5119              1384.5789              1401.7696
 Red. masses --      1.3708                 2.0752                 2.2814
 Frc consts  --      1.5214                 2.3439                 2.6412
 IR Inten    --      8.6670                15.9499                16.3879

                     70                     71                     72
                      A                      A                      A
 Frequencies --   1407.3072              1432.0030              1437.6163
 Red. masses --      1.8704                 1.4620                 1.5036
 Frc consts  --      2.1825                 1.7664                 1.8309
 IR Inten    --     48.9024                 6.9836                25.8782

                     73                     74                     75
                      A                      A                      A
 Frequencies --   1488.0257              1499.7108              1501.5925
 Red. masses --      1.3207                 1.1030                 1.1457
 Frc consts  --      1.7230                 1.4616                 1.5220
 IR Inten    --     11.5968                 7.6130                 6.3258

                     76                     77                     78
                      A                      A                      A
 Frequencies --   1509.6939              1511.2300              1521.9066
 Red. masses --      1.0524                 1.4390                 1.1507
 Frc consts  --      1.4132                 1.9363                 1.5704
 IR Inten    --      4.4114                87.5017                41.4501

                     79                     80                     81
                      A                      A                      A
 Frequencies --   1525.8958              1529.1517              1531.2937
 Red. masses --      1.3493                 1.0830                 1.2262
 Frc consts  --      1.8509                 1.4921                 1.6940
 IR Inten    --     57.3424                 3.6108                13.3372

                     82                     83                     84
                      A                      A                      A
 Frequencies --   1534.0552              1540.9242              1554.6431
 Red. masses --      1.0862                 1.0581                 1.1001
 Frc consts  --      1.5060                 1.4803                 1.5665
 IR Inten    --     10.3295                17.7970                 5.3661

                     85                     86                     87
                      A                      A                      A
 Frequencies --   1568.4936              1600.1187              1625.0566
 Red. masses --      1.0983                 3.2524                 5.6826
 Frc consts  --      1.5919                 4.9063                 8.8417
 IR Inten    --      3.0177                38.8682                54.5232

                     88                     89                     90
                      A                      A                      A
 Frequencies --   1688.6385              1825.4092              3005.5611
 Red. masses --      1.4253                11.9882                 1.0685
 Frc consts  --      2.3946                23.5356                 5.6867
 IR Inten    --    116.4793               457.0270                56.7866

                     91                     92                     93
                      A                      A                      A
 Frequencies --   3024.9236              3053.6193              3054.0448
 Red. masses --      1.0372                 1.0451                 1.0646
 Frc consts  --      5.5916                 5.7419                 5.8505
 IR Inten    --     67.5827                43.1003                43.6480

                     94                     95                     96
                      A                      A                      A
 Frequencies --   3072.5798              3078.4474              3091.6205
 Red. masses --      1.0289                 1.1032                 1.0607
 Frc consts  --      5.7229                 6.1600                 5.9733
 IR Inten    --     50.0850                50.3619                20.1258

                     97                     98                     99
                      A                      A                      A
 Frequencies --   3092.9416              3105.3154              3111.2097
 Red. masses --      1.0668                 1.0922                 1.0984
 Frc consts  --      6.0125                 6.2053                 6.2643
 IR Inten    --     27.1232                23.3153                46.0271

                    100                    101                    102
                      A                      A                      A
 Frequencies --   3123.2994              3138.1117              3138.8358
 Red. masses --      1.0942                 1.1061                 1.0996
 Frc consts  --      6.2889                 6.4175                 6.3831
 IR Inten    --      6.4963                14.4706                30.4840

                    103                    104                    105
                      A                      A                      A
 Frequencies --   3147.1331              3152.6867              3164.7629
 Red. masses --      1.1073                 1.1034                 1.1006
 Frc consts  --      6.4619                 6.4619                 6.4948
 IR Inten    --     22.3189                 1.3383                 3.1434

                    106                    107                    108
                      A                      A                      A
 Frequencies --   3170.7140              3500.3520              3599.2130
 Red. masses --      1.1075                 1.0481                 1.0964
 Frc consts  --      6.5600                 7.5659                 8.3680
 IR Inten    --     19.4873                34.0366                58.0626

 - Thermochemistry -
 -------------------
 Temperature   298.150 Kelvin.  Pressure   1.00000 Atm.
 Atom     1 has atomic number  6 and mass  12.00000

 Molecular mass:   269.13756 amu.
 Principal axes and moments of inertia in atomic units:
                           1         2         3
     Eigenvalues --  2509.201267794.013818834.39305
           X            0.99996   0.00839  -0.00000
           Y           -0.00838   0.99961  -0.02674
           Z           -0.00022   0.02674   0.99964
 This molecule is an asymmetric top.
 Rotational symmetry number  1.
 Warning -- assumption of classical behavior for rotation
           may cause significant error
 Rotational temperatures (Kelvin)      0.03452     0.01111     0.00980
 Rotational constants (GHZ):           0.71925     0.23155     0.20429
 Zero-point vibrational energy     839558.9 (Joules/Mol)
                                  200.65940 (Kcal/Mol)
 Warning -- explicit consideration of  29 degrees of freedom as
           vibrations may cause significant error
 Vibrational temperatures:     51.20    58.67    83.31   132.44   141.69
          (Kelvin)            157.26   186.19   194.51   209.89   220.35
                              256.37   262.78   297.13   320.55   335.58
                              351.74   426.27   430.94   450.27   465.97
                              502.32   513.61   536.11   566.76   609.52
                              638.26   735.10   831.01   872.09   900.57
                              960.00   965.92   986.58  1088.83  1097.23
                             1123.31  1139.86  1173.83  1214.32  1246.61
                             1314.20  1350.71  1375.51  1442.92  1455.01
                             1478.95  1492.32  1537.81  1551.63  1568.16
                             1614.42  1659.79  1670.27  1707.20  1708.61
                             1717.76  1728.06  1747.54  1765.45  1767.53
                             1786.50  1805.88  1837.75  1875.77  1912.46
                             1923.83  1974.74  1992.10  2016.83  2024.80
                             2060.33  2068.41  2140.94  2157.75  2160.46
                             2172.11  2174.32  2189.68  2195.42  2200.11
                             2203.19  2207.16  2217.05  2236.78  2256.71
                             2302.21  2338.09  2429.57  2626.36  4324.33
                             4352.19  4393.48  4394.09  4420.76  4429.20
                             4448.15  4450.05  4467.86  4476.34  4493.73
                             4515.04  4516.08  4528.02  4536.01  4553.39
                             4561.95  5036.23  5178.46

 Zero-point correction=                           0.319771 (Hartree/Particle)
 Thermal correction to Energy=                    0.339144
 Thermal correction to Enthalpy=                  0.340088
 Thermal correction to Gibbs Free Energy=         0.272124
 Sum of electronic and zero-point Energies=           -933.598354
 Sum of electronic and thermal Energies=              -933.578982
 Sum of electronic and thermal Enthalpies=            -933.578038
 Sum of electronic and thermal Free Energies=         -933.646001

                     E (Thermal)             CV                S
                      KCal/Mol        Cal/Mol-Kelvin    Cal/Mol-Kelvin
 Total                  212.816             71.804            143.042
 Electronic               0.000              0.000              0.000
 Translational            0.889              2.981             42.669
 Rotational               0.889              2.981             33.513
 Vibrational            211.038             65.842             66.860
 Vibration     1          0.594              1.982              5.491
 Vibration     2          0.594              1.981              5.221
 Vibration     3          0.596              1.974              4.527
 Vibration     4          0.602              1.955              3.616
 Vibration     5          0.604              1.950              3.484
 Vibration     6          0.606              1.942              3.281
 Vibration     7          0.612              1.924              2.955
 Vibration     8          0.613              1.918              2.871
 Vibration     9          0.617              1.907              2.725
 Vibration    10          0.619              1.899              2.633
 Vibration    11          0.629              1.869              2.347
 Vibration    12          0.630              1.863              2.301
 Vibration    13          0.641              1.831              2.074
 Vibration    14          0.648              1.806              1.936
 Vibration    15          0.654              1.790              1.854
 Vibration    16          0.660              1.772              1.770
 Vibration    17          0.690              1.681              1.438
 Vibration    18          0.692              1.675              1.420
 Vibration    19          0.701              1.649              1.347
 Vibration    20          0.708              1.628              1.291
 Vibration    21          0.726              1.577              1.170
 Vibration    22          0.732              1.561              1.135
 Vibration    23          0.744              1.528              1.069
 Vibration    24          0.761              1.483              0.985
 Vibration    25          0.786              1.419              0.880
 Vibration    26          0.803              1.375              0.815
 Vibration    27          0.866              1.226              0.631
 Vibration    28          0.934              1.080              0.490
 Vibration    29          0.965              1.019              0.439

                           ! Non-Optimized Parameters !
 Normal termination of Gaussian 16 at Thu Dec 17 20:41:21 2020.

 ----------------------------------------------------------------------
 # B3LYP/6-311++G(d,p) empiricaldispersion=gd3bj scf=xqc pop=npa geom=c
 heck
 ----------------------------------------------------------------------

 ---------------------------------------
 CID_103546078_JID_9053_Energie_neutraal
 ---------------------------------------
 Structure from the checkpoint file:  "JID_9053.chk"
 Charge =  0 Multiplicity = 1

 SCF Done:  E(RB3LYP) =  -934.189208638     A.U. after   16 cycles
 Normal termination of Gaussian 16 at Thu Dec 17 20:50:38 2020.

 ----------------------------------------------------------------------
 # B3LYP/6-311++G(d,p) empiricaldispersion=gd3bj scf=xqc pop=npa geom=c
 heck
 ----------------------------------------------------------------------

 -------------------------------------
 CID_103546078_JID_9053_Energie_kation
 -------------------------------------
 Structure from the checkpoint file:  "JID_9053.chk"
 Charge =  1 Multiplicity = 2

 SCF Done:  E(UB3LYP) =  -933.910544915     A.U. after   24 cycles
 Normal termination of Gaussian 16 at Thu Dec 17 21:11:04 2020.
 Gaussian 16:  ES64L-G16RevA.03 25-Dec-2016

 ----------------------------------------------------------------------
 # B3LYP/6-311++G(d,p) empiricaldispersion=gd3bj scf=xqc pop=npa geom=c
 heck
 ----------------------------------------------------------------------

 ------------------------------------
 CID_103546078_JID_9053_Energie_anion
 ------------------------------------
 Structure from the checkpoint file:  "JID_9053.chk"
 Charge = -1 Multiplicity = 2

                         Standard orientation:
 ---------------------------------------------------------------------
 Center     Atomic      Atomic             Coordinates (Angstroms)
 Number     Number       Type             X           Y           Z
 ---------------------------------------------------------------------
      1          6           0        0.591236    2.937261   -0.754429
      2          6           0       -0.293155    1.748509   -0.590198
      3          7           0       -1.536052    1.787101   -0.196082
      4          6           0       -1.995221    0.476047   -0.202825
      5          6           0       -0.979928   -0.373536   -0.622848
      6          7           0        0.115379    0.433314   -0.852291
      7          6           0        1.425518   -0.031932   -1.274880
      8          6           0        2.434830   -0.384976   -0.151407
      9          6           0        1.773844   -1.056403    1.071080
     10          6           0        1.375567    0.136502    1.957325
     11          8           0        2.137618    1.274605    1.503651
     12          6           0        3.055559    0.859929    0.508407
     13          8           0        3.396761   -1.151193   -0.874909
     14          6           0        4.349064   -1.903738   -0.146262
     15          7           0       -0.927211   -1.755985   -0.741031
     16          6           0       -3.365687    0.137847    0.153790
     17          8           0       -4.243260    0.899787    0.495140
     18          8           0       -3.579087   -1.225151    0.055894
     19          6           0       -4.908779   -1.644036    0.384943
     20          1           0        1.124126    2.929232   -1.713173
     21          1           0        1.326275    2.992663    0.053928
     22          1           0       -0.038650    3.827958   -0.716512
     23          1           0        1.299836   -0.939004   -1.870651
     24          1           0        1.867791    0.719226   -1.934024
     25          1           0        2.516348   -1.672997    1.585044
     26          1           0        0.927029   -1.691074    0.804008
     27          1           0        0.315265    0.388734    1.864904
     28          1           0        1.597378   -0.045339    3.015760
     29          1           0        4.031999    0.605879    0.949367
     30          1           0        3.206949    1.684065   -0.194910
     31          1           0        4.848900   -1.317558    0.635991
     32          1           0        3.904215   -2.796489    0.313477
     33          1           0        5.099835   -2.222171   -0.873736
     34          1           0       -1.859970   -2.141635   -0.622379
     35          1           0       -0.497486   -2.086410   -1.600359
     36          1           0       -5.157453   -1.364914    1.412122
     37          1           0       -5.637011   -1.185161   -0.289255
     38          1           0       -4.913528   -2.729252    0.271845
 ---------------------------------------------------------------------

 SCF Done:  E(UB3LYP) =  -934.183762664     A.U. after   32 cycles

 The electronic state is 2-A.
 Alpha  occ. eigenvalues --  -19.07518 -19.04413 -19.03824 -19.01015 -14.28407
 Alpha  occ. eigenvalues --  -14.23508 -14.20351 -10.20378 -10.16138 -10.15484
 Alpha  occ. eigenvalues --  -10.14312 -10.13865 -10.13306 -10.12989 -10.12850
 Alpha  occ. eigenvalues --  -10.12264 -10.09775 -10.08736 -10.08092  -1.00898
 Alpha  occ. eigenvalues --   -0.96425  -0.94779  -0.93840  -0.92230  -0.83121
 Alpha  occ. eigenvalues --   -0.80068  -0.70954  -0.69052  -0.66662  -0.65208
 Alpha  occ. eigenvalues --   -0.62752  -0.60489  -0.59390  -0.53763  -0.51814
 Alpha  occ. eigenvalues --   -0.50223  -0.48062  -0.47202  -0.45159  -0.43729
 Alpha  occ. eigenvalues --   -0.42717  -0.41344  -0.40714  -0.39380  -0.37878
 Alpha  occ. eigenvalues --   -0.37510  -0.36892  -0.36397  -0.35890  -0.35765
 Alpha  occ. eigenvalues --   -0.35308  -0.33895  -0.33042  -0.32869  -0.31935
 Alpha  occ. eigenvalues --   -0.31069  -0.30733  -0.30380  -0.29293  -0.27762
 Alpha  occ. eigenvalues --   -0.27554  -0.26807  -0.24575  -0.23453  -0.22934
 Alpha  occ. eigenvalues --   -0.21612  -0.18820  -0.18663  -0.18468  -0.18097
 Alpha  occ. eigenvalues --   -0.16345  -0.11844   0.03616
 Alpha virt. eigenvalues --    0.05609   0.06542   0.06856   0.07213   0.07644
 Alpha virt. eigenvalues --    0.08772   0.09071   0.09475   0.09728   0.10106
 Alpha virt. eigenvalues --    0.10516   0.10685   0.11002   0.12136   0.12520

  Beta  occ. eigenvalues --  -19.07512 -19.04399 -19.03824 -19.01012 -14.28406
  Beta  occ. eigenvalues --  -14.23446 -14.20348 -10.20378 -10.16134 -10.15484
  Beta  occ. eigenvalues --  -10.14312 -10.13849 -10.13282 -10.12970 -10.12843
  Beta  occ. eigenvalues --  -10.12215 -10.09774 -10.08728 -10.08073  -1.00891
  Beta  occ. eigenvalues --   -0.96408  -0.94763  -0.93831  -0.92223  -0.83052
  Beta  occ. eigenvalues --   -0.80044  -0.70930  -0.69030  -0.66637  -0.65189
  Beta  occ. eigenvalues --   -0.62717  -0.60428  -0.59354  -0.53735  -0.51779
  Beta  occ. eigenvalues --   -0.50185  -0.48042  -0.47156  -0.45091  -0.43699
  Beta  occ. eigenvalues --   -0.42694  -0.41303  -0.40681  -0.39369  -0.37842
  Beta  occ. eigenvalues --   -0.37488  -0.36871  -0.36368  -0.35861  -0.35743
  Beta  occ. eigenvalues --   -0.35276  -0.33868  -0.33021  -0.32837  -0.31924
  Beta  occ. eigenvalues --   -0.31056  -0.30716  -0.30361  -0.29271  -0.27737
  Beta  occ. eigenvalues --   -0.27530  -0.26774  -0.24555  -0.23413  -0.22893
  Beta  occ. eigenvalues --   -0.21603  -0.18807  -0.18647  -0.18449  -0.18087
  Beta  occ. eigenvalues --   -0.16329  -0.11822
  Beta virt. eigenvalues --    0.05939   0.06342   0.07052   0.07174   0.07784
  Beta virt. eigenvalues --    0.08075   0.09250   0.09374   0.09713   0.09955
  Beta virt. eigenvalues --    0.10472   0.10559   0.10812   0.11142   0.12202

 Mulliken charges and spin densities:
               1          2
     1  C    0.004178  -0.533133
     2  C   -0.333849   0.024864
     3  N   -0.053880   0.077059
     4  C    1.489452  -1.532451
     5  C   -0.621026   0.599311
     6  N    0.113874   0.054735
     7  C    0.502371  -0.922442
     8  C   -2.017640   1.372212
     9  C    0.822632  -0.740138
    10  C   -0.337867  -0.030220
    11  O   -0.067344   0.006183
    12  C    0.578523  -0.779960
    13  O   -0.079764   0.047068
    14  C    1.099678  -1.305856
    15  N   -0.566690   0.196245
    16  C   -0.122669   0.177856
    17  O   -0.280879  -0.002775
    18  O   -0.193279   0.016768
    19  C    0.090008  -0.358602
    20  H    0.039148   0.104074
    21  H    0.216760  -0.011883
    22  H    0.182896   0.003142
    23  H   -0.178587   0.383994
    24  H   -0.015202   0.202995
    25  H   -0.049890   0.230978
    26  H    0.019717   0.217002
    27  H    0.181436   0.017207
    28  H   -0.076118   0.260940
    29  H   -0.151267   0.306356
    30  H    0.117531   0.067028
    31  H   -0.298768   0.429021
    32  H   -0.353077   0.506652
    33  H   -0.309503   0.458620
    34  H    0.072099   0.284529
    35  H   -0.434963   0.701239
    36  H    0.109097   0.066770
    37  H    0.095694   0.081028
    38  H   -0.192832   0.323585
 Sum of Mulliken charges =  -1.00000   1.00000

 Dipole moment (field-independent basis, Debye):
    X=             -1.7182    Y=              3.7347    Z=              0.4217  Tot=              4.1326
 Quadrupole moment (field-independent basis, Debye-Ang):
   XX=           -198.0794   YY=           -166.5760   ZZ=           -147.6053
   XY=             20.6503   XZ=             -2.7150   YZ=             -9.9754

 Summary of Natural Population Analysis:

                                       Natural Population
                Natural  -----------------------------------------------
    Atom  No    Charge         Core      Valence    Rydberg      Total
 -----------------------------------------------------------------------
      C    1   -0.31148      0.99962     2.30747    0.00439     3.31148
      C    2    0.20196      0.99961     1.78214    0.01628     2.79804
      N    3   -0.23550      0.99967     2.72747    0.00836     3.73550
      C    4   -0.04552      0.99940     2.03160    0.01452     3.04552
      C    5    0.20114      0.99947     1.78531    0.01409     2.79886
      N    6   -0.22740      0.99959     2.71467    0.01313     3.72740
      C    7   -0.08871      0.99954     2.07402    0.01516     3.08871
      C    8    0.12832      0.99949     1.85426    0.01793     2.87168
      C    9   -0.23004      0.99958     2.22159    0.00888     3.23004
      C   10   -0.00845      0.99960     1.99796    0.01090     3.00845
      O   11   -0.30480      0.99989     3.29680    0.00810     4.30480
      C   12   -0.01988      0.99952     2.00600    0.01436     3.01988
      O   13   -0.30410      0.99986     3.29304    0.01120     4.30410
      C   14   -0.09845      0.99959     2.08950    0.00935     3.09845
      N   15   -0.40232      0.99971     2.89238    0.01023     3.90232
      C   16    0.38811      0.99961     1.58775    0.02454     2.61189
      O   17   -0.30352      0.99987     3.29861    0.00504     4.30352
      O   18   -0.29676      0.99987     3.28850    0.00839     4.29676
      C   19   -0.10394      0.99960     2.09522    0.00912     3.10394
      H   20    0.10150      0.00000     0.39754    0.00096     0.39850
      H   21    0.11678      0.00000     0.38176    0.00146     0.38322
      H   22    0.11440      0.00000     0.38480    0.00080     0.38560
      H   23    0.11349      0.00000     0.38407    0.00245     0.38651
      H   24    0.10597      0.00000     0.39260    0.00143     0.39403
      H   25    0.10718      0.00000     0.39095    0.00187     0.39282
      H   26    0.12205      0.00000     0.37576    0.00219     0.37795
      H   27    0.09110      0.00000     0.40755    0.00135     0.40890
      H   28    0.08466      0.00000     0.41416    0.00118     0.41534
      H   29    0.08554      0.00000     0.41281    0.00165     0.41446
      H   30    0.08908      0.00000     0.40967    0.00125     0.41092
      H   31    0.08047      0.00000     0.41742    0.00210     0.41953
      H   32    0.08412      0.00000     0.41393    0.00195     0.41588
      H   33    0.09396      0.00000     0.40481    0.00122     0.40604
      H   34    0.20585      0.00000     0.29116    0.00299     0.29415
      H   35    0.19332      0.00000     0.29987    0.00681     0.30668
      H   36    0.09043      0.00000     0.40868    0.00088     0.40957
      H   37    0.09004      0.00000     0.40906    0.00090     0.40996
      H   38    0.09138      0.00000     0.40765    0.00097     0.40862
 =======================================================================
   * Total *   -0.00000     18.99309    52.74856    0.25835    72.00000

 Normal termination of Gaussian 16 at Thu Dec 17 21:38:15 2020.
