 Gaussian 16, Revision A.03,

 -----------------------------------------------------------
 # opt freq B3LYP/6-31G(d) empiricaldispersion=gd3bj scf=xqc
 -----------------------------------------------------------

 ------------------------------
 CID_63585730_JID_4466_neutraal
 ------------------------------
 Symbolic Z-matrix:
 Charge =  0 Multiplicity = 1

 SCF Done:  E(RB3LYP) =  -669.115707680     A.U. after   14 cycles
 SCF Done:  E(RB3LYP) =  -669.108999760     A.U. after   14 cycles
 SCF Done:  E(RB3LYP) =  -669.120726070     A.U. after   12 cycles
 SCF Done:  E(RB3LYP) =  -669.120075458     A.U. after   13 cycles
 SCF Done:  E(RB3LYP) =  -669.122813369     A.U. after   11 cycles
 SCF Done:  E(RB3LYP) =  -669.120856657     A.U. after   12 cycles
 SCF Done:  E(RB3LYP) =  -669.122991590     A.U. after   11 cycles
 SCF Done:  E(RB3LYP) =  -669.123305775     A.U. after   11 cycles
 SCF Done:  E(RB3LYP) =  -669.123340775     A.U. after   10 cycles
 SCF Done:  E(RB3LYP) =  -669.123343829     A.U. after   10 cycles
 SCF Done:  E(RB3LYP) =  -669.123366994     A.U. after    9 cycles
 SCF Done:  E(RB3LYP) =  -669.123368864     A.U. after    8 cycles
 SCF Done:  E(RB3LYP) =  -669.123369927     A.U. after    8 cycles
 SCF Done:  E(RB3LYP) =  -669.123370561     A.U. after    8 cycles
 SCF Done:  E(RB3LYP) =  -669.123370720     A.U. after    8 cycles
 Optimization completed.
    -- Stationary point found.
 Normal termination of Gaussian 16 at Thu Dec 10 09:57:02 2020.

 --------------------------------------------------------------------
 #N Geom=AllCheck Guess=TCheck SCRF=Check GenChk RB3LYP/6-31G(d) Freq
 --------------------------------------------------------------------

 Structure from the checkpoint file:  "JID_4466.chk"
 ------------------------------
 CID_63585730_JID_4466_neutraal
 ------------------------------
 Charge =  0 Multiplicity = 1

 SCF Done:  E(RB3LYP) =  -669.123370720     A.U. after    1 cycles

  Exact polarizability: 150.688   3.786 109.869  -3.792  -5.290 100.271
 Approx polarizability: 187.838   6.318 162.684 -10.081 -11.337 153.240

                      1                      2                      3
                      A                      A                      A
 Frequencies --     44.7802                82.2953               101.0858
 Red. masses --      4.0772                 3.7988                 3.6393
 Frc consts  --      0.0048                 0.0152                 0.0219
 IR Inten    --      2.4658                 3.4182                 3.5308

                      4                      5                      6
                      A                      A                      A
 Frequencies --    136.6958               149.1328               167.6898
 Red. masses --      4.7958                 4.6235                 4.8376
 Frc consts  --      0.0528                 0.0606                 0.0801
 IR Inten    --      2.9572                 5.4713                 2.4979

                      7                      8                      9
                      A                      A                      A
 Frequencies --    174.6441               202.5772               239.2315
 Red. masses --      4.9044                 3.3122                 3.4988
 Frc consts  --      0.0881                 0.0801                 0.1180
 IR Inten    --      3.4874                 1.7317                 3.8230

                     10                     11                     12
                      A                      A                      A
 Frequencies --    279.5209               292.8743               302.2487
 Red. masses --      1.3702                 1.8140                 1.8540
 Frc consts  --      0.0631                 0.0917                 0.0998
 IR Inten    --     13.0366                13.4318                24.1931

                     13                     14                     15
                      A                      A                      A
 Frequencies --    321.1477               357.1224               392.2982
 Red. masses --      1.5065                 2.4612                 2.1432
 Frc consts  --      0.0915                 0.1849                 0.1943
 IR Inten    --     35.3964                 3.2622                 9.1107

                     16                     17                     18
                      A                      A                      A
 Frequencies --    408.7264               450.5790               492.2415
 Red. masses --      2.2160                 1.9760                 3.2067
 Frc consts  --      0.2181                 0.2364                 0.4578
 IR Inten    --      4.0346                 9.5413                 7.2060

                     19                     20                     21
                      A                      A                      A
 Frequencies --    506.2469               517.4592               558.5294
 Red. masses --      3.1566                 2.6414                 2.2235
 Frc consts  --      0.4766                 0.4167                 0.4087
 IR Inten    --      2.8297                 8.4872                 7.9209

                     22                     23                     24
                      A                      A                      A
 Frequencies --    591.8797               620.2484               694.4129
 Red. masses --      3.4303                 1.4462                 3.4547
 Frc consts  --      0.7080                 0.3278                 0.9815
 IR Inten    --     25.7643                59.9650                15.9763

                     25                     26                     27
                      A                      A                      A
 Frequencies --    728.0365               744.8158               766.6910
 Red. masses --      3.1567                 3.0909                 1.0634
 Frc consts  --      0.9858                 1.0102                 0.3683
 IR Inten    --      0.9120                 4.8240               197.0599

                     28                     29                     30
                      A                      A                      A
 Frequencies --    818.0172               847.2967               859.1344
 Red. masses --      3.1185                 3.1741                 2.4012
 Frc consts  --      1.2295                 1.3426                 1.0442
 IR Inten    --      2.1181                12.2846                 2.6414

                     31                     32                     33
                      A                      A                      A
 Frequencies --    878.9442               889.1102               905.4589
 Red. masses --      1.7940                 2.1177                 1.7701
 Frc consts  --      0.8166                 0.9863                 0.8550
 IR Inten    --     17.1908                12.3471                37.0706

                     34                     35                     36
                      A                      A                      A
 Frequencies --    934.6979               945.9897               983.6064
 Red. masses --      1.9861                 1.7364                 2.1031
 Frc consts  --      1.0224                 0.9155                 1.1988
 IR Inten    --     14.5265                77.5981                16.9686

                     37                     38                     39
                      A                      A                      A
 Frequencies --   1028.1202              1041.2716              1055.0541
 Red. masses --      1.8816                 2.7814                 1.8945
 Frc consts  --      1.1718                 1.7768                 1.2425
 IR Inten    --     37.1793                 4.4848                15.2403

                     40                     41                     42
                      A                      A                      A
 Frequencies --   1089.9329              1095.1866              1127.8642
 Red. masses --      1.8186                 1.7798                 2.6978
 Frc consts  --      1.2729                 1.2577                 2.0219
 IR Inten    --      3.5546                29.2667                47.5834

                     43                     44                     45
                      A                      A                      A
 Frequencies --   1134.7621              1171.9235              1174.0600
 Red. masses --      1.9544                 2.2141                 1.8737
 Frc consts  --      1.4828                 1.7916                 1.5217
 IR Inten    --     18.9369                75.7367                26.7781

                     46                     47                     48
                      A                      A                      A
 Frequencies --   1201.5513              1223.5792              1254.2261
 Red. masses --      1.8918                 1.3576                 1.4981
 Frc consts  --      1.6092                 1.1975                 1.3885
 IR Inten    --     14.9993                 3.0697                17.4240

                     49                     50                     51
                      A                      A                      A
 Frequencies --   1272.6051              1314.9096              1315.4138
 Red. masses --      1.5514                 1.1524                 1.4105
 Frc consts  --      1.4803                 1.1739                 1.4380
 IR Inten    --     79.1494                18.0505                23.9569

                     52                     53                     54
                      A                      A                      A
 Frequencies --   1318.7426              1338.6411              1364.6661
 Red. masses --      1.1935                 1.1408                 1.3123
 Frc consts  --      1.2229                 1.2045                 1.4399
 IR Inten    --     21.7749                 0.9620                 3.9041

                     55                     56                     57
                      A                      A                      A
 Frequencies --   1369.3508              1386.9994              1393.2315
 Red. masses --      1.3737                 1.4544                 1.3972
 Frc consts  --      1.5177                 1.6485                 1.5979
 IR Inten    --      9.4648                 7.3327                10.3451

                     58                     59                     60
                      A                      A                      A
 Frequencies --   1410.1816              1415.5358              1419.5662
 Red. masses --      1.5044                 1.5224                 1.2525
 Frc consts  --      1.7626                 1.7973                 1.4871
 IR Inten    --    107.1026                69.8396                10.3959

                     61                     62                     63
                      A                      A                      A
 Frequencies --   1430.1722              1435.0697              1451.5972
 Red. masses --      1.3085                 1.6489                 1.2884
 Frc consts  --      1.5769                 2.0008                 1.5995
 IR Inten    --     14.4362                26.2679                11.4574

                     64                     65                     66
                      A                      A                      A
 Frequencies --   1490.4742              1493.6014              1503.9798
 Red. masses --      1.3517                 1.4404                 1.4744
 Frc consts  --      1.7692                 1.8933                 1.9650
 IR Inten    --     13.6106                11.0513                25.6070

                     67                     68                     69
                      A                      A                      A
 Frequencies --   1504.9789              1508.9598              1514.5808
 Red. masses --      1.1373                 1.1058                 1.1274
 Frc consts  --      1.5177                 1.4834                 1.5238
 IR Inten    --      1.1431                 3.6098                10.5197

                     70                     71                     72
                      A                      A                      A
 Frequencies --   1524.1920              1527.2948              1536.3812
 Red. masses --      1.1175                 1.0658                 1.0631
 Frc consts  --      1.5296                 1.4648                 1.4786
 IR Inten    --      8.5308                12.2030                 1.3172

                     73                     74                     75
                      A                      A                      A
 Frequencies --   1717.5485              1747.6791              2952.5573
 Red. masses --      1.4711                 2.6698                 1.0806
 Frc consts  --      2.5569                 4.8046                 5.5504
 IR Inten    --     44.7139               280.3221                42.7871

                     76                     77                     78
                      A                      A                      A
 Frequencies --   2961.9902              2973.0399              3034.9498
 Red. masses --      1.0733                 1.0770                 1.0667
 Frc consts  --      5.5478                 5.6090                 5.7888
 IR Inten    --     66.4503               150.1815                54.5455

                     79                     80                     81
                      A                      A                      A
 Frequencies --   3046.4585              3054.1113              3060.1619
 Red. masses --      1.0651                 1.0363                 1.0849
 Frc consts  --      5.8243                 5.6954                 5.9857
 IR Inten    --     54.9660                18.5179                 4.6893

                     82                     83                     84
                      A                      A                      A
 Frequencies --   3084.4058              3090.6031              3103.3699
 Red. masses --      1.0892                 1.0967                 1.0992
 Frc consts  --      6.1051                 6.1720                 6.2370
 IR Inten    --     46.8889                37.8004                44.6948

                     85                     86                     87
                      A                      A                      A
 Frequencies --   3110.0256              3119.9637              3128.0222
 Red. masses --      1.0602                 1.0988                 1.0900
 Frc consts  --      6.0419                 6.3020                 6.2838
 IR Inten    --      7.7128                42.2865                14.2682

                     88                     89                     90
                      A                      A                      A
 Frequencies --   3138.5746              3168.1512              3460.4948
 Red. masses --      1.1022                 1.1067                 1.0456
 Frc consts  --      6.3969                 6.5448                 7.3773
 IR Inten    --     30.6703                 1.6791                 3.0462

                     91                     92                     93
                      A                      A                      A
 Frequencies --   3517.5749              3534.6578              3547.6913
 Red. masses --      1.0758                 1.0677                 1.0988
 Frc consts  --      7.8428                 7.8598                 8.1482
 IR Inten    --     41.5577               461.8551                 1.1829

 - Thermochemistry -
 -------------------
 Temperature   298.150 Kelvin.  Pressure   1.00000 Atm.
 Atom     1 has atomic number  6 and mass  12.00000

 Molecular mass:   201.14773 amu.
 Principal axes and moments of inertia in atomic units:
                           1         2         3
     Eigenvalues --  1451.188763917.837394551.35949
           X            0.99996   0.00908   0.00223
           Y           -0.00908   0.99996  -0.00262
           Z           -0.00225   0.00260   0.99999
 This molecule is an asymmetric top.
 Rotational symmetry number  1.
 Warning -- assumption of classical behavior for rotation
           may cause significant error
 Rotational temperatures (Kelvin)      0.05968     0.02211     0.01903
 Rotational constants (GHZ):           1.24363     0.46065     0.39653
 Zero-point vibrational energy     776233.8 (Joules/Mol)
                                  185.52433 (Kcal/Mol)
 Warning -- explicit consideration of  23 degrees of freedom as
           vibrations may cause significant error
 Vibrational temperatures:     64.43   118.40   145.44   196.67   214.57
          (Kelvin)            241.27   251.27   291.46   344.20   402.17
                              421.38   434.87   462.06   513.82   564.43
                              588.07   648.28   708.23   728.38   744.51
                              803.60   851.58   892.40   999.11  1047.48
                             1071.62  1103.10  1176.94  1219.07  1236.10
                             1264.60  1279.23  1302.75  1344.82  1361.07
                             1415.19  1479.24  1498.16  1517.99  1568.17
                             1575.73  1622.75  1632.67  1686.14  1689.21
                             1728.76  1760.46  1804.55  1830.99  1891.86
                             1892.59  1897.38  1926.01  1963.45  1970.19
                             1995.58  2004.55  2028.94  2036.64  2042.44
                             2057.70  2064.75  2088.52  2144.46  2148.96
                             2163.89  2165.33  2171.06  2179.14  2192.97
                             2197.44  2210.51  2471.17  2514.52  4248.07
                             4261.64  4277.54  4366.62  4383.17  4394.18
                             4402.89  4437.77  4446.69  4465.06  4474.63
                             4488.93  4500.53  4515.71  4558.26  4978.88
                             5061.01  5085.58  5104.34

 Zero-point correction=                           0.295652 (Hartree/Particle)
 Thermal correction to Energy=                    0.309845
 Thermal correction to Enthalpy=                  0.310789
 Thermal correction to Gibbs Free Energy=         0.255482
 Sum of electronic and zero-point Energies=           -668.827719
 Sum of electronic and thermal Energies=              -668.813526
 Sum of electronic and thermal Enthalpies=            -668.812582
 Sum of electronic and thermal Free Energies=         -668.867889

                     E (Thermal)             CV                S
                      KCal/Mol        Cal/Mol-Kelvin    Cal/Mol-Kelvin
 Total                  194.430             55.689            116.403
 Electronic               0.000              0.000              0.000
 Translational            0.889              2.981             41.801
 Rotational               0.889              2.981             31.626
 Vibrational            192.653             49.727             42.975
 Vibration     1          0.595              1.979              5.036
 Vibration     2          0.600              1.961              3.835
 Vibration     3          0.604              1.948              3.433
 Vibration     4          0.614              1.917              2.850
 Vibration     5          0.618              1.904              2.683
 Vibration     6          0.624              1.882              2.461
 Vibration     7          0.627              1.874              2.385
 Vibration     8          0.639              1.836              2.110
 Vibration     9          0.657              1.780              1.809
 Vibration    10          0.680              1.711              1.537
 Vibration    11          0.688              1.687              1.457
 Vibration    12          0.694              1.669              1.404
 Vibration    13          0.707              1.633              1.304
 Vibration    14          0.732              1.561              1.135
 Vibration    15          0.760              1.487              0.991
 Vibration    16          0.773              1.451              0.931
 Vibration    17          0.809              1.360              0.794
 Vibration    18          0.848              1.267              0.678
 Vibration    19          0.861              1.236              0.643
 Vibration    20          0.872              1.211              0.616
 Vibration    21          0.914              1.121              0.527
 Vibration    22          0.949              1.049              0.464
 Vibration    23          0.980              0.989              0.416

 Optimization completed.
    -- Stationary point found.
 Normal termination of Gaussian 16 at Thu Dec 10 10:08:08 2020.

 ----------------------------------------------------------------------
 # B3LYP/6-311++G(d,p) empiricaldispersion=gd3bj scf=xqc pop=npa geom=c
 heck
 ----------------------------------------------------------------------

 --------------------------------------
 CID_63585730_JID_4466_Energie_neutraal
 --------------------------------------
 Structure from the checkpoint file:  "JID_4466.chk"
 Charge =  0 Multiplicity = 1

 SCF Done:  E(RB3LYP) =  -669.331717916     A.U. after   14 cycles
 Normal termination of Gaussian 16 at Thu Dec 10 10:13:12 2020.

 ----------------------------------------------------------------------
 # B3LYP/6-311++G(d,p) empiricaldispersion=gd3bj scf=xqc pop=npa geom=c
 heck
 ----------------------------------------------------------------------

 ------------------------------------
 CID_63585730_JID_4466_Energie_kation
 ------------------------------------
 Structure from the checkpoint file:  "JID_4466.chk"
 Charge =  1 Multiplicity = 2

 SCF Done:  E(UB3LYP) =  -669.072173291     A.U. after   20 cycles
 Normal termination of Gaussian 16 at Thu Dec 10 10:23:12 2020.
 Gaussian 16:  ES64L-G16RevA.03 25-Dec-2016

 ----------------------------------------------------------------------
 # B3LYP/6-311++G(d,p) empiricaldispersion=gd3bj scf=xqc pop=npa geom=c
 heck
 ----------------------------------------------------------------------

 -----------------------------------
 CID_63585730_JID_4466_Energie_anion
 -----------------------------------
 Structure from the checkpoint file:  "JID_4466.chk"
 Charge = -1 Multiplicity = 2

                         Standard orientation:
 ---------------------------------------------------------------------
 Center     Atomic      Atomic             Coordinates (Angstroms)
 Number     Number       Type             X           Y           Z
 ---------------------------------------------------------------------
      1          6           0        1.323590    1.751492    1.104671
      2          6           0        0.402407    1.320619   -0.046178
      3          6           0        1.058274    0.177365   -0.914696
      4          6           0        1.857262   -0.824140   -0.116547
      5          8           0        1.362834   -1.756789    0.529103
      6          7           0        3.219497   -0.693766   -0.090929
      7          7           0        3.921211    0.355570   -0.692381
      8          7           0       -0.953135    1.108826    0.424430
      9          6           0       -2.071679    1.590558   -0.373021
     10          6           0       -2.807015    0.492292   -1.155805
     11          6           0       -3.244423   -0.620491   -0.196062
     12          6           0       -2.039817   -1.167797    0.573379
     13          6           0       -1.290073   -0.016936    1.281337
     14          8           0       -1.238969   -1.867291   -0.365439
     15          1           0        1.442291    0.953290    1.845790
     16          1           0        0.896381    2.621086    1.611569
     17          1           0        2.317744    2.013667    0.725966
     18          1           0        0.331145    2.173642   -0.729146
     19          1           0        0.260976   -0.372607   -1.416622
     20          1           0        1.714777    0.641727   -1.651909
     21          1           0        3.697721   -1.376910    0.491256
     22          1           0        4.393682    0.909621    0.019675
     23          1           0        4.619791   -0.020833   -1.330089
     24          1           0       -2.800372    2.069106    0.305301
     25          1           0       -1.709559    2.374609   -1.046832
     26          1           0       -2.147916    0.071650   -1.922786
     27          1           0       -3.677140    0.924297   -1.667251
     28          1           0       -3.726233   -1.442173   -0.737233
     29          1           0       -3.976343   -0.223903    0.522009
     30          1           0       -2.393101   -1.856555    1.361634
     31          1           0       -0.380918   -0.406015    1.745686
     32          1           0       -1.943302    0.336417    2.098546
     33          1           0       -0.354714   -2.009675    0.034812
 ---------------------------------------------------------------------

 SCF Done:  E(UB3LYP) =  -669.325811049     A.U. after   33 cycles
 SCF Done:  E(UB3LYP) =  -669.325811049     a.u. after    1 cycles

 The electronic state is 2-A.
 Alpha  occ. eigenvalues --  -19.00138 -18.99316 -14.25521 -14.22428 -14.19941
 Alpha  occ. eigenvalues --  -10.17333 -10.11836 -10.10972 -10.10073 -10.09399
 Alpha  occ. eigenvalues --  -10.07368 -10.07145 -10.06415 -10.05217  -0.94642
 Alpha  occ. eigenvalues --   -0.91015  -0.87292  -0.82753  -0.70814  -0.69375
 Alpha  occ. eigenvalues --   -0.66449  -0.65069  -0.60591  -0.55849  -0.53242
 Alpha  occ. eigenvalues --   -0.50424  -0.47032  -0.44739  -0.43245  -0.40726
 Alpha  occ. eigenvalues --   -0.40454  -0.39510  -0.38081  -0.36654  -0.36186
 Alpha  occ. eigenvalues --   -0.34791  -0.33356  -0.32693  -0.31397  -0.30148
 Alpha  occ. eigenvalues --   -0.29853  -0.28945  -0.28365  -0.26955  -0.25785
 Alpha  occ. eigenvalues --   -0.24973  -0.24670  -0.23734  -0.23437  -0.21690
 Alpha  occ. eigenvalues --   -0.17820  -0.16810  -0.16039  -0.15811  -0.10099
 Alpha  occ. eigenvalues --    0.04374
 Alpha virt. eigenvalues --    0.06111   0.07568   0.07960   0.08874   0.09185
 Alpha virt. eigenvalues --    0.09619   0.10396   0.10410   0.10879   0.11419
 Alpha virt. eigenvalues --    0.11864   0.12180   0.12995   0.13432   0.14285

  Beta  occ. eigenvalues --  -19.00136 -18.99310 -14.25487 -14.22305 -14.19941
  Beta  occ. eigenvalues --  -10.17332 -10.11835 -10.10965 -10.10065 -10.09394
  Beta  occ. eigenvalues --  -10.07365 -10.07141 -10.06404 -10.05187  -0.94618
  Beta  occ. eigenvalues --   -0.91011  -0.87191  -0.82747  -0.70790  -0.69203
  Beta  occ. eigenvalues --   -0.66410  -0.65058  -0.60548  -0.55823  -0.53227
  Beta  occ. eigenvalues --   -0.50391  -0.46994  -0.44707  -0.43049  -0.40696
  Beta  occ. eigenvalues --   -0.40350  -0.39489  -0.38055  -0.36643  -0.36167
  Beta  occ. eigenvalues --   -0.34767  -0.33347  -0.32661  -0.31382  -0.30130
  Beta  occ. eigenvalues --   -0.29839  -0.28922  -0.28336  -0.26931  -0.25769
  Beta  occ. eigenvalues --   -0.24961  -0.24655  -0.23717  -0.23425  -0.21679
  Beta  occ. eigenvalues --   -0.17749  -0.16795  -0.15980  -0.15765  -0.10093
  Beta virt. eigenvalues --    0.06105   0.07558   0.07839   0.08411   0.09137
  Beta virt. eigenvalues --    0.09682   0.09981   0.10553   0.10759   0.11176
  Beta virt. eigenvalues --    0.11732   0.12277   0.12534   0.12995   0.13628

 Mulliken charges and spin densities:
               1          2
     1  C    0.738480  -1.419434
     2  C   -1.758807   1.670815
     3  C    1.185076  -1.516832
     4  C    0.251331  -0.366638
     5  O   -0.341218   0.002885
     6  N   -0.346720   0.198876
     7  N   -0.018452  -0.406112
     8  N    0.230277  -0.022351
     9  C    0.052986  -0.173447
    10  C   -0.256194   0.021680
    11  C   -0.382252  -0.159231
    12  C    0.080417  -0.050579
    13  C   -0.400279  -0.098598
    14  O   -0.223107  -0.001048
    15  H   -0.155348   0.332157
    16  H   -0.086550   0.244186
    17  H    0.033318   0.106633
    18  H   -0.128609   0.296139
    19  H    0.259626  -0.090602
    20  H    0.190225   0.054009
    21  H   -0.280108   0.589338
    22  H   -0.299139   0.552350
    23  H   -0.526241   0.805347
    24  H    0.012534   0.131357
    25  H    0.029772   0.086016
    26  H    0.125943   0.028354
    27  H   -0.000259   0.142325
    28  H    0.130580   0.032217
    29  H    0.093708   0.012699
    30  H    0.133025   0.033295
    31  H    0.246383  -0.063773
    32  H    0.084132   0.046144
    33  H    0.325469  -0.018176
 Sum of Mulliken charges =  -1.00000   1.00000

 Dipole moment (field-independent basis, Debye):
    X=            -11.9778    Y=              0.1076    Z=              0.6132  Tot=             11.9939
 Quadrupole moment (field-independent basis, Debye-Ang):
   XX=           -183.4195   YY=           -123.0964   ZZ=           -112.9512
   XY=             -3.0300   XZ=              1.8828   YZ=             -2.6070

 Summary of Natural Population Analysis:

                                       Natural Population
                Natural  -----------------------------------------------
    Atom  No    Charge         Core      Valence    Rydberg      Total
 -----------------------------------------------------------------------
      C    1   -0.29245      0.99964     2.28598    0.00683     3.29245
      C    2    0.00980      0.99958     1.97717    0.01345     2.99020
      C    3   -0.25279      0.99955     2.24444    0.00881     3.25279
      C    4    0.34807      0.99965     1.62835    0.02392     2.65193
      O    5   -0.35138      0.99986     3.34539    0.00613     4.35138
      N    6   -0.22337      0.99966     2.70801    0.01571     3.72337
      N    7   -0.32232      0.99976     2.80952    0.01304     3.82232
      N    8   -0.28983      0.99969     2.77568    0.01446     3.78983
      C    9   -0.07751      0.99961     2.06592    0.01198     3.07751
      C   10   -0.20012      0.99963     2.19330    0.00720     3.20012
      C   11   -0.19692      0.99961     2.18852    0.00879     3.19692
      C   12    0.06003      0.99956     1.92674    0.01367     2.93997
      C   13   -0.09870      0.99959     2.08821    0.01090     3.09870
      O   14   -0.39476      0.99989     3.38771    0.00716     4.39476
      H   15    0.09838      0.00000     0.40056    0.00105     0.40162
      H   16    0.10039      0.00000     0.39827    0.00134     0.39961
      H   17    0.10634      0.00000     0.39226    0.00141     0.39366
      H   18    0.09537      0.00000     0.40341    0.00121     0.40463
      H   19    0.12026      0.00000     0.37830    0.00144     0.37974
      H   20    0.11890      0.00000     0.37946    0.00164     0.38110
      H   21    0.18725      0.00000     0.30812    0.00463     0.31275
      H   22    0.18651      0.00000     0.29307    0.02042     0.31349
      H   23    0.18545      0.00000     0.29918    0.01537     0.31455
      H   24    0.08268      0.00000     0.41611    0.00121     0.41732
      H   25    0.09605      0.00000     0.40281    0.00114     0.40395
      H   26    0.10162      0.00000     0.39704    0.00134     0.39838
      H   27    0.09335      0.00000     0.40546    0.00119     0.40665
      H   28    0.10133      0.00000     0.39745    0.00122     0.39867
      H   29    0.09220      0.00000     0.40625    0.00154     0.40780
      H   30    0.07349      0.00000     0.42511    0.00140     0.42651
      H   31    0.10850      0.00000     0.39007    0.00143     0.39150
      H   32    0.08696      0.00000     0.41154    0.00150     0.41304
      H   33    0.24720      0.00000     0.24941    0.00339     0.25280
 =======================================================================
   * Total *    0.00000     13.99527    40.77880    0.22593    55.00000

 Normal termination of Gaussian 16 at Thu Dec 10 10:40:37 2020.
