 Gaussian 16, Revision A.03,

 -----------------------------------------------------------
 # opt freq B3LYP/6-31G(d) empiricaldispersion=gd3bj scf=xqc
 -----------------------------------------------------------

 ------------------------------
 CID_21962140_JID_6140_neutraal
 ------------------------------
 Symbolic Z-matrix:
 Charge =  0 Multiplicity = 1

 SCF Done:  E(RB3LYP) =  -1083.38096907     A.U. after   15 cycles
 SCF Done:  E(RB3LYP) =  -1083.38626916     A.U. after   13 cycles
 SCF Done:  E(RB3LYP) =  -1083.38748615     A.U. after   13 cycles
 SCF Done:  E(RB3LYP) =  -1083.38805286     A.U. after   13 cycles
 SCF Done:  E(RB3LYP) =  -1083.38888777     A.U. after   15 cycles
 SCF Done:  E(RB3LYP) =  -1083.38850901     A.U. after   15 cycles
 SCF Done:  E(RB3LYP) =  -1083.38949864     A.U. after   12 cycles
 SCF Done:  E(RB3LYP) =  -1083.38971461     A.U. after   12 cycles
 SCF Done:  E(RB3LYP) =  -1083.38975235     A.U. after   11 cycles
 SCF Done:  E(RB3LYP) =  -1083.38977732     A.U. after   10 cycles
 SCF Done:  E(RB3LYP) =  -1083.38986250     A.U. after   10 cycles
 SCF Done:  E(RB3LYP) =  -1083.38986967     A.U. after   10 cycles
 SCF Done:  E(RB3LYP) =  -1083.38987070     A.U. after    8 cycles
 SCF Done:  E(RB3LYP) =  -1083.38987105     A.U. after   10 cycles
 SCF Done:  E(RB3LYP) =  -1083.38987129     A.U. after    9 cycles
 SCF Done:  E(RB3LYP) =  -1083.38987134     A.U. after    7 cycles
 Optimization completed.
    -- Stationary point found.
 Normal termination of Gaussian 16 at Thu Dec 10 21:13:33 2020.

 --------------------------------------------------------------------
 #N Geom=AllCheck Guess=TCheck SCRF=Check GenChk RB3LYP/6-31G(d) Freq
 --------------------------------------------------------------------

 Structure from the checkpoint file:  "JID_6140.chk"
 ------------------------------
 CID_21962140_JID_6140_neutraal
 ------------------------------
 Charge =  0 Multiplicity = 1

 SCF Done:  E(RB3LYP) =  -1083.38987134     A.U. after    1 cycles

  Exact polarizability: 268.628 -11.693 161.247  -1.847  -3.090  62.785
 Approx polarizability: 370.984 -50.034 300.249  -4.441  -7.445  99.287

                      1                      2                      3
                      A                      A                      A
 Frequencies --     26.5684                40.8008                57.4245
 Red. masses --      3.8492                 3.9229                 6.5485
 Frc consts  --      0.0016                 0.0038                 0.0127
 IR Inten    --      3.8659                 0.3104                 2.3433

                      4                      5                      6
                      A                      A                      A
 Frequencies --     85.9015               120.9293               141.5624
 Red. masses --      6.3119                 7.1608                 6.2592
 Frc consts  --      0.0274                 0.0617                 0.0739
 IR Inten    --      2.7651                 3.0444                 0.9967

                      7                      8                      9
                      A                      A                      A
 Frequencies --    185.1389               186.5161               232.3164
 Red. masses --      6.0506                 3.7612                 1.5302
 Frc consts  --      0.1222                 0.0771                 0.0487
 IR Inten    --      4.1501                 0.0779                 0.1080

                     10                     11                     12
                      A                      A                      A
 Frequencies --    240.6392               296.4542               317.9532
 Red. masses --      3.0728                 4.9900                 4.1093
 Frc consts  --      0.1048                 0.2584                 0.2448
 IR Inten    --      0.3513                 0.5748                 3.0159

                     13                     14                     15
                      A                      A                      A
 Frequencies --    365.5387               395.9854               398.8964
 Red. masses --      2.4432                 2.0551                 2.6448
 Frc consts  --      0.1923                 0.1899                 0.2480
 IR Inten    --     52.0105               118.6573                61.6747

                     16                     17                     18
                      A                      A                      A
 Frequencies --    411.1494               478.7044               489.7836
 Red. masses --      3.0531                 7.8936                 3.4191
 Frc consts  --      0.3041                 1.0658                 0.4832
 IR Inten    --      0.2922                12.2025                18.1286

                     19                     20                     21
                      A                      A                      A
 Frequencies --    497.1670               543.3682               590.3100
 Red. masses --      1.2028                 7.3800                 4.6997
 Frc consts  --      0.1752                 1.2838                 0.9649
 IR Inten    --    115.9944                 0.5178                 4.0567

                     22                     23                     24
                      A                      A                      A
 Frequencies --    617.8688               639.9957               654.5205
 Red. masses --      5.6825                 5.6693                 6.7309
 Frc consts  --      1.2782                 1.3681                 1.6989
 IR Inten    --      1.9176                 1.1118                 1.0470

                     25                     26                     27
                      A                      A                      A
 Frequencies --    704.4778               718.3051               732.9362
 Red. masses --      4.8403                 6.1816                 4.3553
 Frc consts  --      1.4153                 1.8792                 1.3785
 IR Inten    --      7.7523                 1.1435                 6.1755

                     28                     29                     30
                      A                      A                      A
 Frequencies --    741.1457               755.7837               831.2583
 Red. masses --      7.3134                 5.0135                 1.4403
 Frc consts  --      2.3669                 1.6873                 0.5864
 IR Inten    --      2.7772                23.6543                19.9345

                     31                     32                     33
                      A                      A                      A
 Frequencies --    840.6179               862.9491               880.5989
 Red. masses --      1.3866                 1.6033                 6.5508
 Frc consts  --      0.5773                 0.7035                 2.9930
 IR Inten    --     30.7669                15.1484                 7.1216

                     34                     35                     36
                      A                      A                      A
 Frequencies --    935.5430               956.9166               973.1317
 Red. masses --      4.9588                 1.3413                 1.3365
 Frc consts  --      2.5571                 0.7237                 0.7457
 IR Inten    --     31.8578                 0.3423                 0.8486

                     37                     38                     39
                      A                      A                      A
 Frequencies --    986.7860               992.2053              1004.4809
 Red. masses --      3.1209                 1.1879                 1.3335
 Frc consts  --      1.7905                 0.6890                 0.7927
 IR Inten    --      7.3005                 5.0053                 6.4702

                     40                     41                     42
                      A                      A                      A
 Frequencies --   1036.7173              1068.0817              1121.6521
 Red. masses --      3.2938                 5.6874                 3.6240
 Frc consts  --      2.0858                 3.8228                 2.6863
 IR Inten    --     19.8463                 3.7489                99.7387

                     43                     44                     45
                      A                      A                      A
 Frequencies --   1160.1447              1168.1845              1232.0194
 Red. masses --      1.4671                 1.5806                 1.2374
 Frc consts  --      1.1634                 1.2709                 1.1066
 IR Inten    --     20.2573                31.1059                23.0591

                     46                     47                     48
                      A                      A                      A
 Frequencies --   1266.2411              1283.7036              1336.8412
 Red. masses --      2.7664                 2.2218                 7.7421
 Frc consts  --      2.6134                 2.1572                 8.1521
 IR Inten    --     12.6055                 3.6701                66.4757

                     49                     50                     51
                      A                      A                      A
 Frequencies --   1346.9532              1378.3253              1391.1665
 Red. masses --      1.4023                 4.3519                 1.2128
 Frc consts  --      1.4990                 4.8712                 1.3829
 IR Inten    --     53.7146               541.6738                61.7404

                     52                     53                     54
                      A                      A                      A
 Frequencies --   1416.2591              1459.1912              1500.1278
 Red. masses --      3.8092                 2.8726                 1.0513
 Frc consts  --      4.5016                 3.6037                 1.3939
 IR Inten    --    156.2017                11.7354                 9.8039

                     55                     56                     57
                      A                      A                      A
 Frequencies --   1516.3087              1546.3118              1607.8935
 Red. masses --      1.0634                 2.2131                 5.9608
 Frc consts  --      1.4405                 3.1178                 9.0796
 IR Inten    --     39.0532                54.1479                 3.2371

                     58                     59                     60
                      A                      A                      A
 Frequencies --   1621.4926              1661.0456              1670.9143
 Red. masses --      1.7647                 5.3599                 3.1596
 Frc consts  --      2.7336                 8.7131                 5.1975
 IR Inten    --     20.0309               151.5327               209.0959

                     61                     62                     63
                      A                      A                      A
 Frequencies --   1738.0575              1792.8182              3067.6899
 Red. masses --      7.1859                10.8506                 1.0301
 Frc consts  --     12.7897                20.5482                 5.7117
 IR Inten    --    795.6024               248.7833                18.3714

                     64                     65                     66
                      A                      A                      A
 Frequencies --   3152.4873              3164.0154              3194.5865
 Red. masses --      1.1084                 1.1040                 1.0895
 Frc consts  --      6.4899                 6.5115                 6.5512
 IR Inten    --      7.8612                 3.4379                 7.1421

                     67                     68                     69
                      A                      A                      A
 Frequencies --   3208.6076              3231.7664              3233.1091
 Red. masses --      1.0883                 1.0917                 1.0923
 Frc consts  --      6.6014                 6.7179                 6.7272
 IR Inten    --      4.1614                11.7965                 0.8163

                     70                     71                     72
                      A                      A                      A
 Frequencies --   3255.7847              3599.2437              3718.7805
 Red. masses --      1.0920                 1.0459                 1.1036
 Frc consts  --      6.8201                 7.9832                 8.9922
 IR Inten    --      2.4518                81.5044                53.9056

 - Thermochemistry -
 -------------------
 Temperature   298.150 Kelvin.  Pressure   1.00000 Atm.
 Atom     1 has atomic number  6 and mass  12.00000

 Molecular mass:   234.04630 amu.
 Principal axes and moments of inertia in atomic units:
                           1         2         3
     Eigenvalues --  1329.340959246.10031**********
           X            0.99983   0.01823  -0.00037
           Y           -0.01823   0.99983  -0.00311
           Z            0.00031   0.00311   1.00000
 This molecule is an asymmetric top.
 Rotational symmetry number  1.
 Warning -- assumption of classical behavior for rotation
           may cause significant error
 Rotational temperatures (Kelvin)      0.06516     0.00937     0.00823
 Rotational constants (GHZ):           1.35762     0.19519     0.17151
 Zero-point vibrational energy     514867.7 (Joules/Mol)
                                  123.05632 (Kcal/Mol)
 Warning -- explicit consideration of  22 degrees of freedom as
           vibrations may cause significant error
 Vibrational temperatures:     38.23    58.70    82.62   123.59   173.99
          (Kelvin)            203.68   266.37   268.36   334.25   346.23
                              426.53   457.46   525.93   569.73   573.92
                              591.55   688.75   704.69   715.31   781.79
                              849.32   888.98   920.81   941.71  1013.59
                             1033.48  1054.53  1066.34  1087.40  1196.00
                             1209.46  1241.59  1266.99  1346.04  1376.79
                             1400.12  1419.76  1427.56  1445.22  1491.60
                             1536.73  1613.81  1669.19  1680.76  1772.60
                             1821.84  1846.96  1923.42  1937.97  1983.10
                             2001.58  2037.68  2099.45  2158.35  2181.63
                             2224.80  2313.40  2332.97  2389.87  2404.07
                             2500.68  2579.47  4413.72  4535.73  4552.31
                             4596.30  4616.47  4649.79  4651.72  4684.35
                             5178.51  5350.50

 Zero-point correction=                           0.196103 (Hartree/Particle)
 Thermal correction to Energy=                    0.210601
 Thermal correction to Enthalpy=                  0.211545
 Thermal correction to Gibbs Free Energy=         0.152937
 Sum of electronic and zero-point Energies=          -1083.193769
 Sum of electronic and thermal Energies=             -1083.179270
 Sum of electronic and thermal Enthalpies=           -1083.178326
 Sum of electronic and thermal Free Energies=        -1083.236934

                     E (Thermal)             CV                S
                      KCal/Mol        Cal/Mol-Kelvin    Cal/Mol-Kelvin
 Total                  132.154             54.704            123.351
 Electronic               0.000              0.000              0.000
 Translational            0.889              2.981             42.253
 Rotational               0.889              2.981             33.225
 Vibrational            130.377             48.743             47.873
 Vibration     1          0.593              1.984              6.070
 Vibration     2          0.594              1.981              5.220
 Vibration     3          0.596              1.975              4.544
 Vibration     4          0.601              1.959              3.751
 Vibration     5          0.609              1.932              3.085
 Vibration     6          0.615              1.912              2.783
 Vibration     7          0.631              1.860              2.276
 Vibration     8          0.632              1.858              2.262
 Vibration     9          0.653              1.792              1.861
 Vibration    10          0.658              1.778              1.798
 Vibration    11          0.690              1.680              1.437
 Vibration    12          0.704              1.639              1.321
 Vibration    13          0.739              1.543              1.098
 Vibration    14          0.763              1.479              0.978
 Vibration    15          0.765              1.472              0.967
 Vibration    16          0.775              1.446              0.923
 Vibration    17          0.835              1.297              0.714
 Vibration    18          0.846              1.273              0.684
 Vibration    19          0.853              1.256              0.665
 Vibration    20          0.898              1.154              0.558
 Vibration    21          0.948              1.052              0.467
 Vibration    22          0.978              0.994              0.420

 Optimization completed.
    -- Stationary point found.
 Normal termination of Gaussian 16 at Thu Dec 10 21:20:19 2020.

 ----------------------------------------------------------------------
 # B3LYP/6-311++G(d,p) empiricaldispersion=gd3bj scf=xqc pop=npa geom=c
 heck
 ----------------------------------------------------------------------

 --------------------------------------
 CID_21962140_JID_6140_Energie_neutraal
 --------------------------------------
 Structure from the checkpoint file:  "JID_6140.chk"
 Charge =  0 Multiplicity = 1

 SCF Done:  E(RB3LYP) =  -1083.60927184     A.U. after   19 cycles
 Normal termination of Gaussian 16 at Thu Dec 10 21:23:44 2020.

 ----------------------------------------------------------------------
 # B3LYP/6-311++G(d,p) empiricaldispersion=gd3bj scf=xqc pop=npa geom=c
 heck
 ----------------------------------------------------------------------

 ------------------------------------
 CID_21962140_JID_6140_Energie_kation
 ------------------------------------
 Structure from the checkpoint file:  "JID_6140.chk"
 Charge =  1 Multiplicity = 2

 SCF Done:  E(UB3LYP) =  -1083.32217088     A.U. after   30 cycles
 Normal termination of Gaussian 16 at Thu Dec 10 21:30:44 2020.
 Gaussian 16:  ES64L-G16RevA.03 25-Dec-2016

 ----------------------------------------------------------------------
 # B3LYP/6-311++G(d,p) empiricaldispersion=gd3bj scf=xqc pop=npa geom=c
 heck
 ----------------------------------------------------------------------

 -----------------------------------
 CID_21962140_JID_6140_Energie_anion
 -----------------------------------
 Structure from the checkpoint file:  "JID_6140.chk"
 Charge = -1 Multiplicity = 2

                         Standard orientation:
 ---------------------------------------------------------------------
 Center     Atomic      Atomic             Coordinates (Angstroms)
 Number     Number       Type             X           Y           Z
 ---------------------------------------------------------------------
      1          6           0       -5.322758   -1.090161    0.183490
      2         16           0       -4.608726    0.563554   -0.082441
      3          6           0       -2.861112    0.262188   -0.044045
      4          6           0       -2.277708   -0.992108    0.184092
      5          6           0       -0.894697   -1.130259    0.199498
      6          6           0       -0.052684   -0.029921   -0.016380
      7          6           0       -0.643950    1.226454   -0.235104
      8          6           0       -2.023035    1.370228   -0.251416
      9          6           0        1.403424   -0.188644   -0.018933
     10          6           0        2.118044   -1.324971   -0.137507
     11          6           0        3.588311   -1.308678   -0.100236
     12          8           0        4.253909   -2.329248   -0.176447
     13          7           0        4.189661   -0.044148    0.029892
     14          6           0        3.433766    0.991300    0.106760
     15          8           0        2.065653    1.018398    0.106135
     16          7           0        3.927498    2.257491    0.169455
     17          1           0       -6.406075   -0.953230    0.150973
     18          1           0       -5.046246   -1.493851    1.160930
     19          1           0       -5.029077   -1.783615   -0.608763
     20          1           0       -2.892128   -1.866565    0.361090
     21          1           0       -0.467613   -2.107177    0.400962
     22          1           0       -0.013582    2.091683   -0.403647
     23          1           0       -2.459298    2.348922   -0.430069
     24          1           0        1.630837   -2.281721   -0.269769
     25          1           0        4.913837    2.324107    0.375059
     26          1           0        3.326756    2.985420    0.528052
 ---------------------------------------------------------------------

 SCF Done:  E(UB3LYP) =  -1083.62917415     A.U. after   28 cycles

 The electronic state is 2-A.
 Alpha  occ. eigenvalues --  -88.74171 -19.06297 -18.93098 -14.23986 -14.16858
 Alpha  occ. eigenvalues --  -10.19409 -10.11469 -10.10634 -10.09213 -10.06726
 Alpha  occ. eigenvalues --  -10.05079 -10.04866 -10.04215 -10.03954 -10.03853
 Alpha  occ. eigenvalues --  -10.01322  -7.82773  -5.79187  -5.78769  -5.78171
 Alpha  occ. eigenvalues --   -0.99653  -0.88066  -0.84219  -0.76980  -0.74049
 Alpha  occ. eigenvalues --   -0.69523  -0.65803  -0.62305  -0.61158  -0.55774
 Alpha  occ. eigenvalues --   -0.54263  -0.51204  -0.48091  -0.46383  -0.42887
 Alpha  occ. eigenvalues --   -0.41976  -0.39123  -0.38266  -0.35876  -0.35377
 Alpha  occ. eigenvalues --   -0.34175  -0.34002  -0.33272  -0.31930  -0.29906
 Alpha  occ. eigenvalues --   -0.28506  -0.27407  -0.26342  -0.25898  -0.25350
 Alpha  occ. eigenvalues --   -0.24386  -0.23900  -0.22140  -0.20874  -0.18050
 Alpha  occ. eigenvalues --   -0.15765  -0.14409  -0.13512  -0.12647  -0.10516
 Alpha  occ. eigenvalues --   -0.08680   0.03524
 Alpha virt. eigenvalues --    0.06591   0.06898   0.09247   0.09460   0.10475
 Alpha virt. eigenvalues --    0.10799   0.10863   0.11778   0.11969   0.12497
 Alpha virt. eigenvalues --    0.13293   0.13859   0.14067   0.14507   0.14704

  Beta  occ. eigenvalues --  -88.74163 -19.06212 -18.92871 -14.23993 -14.16811
  Beta  occ. eigenvalues --  -10.19424 -10.11399 -10.10636 -10.08893 -10.06328
  Beta  occ. eigenvalues --  -10.05173 -10.04928 -10.04088 -10.03762 -10.03704
  Beta  occ. eigenvalues --  -10.01137  -7.82767  -5.79188  -5.78775  -5.78132
  Beta  occ. eigenvalues --   -0.99477  -0.87706  -0.84154  -0.76852  -0.73692
  Beta  occ. eigenvalues --   -0.69244  -0.65378  -0.62060  -0.60776  -0.55428
  Beta  occ. eigenvalues --   -0.54180  -0.51017  -0.47947  -0.45936  -0.42735
  Beta  occ. eigenvalues --   -0.41839  -0.39007  -0.38039  -0.35526  -0.35188
  Beta  occ. eigenvalues --   -0.34128  -0.33860  -0.33055  -0.31744  -0.29829
  Beta  occ. eigenvalues --   -0.28307  -0.27156  -0.25784  -0.25452  -0.24443
  Beta  occ. eigenvalues --   -0.24176  -0.23256  -0.21993  -0.20731  -0.16992
  Beta  occ. eigenvalues --   -0.15651  -0.13897  -0.12813  -0.11474  -0.10261
  Beta  occ. eigenvalues --   -0.07364
  Beta virt. eigenvalues --    0.06553   0.06868   0.09094   0.09192   0.09409
  Beta virt. eigenvalues --    0.10681   0.10808   0.11013   0.11734   0.12288
  Beta virt. eigenvalues --    0.12533   0.13282   0.13973   0.14462   0.14576

 Mulliken charges and spin densities:
               1          2
     1  C   -0.472803   0.003397
     2  S   -0.811619   0.028091
     3  C    1.198603   0.212051
     4  C   -0.577233  -0.048682
     5  C   -0.538573   0.201490
     6  C    0.971766   0.014472
     7  C   -0.382410   0.144904
     8  C   -0.538962  -0.018469
     9  C   -0.132883   0.143296
    10  C   -0.171244   0.171712
    11  C   -0.329722   0.048756
    12  O   -0.425049   0.075198
    13  N   -0.236735   0.019080
    14  C    0.289156  -0.002572
    15  O   -0.117115   0.019417
    16  N   -0.341866  -0.004356
    17  H    0.155733   0.000911
    18  H    0.173171   0.001044
    19  H    0.170448   0.001671
    20  H    0.098994   0.002735
    21  H    0.096646  -0.007117
    22  H    0.128437  -0.006732
    23  H    0.131475   0.001283
    24  H    0.145484  -0.005600
    25  H    0.268881   0.000051
    26  H    0.247422   0.003969
 Sum of Mulliken charges =  -1.00000   1.00000

 Dipole moment (field-independent basis, Debye):
    X=             -5.8762    Y=              4.8311    Z=              1.4064  Tot=              7.7361
 Quadrupole moment (field-independent basis, Debye-Ang):
   XX=           -170.8180   YY=           -111.9008   ZZ=           -110.3978
   XY=             38.4305   XZ=              3.9472   YZ=              0.9239

 Summary of Natural Population Analysis:

                                       Natural Population
                Natural  -----------------------------------------------
    Atom  No    Charge         Core      Valence    Rydberg      Total
 -----------------------------------------------------------------------
      C    1   -0.35601      0.99963     2.35073    0.00565     3.35601
      S    2    0.11716      4.99954     2.86083    0.02247     7.88284
      C    3   -0.02264      0.99941     2.01296    0.01027     3.02264
      C    4   -0.14661      0.99951     2.13816    0.00893     3.14661
      C    5   -0.03982      0.99956     2.03220    0.00806     3.03982
      C    6   -0.03156      0.99937     2.02150    0.01069     3.03156
      C    7   -0.06132      0.99956     2.05311    0.00864     3.06132
      C    8   -0.13229      0.99952     2.12344    0.00932     3.13229
      C    9    0.22519      0.99937     1.76408    0.01135     2.77481
      C   10   -0.14977      0.99946     2.14277    0.00754     3.14977
      C   11    0.31878      0.99964     1.65766    0.02392     2.68122
      O   12   -0.29750      0.99987     3.29026    0.00736     4.29750
      N   13   -0.30652      0.99961     2.79342    0.01349     3.80652
      C   14    0.36947      0.99961     1.61294    0.01799     2.63053
      O   15   -0.26174      0.99984     3.25300    0.00891     4.26174
      N   16   -0.40448      0.99970     2.89622    0.00856     3.90448
      H   17    0.10330      0.00000     0.39570    0.00100     0.39670
      H   18    0.10037      0.00000     0.39790    0.00173     0.39963
      H   19    0.10115      0.00000     0.39712    0.00173     0.39885
      H   20    0.09367      0.00000     0.40476    0.00157     0.40633
      H   21    0.09568      0.00000     0.40303    0.00129     0.40432
      H   22    0.09837      0.00000     0.40067    0.00096     0.40163
      H   23    0.09474      0.00000     0.40423    0.00102     0.40526
      H   24    0.10447      0.00000     0.39442    0.00111     0.39553
      H   25    0.19560      0.00000     0.30317    0.00123     0.30440
      H   26    0.19230      0.00000     0.30644    0.00126     0.30770
 =======================================================================
   * Total *    0.00000     19.99321    40.81073    0.19606    61.00000

 Normal termination of Gaussian 16 at Thu Dec 10 21:37:11 2020.
