 Gaussian 16, Revision A.03,

 -----------------------------------------------------------
 # opt freq B3LYP/6-31G(d) empiricaldispersion=gd3bj scf=xqc
 -----------------------------------------------------------

 ------------------------------
 CID_80561741_JID_4199_neutraal
 ------------------------------
 Symbolic Z-matrix:
 Charge =  0 Multiplicity = 1

 SCF Done:  E(RB3LYP) =  -581.231156619     A.U. after   13 cycles
 SCF Done:  E(RB3LYP) =  -581.252782419     A.U. after   11 cycles
 SCF Done:  E(RB3LYP) =  -581.257156443     A.U. after   10 cycles
 SCF Done:  E(RB3LYP) =  -581.257844146     A.U. after   10 cycles
 SCF Done:  E(RB3LYP) =  -581.258050666     A.U. after   10 cycles
 SCF Done:  E(RB3LYP) =  -581.258118305     A.U. after    9 cycles
 SCF Done:  E(RB3LYP) =  -581.258165871     A.U. after    9 cycles
 SCF Done:  E(RB3LYP) =  -581.258217404     A.U. after   10 cycles
 SCF Done:  E(RB3LYP) =  -581.258264129     A.U. after    9 cycles
 SCF Done:  E(RB3LYP) =  -581.258294083     A.U. after    9 cycles
 SCF Done:  E(RB3LYP) =  -581.258303029     A.U. after    9 cycles
 SCF Done:  E(RB3LYP) =  -581.258304910     A.U. after    7 cycles
 SCF Done:  E(RB3LYP) =  -581.258305891     A.U. after    8 cycles
 SCF Done:  E(RB3LYP) =  -581.258305951     A.U. after    7 cycles
 Optimization completed.
    -- Stationary point found.
 Normal termination of Gaussian 16 at Thu Dec 10 09:22:01 2020.

 --------------------------------------------------------------------
 #N Geom=AllCheck Guess=TCheck SCRF=Check GenChk RB3LYP/6-31G(d) Freq
 --------------------------------------------------------------------

 Structure from the checkpoint file:  "JID_4199.chk"
 ------------------------------
 CID_80561741_JID_4199_neutraal
 ------------------------------
 Charge =  0 Multiplicity = 1

 SCF Done:  E(RB3LYP) =  -581.258305951     A.U. after    1 cycles

  Exact polarizability: 157.145  -0.203 128.361   1.661  -3.767 119.910
 Approx polarizability: 191.672  -1.909 189.073  -0.566  -3.818 180.240

                      1                      2                      3
                      A                      A                      A
 Frequencies --     34.0246                55.2791                77.4556
 Red. masses --      2.9021                 3.7688                 3.1368
 Frc consts  --      0.0020                 0.0068                 0.0111
 IR Inten    --      0.8076                 0.2475                 0.3875

                      4                      5                      6
                      A                      A                      A
 Frequencies --    113.4741               197.0031               223.5842
 Red. masses --      2.6917                 2.4742                 1.9853
 Frc consts  --      0.0204                 0.0566                 0.0585
 IR Inten    --      0.6967                 3.0739                 0.2959

                      7                      8                      9
                      A                      A                      A
 Frequencies --    242.6079               258.0292               268.4987
 Red. masses --      1.8370                 2.1222                 1.3330
 Frc consts  --      0.0637                 0.0832                 0.0566
 IR Inten    --      1.0900                 1.3590                 0.9688

                     10                     11                     12
                      A                      A                      A
 Frequencies --    280.3996               286.6769               293.5541
 Red. masses --      1.6208                 1.4473                 2.4652
 Frc consts  --      0.0751                 0.0701                 0.1252
 IR Inten    --     12.8603                33.1467                 7.7361

                     13                     14                     15
                      A                      A                      A
 Frequencies --    315.6142               351.6503               382.4674
 Red. masses --      1.3680                 2.4017                 2.4671
 Frc consts  --      0.0803                 0.1750                 0.2126
 IR Inten    --      0.3864                 2.4620                 6.6163

                     16                     17                     18
                      A                      A                      A
 Frequencies --    407.6884               411.2359               417.5627
 Red. masses --      2.4657                 2.1573                 2.0077
 Frc consts  --      0.2415                 0.2150                 0.2063
 IR Inten    --      1.5222                 0.7078                 0.1340

                     19                     20                     21
                      A                      A                      A
 Frequencies --    454.2183               475.4372               488.7628
 Red. masses --      2.2344                 2.5259                 2.6557
 Frc consts  --      0.2716                 0.3364                 0.3738
 IR Inten    --      2.6079                 0.6074                10.4108

                     22                     23                     24
                      A                      A                      A
 Frequencies --    527.7374               574.5344               613.3711
 Red. masses --      1.9926                 2.1216                 2.5995
 Frc consts  --      0.3270                 0.4126                 0.5762
 IR Inten    --      3.1217                 1.5992                 1.2266

                     25                     26                     27
                      A                      A                      A
 Frequencies --    690.0136               743.4911               804.4872
 Red. masses --      2.9471                 2.7249                 1.8989
 Frc consts  --      0.8267                 0.8875                 0.7241
 IR Inten    --      0.8544                 1.2916                 1.2332

                     28                     29                     30
                      A                      A                      A
 Frequencies --    815.9681               853.0572               863.1240
 Red. masses --      1.3097                 2.2315                 1.7698
 Frc consts  --      0.5138                 0.9568                 0.7768
 IR Inten    --      6.6865                 2.8721                 1.6884

                     31                     32                     33
                      A                      A                      A
 Frequencies --    873.4586               902.7729               918.9116
 Red. masses --      1.8399                 2.3039                 1.7261
 Frc consts  --      0.8271                 1.1063                 0.8587
 IR Inten    --    103.5558                 2.8826                48.1736

                     34                     35                     36
                      A                      A                      A
 Frequencies --    929.3479               954.8453               971.5305
 Red. masses --      1.9942                 1.7059                 1.7601
 Frc consts  --      1.0148                 0.9164                 0.9788
 IR Inten    --     22.9342                 0.5823                 1.2454

                     37                     38                     39
                      A                      A                      A
 Frequencies --    973.5637               994.8600              1013.8210
 Red. masses --      2.5070                 1.8218                 1.4504
 Frc consts  --      1.4000                 1.0623                 0.8784
 IR Inten    --      9.7512                 8.0018                 4.4175

                     40                     41                     42
                      A                      A                      A
 Frequencies --   1026.2614              1029.5072              1036.8040
 Red. masses --      1.2688                 1.8889                 1.7703
 Frc consts  --      0.7873                 1.1796                 1.1212
 IR Inten    --      8.1561                 9.3038                 4.6756

                     43                     44                     45
                      A                      A                      A
 Frequencies --   1074.3453              1075.3926              1084.9468
 Red. masses --      2.2629                 1.9906                 2.0316
 Frc consts  --      1.5389                 1.3563                 1.4090
 IR Inten    --     12.1854                 4.1852                15.5997

                     46                     47                     48
                      A                      A                      A
 Frequencies --   1105.3879              1145.8067              1163.2721
 Red. masses --      2.3220                 1.8861                 1.7643
 Frc consts  --      1.6717                 1.4589                 1.4067
 IR Inten    --     16.5027                18.6418                18.5286

                     49                     50                     51
                      A                      A                      A
 Frequencies --   1183.4565              1189.8953              1199.3679
 Red. masses --      1.7986                 1.7142                 1.8260
 Frc consts  --      1.4842                 1.4300                 1.5476
 IR Inten    --     10.8152                 9.0195                 1.4754

                     52                     53                     54
                      A                      A                      A
 Frequencies --   1220.7992              1246.9958              1255.0588
 Red. masses --      1.3873                 2.0710                 1.7121
 Frc consts  --      1.2182                 1.8974                 1.5890
 IR Inten    --      3.9386                11.5193                13.8335

                     55                     56                     57
                      A                      A                      A
 Frequencies --   1266.6468              1269.3584              1273.8707
 Red. masses --      1.4366                 1.4241                 1.4569
 Frc consts  --      1.3580                 1.3519                 1.3929
 IR Inten    --     18.3845                23.6035                13.4271

                     58                     59                     60
                      A                      A                      A
 Frequencies --   1303.5100              1308.6633              1320.7065
 Red. masses --      1.4784                 1.4842                 1.5204
 Frc consts  --      1.4801                 1.4976                 1.5625
 IR Inten    --      9.4981                 1.1707                 9.9405

                     61                     62                     63
                      A                      A                      A
 Frequencies --   1331.2066              1354.7489              1380.0663
 Red. masses --      1.6243                 1.3521                 1.4831
 Frc consts  --      1.6960                 1.4621                 1.6643
 IR Inten    --      4.0345                 3.1081                28.1981

                     64                     65                     66
                      A                      A                      A
 Frequencies --   1388.8418              1395.7142              1414.2353
 Red. masses --      1.3460                 1.3985                 1.3236
 Frc consts  --      1.5297                 1.6051                 1.5597
 IR Inten    --      9.5870                 7.0930                21.6227

                     67                     68                     69
                      A                      A                      A
 Frequencies --   1417.5228              1427.9798              1438.3896
 Red. masses --      1.4369                 1.2427                 1.3315
 Frc consts  --      1.7011                 1.4930                 1.6232
 IR Inten    --      0.1650                 4.8908                22.0449

                     70                     71                     72
                      A                      A                      A
 Frequencies --   1448.6251              1452.6541              1458.8948
 Red. masses --      1.3925                 1.2411                 1.3442
 Frc consts  --      1.7217                 1.5431                 1.6857
 IR Inten    --     26.3108                 6.9693                 9.9775

                     73                     74                     75
                      A                      A                      A
 Frequencies --   1499.3939              1505.0409              1505.4856
 Red. masses --      1.0968                 1.0793                 1.0826
 Frc consts  --      1.4528                 1.4404                 1.4457
 IR Inten    --      1.6572                 1.1855                 3.8142

                     76                     77                     78
                      A                      A                      A
 Frequencies --   1515.3036              1520.8898              1522.0831
 Red. masses --      1.0854                 1.0607                 1.0677
 Frc consts  --      1.4683                 1.4456                 1.4574
 IR Inten    --      3.0664                 2.4463                 0.9852

                     79                     80                     81
                      A                      A                      A
 Frequencies --   1531.0456              1533.8307              1537.0993
 Red. masses --      1.1411                 1.0849                 1.0691
 Frc consts  --      1.5760                 1.5038                 1.4882
 IR Inten    --      1.1463                13.0082                 3.9130

                     82                     83                     84
                      A                      A                      A
 Frequencies --   1542.3002              1563.8758              1695.9319
 Red. masses --      1.0651                 1.0781                 1.0930
 Frc consts  --      1.4927                 1.5535                 1.8523
 IR Inten    --      6.0996                 8.0935                26.7794

                     85                     86                     87
                      A                      A                      A
 Frequencies --   2994.6333              3009.6983              3011.7811
 Red. masses --      1.0631                 1.0937                 1.0623
 Frc consts  --      5.6169                 5.8372                 5.6772
 IR Inten    --     51.8364                27.3504                21.8819

                     88                     89                     90
                      A                      A                      A
 Frequencies --   3022.4023              3032.3741              3034.1935
 Red. masses --      1.0672                 1.0648                 1.0573
 Frc consts  --      5.7437                 5.7688                 5.7353
 IR Inten    --     14.9158                54.7759                15.8689

                     91                     92                     93
                      A                      A                      A
 Frequencies --   3038.3419              3047.2417              3052.3921
 Red. masses --      1.0457                 1.0466                 1.0886
 Frc consts  --      5.6876                 5.7257                 5.9758
 IR Inten    --     66.1698                20.0696                21.4958

                     94                     95                     96
                      A                      A                      A
 Frequencies --   3052.9221              3059.2435              3062.8928
 Red. masses --      1.0897                 1.0583                 1.0780
 Frc consts  --      5.9837                 5.8356                 5.9583
 IR Inten    --     23.9919                51.3444                 5.3069

                     97                     98                     99
                      A                      A                      A
 Frequencies --   3067.8890              3070.4546              3076.9575
 Red. masses --      1.0763                 1.0891                 1.0963
 Frc consts  --      5.9683                 6.0496                 6.1156
 IR Inten    --     11.1795                61.3919                44.9466

                    100                    101                    102
                      A                      A                      A
 Frequencies --   3085.9898              3101.8966              3104.6897
 Red. masses --      1.0971                 1.1023                 1.1019
 Frc consts  --      6.1557                 6.2492                 6.2578
 IR Inten    --     55.7653                 2.5153                48.5484

                    103                    104                    105
                      A                      A                      A
 Frequencies --   3108.9062              3114.4237              3121.7426
 Red. masses --      1.1016                 1.1075                 1.1053
 Frc consts  --      6.2734                 6.3291                 6.3464
 IR Inten    --     64.2575                36.6469                85.5266

                    106                    107                    108
                      A                      A                      A
 Frequencies --   3132.8277              3450.4845              3535.9436
 Red. masses --      1.0979                 1.0492                 1.0922
 Frc consts  --      6.3488                 7.3601                 8.0456
 IR Inten    --     24.7223                 2.9057                 1.9233

 - Thermochemistry -
 -------------------
 Temperature   298.150 Kelvin.  Pressure   1.00000 Atm.
 Atom     1 has atomic number  6 and mass  12.00000

 Molecular mass:   196.19395 amu.
 Principal axes and moments of inertia in atomic units:
                           1         2         3
     Eigenvalues --  1443.192454675.397125003.31173
           X            0.99998   0.00506   0.00356
           Y           -0.00491   0.99919  -0.04003
           Z           -0.00376   0.04002   0.99919
 This molecule is an asymmetric top.
 Rotational symmetry number  1.
 Warning -- assumption of classical behavior for rotation
           may cause significant error
 Rotational temperatures (Kelvin)      0.06002     0.01853     0.01731
 Rotational constants (GHZ):           1.25052     0.38601     0.36071
 Zero-point vibrational energy     930728.5 (Joules/Mol)
                                  222.44945 (Kcal/Mol)
 Warning -- explicit consideration of  24 degrees of freedom as
           vibrations may cause significant error
 Vibrational temperatures:     48.95    79.53   111.44   163.26   283.44
          (Kelvin)            321.69   349.06   371.25   386.31   403.43
                              412.46   422.36   454.10   505.95   550.29
                              586.57   591.68   600.78   653.52   684.05
                              703.22   759.30   826.63   882.50   992.78
                             1069.72  1157.48  1174.00  1227.36  1241.84
                             1256.71  1298.89  1322.11  1337.12  1373.81
                             1397.82  1400.74  1431.38  1458.66  1476.56
                             1481.23  1491.73  1545.74  1547.25  1561.00
                             1590.41  1648.56  1673.69  1702.73  1711.99
                             1725.62  1756.46  1794.15  1805.75  1822.42
                             1826.32  1832.82  1875.46  1882.87  1900.20
                             1915.31  1949.18  1985.61  1998.23  2008.12
                             2034.77  2039.50  2054.54  2069.52  2084.25
                             2090.05  2099.02  2157.29  2165.42  2166.06
                             2180.18  2188.22  2189.94  2202.83  2206.84
                             2211.54  2219.03  2250.07  2440.07  4308.61
                             4330.28  4333.28  4348.56  4362.91  4365.53
                             4371.50  4384.30  4391.71  4392.47  4401.57
                             4406.82  4414.01  4417.70  4427.06  4440.05
                             4462.94  4466.96  4473.02  4480.96  4491.49
                             4507.44  4964.48  5087.43

 Zero-point correction=                           0.354496 (Hartree/Particle)
 Thermal correction to Energy=                    0.369038
 Thermal correction to Enthalpy=                  0.369983
 Thermal correction to Gibbs Free Energy=         0.313772
 Sum of electronic and zero-point Energies=           -580.903810
 Sum of electronic and thermal Energies=              -580.889268
 Sum of electronic and thermal Enthalpies=            -580.888323
 Sum of electronic and thermal Free Energies=         -580.944534

                     E (Thermal)             CV                S
                      KCal/Mol        Cal/Mol-Kelvin    Cal/Mol-Kelvin
 Total                  231.575             58.839            118.305
 Electronic               0.000              0.000              0.000
 Translational            0.889              2.981             41.727
 Rotational               0.889              2.981             31.890
 Vibrational            229.798             52.877             44.688
 Vibration     1          0.594              1.983              5.580
 Vibration     2          0.596              1.975              4.619
 Vibration     3          0.599              1.964              3.954
 Vibration     4          0.607              1.938              3.209
 Vibration     5          0.636              1.844              2.161
 Vibration     6          0.649              1.805              1.930
 Vibration     7          0.659              1.775              1.784
 Vibration     8          0.667              1.749              1.675
 Vibration     9          0.673              1.731              1.606
 Vibration    10          0.680              1.710              1.531
 Vibration    11          0.684              1.698              1.494
 Vibration    12          0.688              1.686              1.453
 Vibration    13          0.703              1.644              1.333
 Vibration    14          0.728              1.572              1.159
 Vibration    15          0.752              1.508              1.029
 Vibration    16          0.772              1.454              0.935
 Vibration    17          0.775              1.446              0.922
 Vibration    18          0.781              1.432              0.900
 Vibration    19          0.813              1.352              0.783
 Vibration    20          0.832              1.305              0.722
 Vibration    21          0.845              1.275              0.687
 Vibration    22          0.883              1.189              0.592
 Vibration    23          0.931              1.086              0.496
 Vibration    24          0.973              1.004              0.427

 Optimization completed.
    -- Stationary point found.
 Normal termination of Gaussian 16 at Thu Dec 10 09:34:12 2020.

 ----------------------------------------------------------------------
 # B3LYP/6-311++G(d,p) empiricaldispersion=gd3bj scf=xqc pop=npa geom=c
 heck
 ----------------------------------------------------------------------

 --------------------------------------
 CID_80561741_JID_4199_Energie_neutraal
 --------------------------------------
 Structure from the checkpoint file:  "JID_4199.chk"
 Charge =  0 Multiplicity = 1

 SCF Done:  E(RB3LYP) =  -581.423311623     A.U. after   14 cycles
 Normal termination of Gaussian 16 at Thu Dec 10 09:39:25 2020.

 ----------------------------------------------------------------------
 # B3LYP/6-311++G(d,p) empiricaldispersion=gd3bj scf=xqc pop=npa geom=c
 heck
 ----------------------------------------------------------------------

 ------------------------------------
 CID_80561741_JID_4199_Energie_kation
 ------------------------------------
 Structure from the checkpoint file:  "JID_4199.chk"
 Charge =  1 Multiplicity = 2

 SCF Done:  E(UB3LYP) =  -581.160057424     A.U. after   20 cycles
 Normal termination of Gaussian 16 at Thu Dec 10 09:49:12 2020.
 Gaussian 16:  ES64L-G16RevA.03 25-Dec-2016

 ----------------------------------------------------------------------
 # B3LYP/6-311++G(d,p) empiricaldispersion=gd3bj scf=xqc pop=npa geom=c
 heck
 ----------------------------------------------------------------------

 -----------------------------------
 CID_80561741_JID_4199_Energie_anion
 -----------------------------------
 Structure from the checkpoint file:  "JID_4199.chk"
 Charge = -1 Multiplicity = 2

                         Standard orientation:
 ---------------------------------------------------------------------
 Center     Atomic      Atomic             Coordinates (Angstroms)
 Number     Number       Type             X           Y           Z
 ---------------------------------------------------------------------
      1          6           0       -3.847006   -1.082176    0.282124
      2          6           0       -2.420037   -0.598470   -0.039730
      3          6           0       -2.544246    0.703364   -0.860979
      4          6           0       -1.248324    1.457660   -1.172614
      5          6           0       -0.513709    1.957697    0.087709
      6          7           0        0.374626    1.023741    0.761498
      7          6           0       -0.170639   -0.219361    1.307270
      8          6           0       -1.696093   -0.367926    1.312712
      9          6           0        1.699815    0.925261    0.195299
     10          6           0        2.069274   -0.007524   -1.008493
     11          6           0        3.452020   -0.216370   -0.351457
     12          6           0        2.830593    0.242417    1.005613
     13          7           0        4.063617   -1.522848   -0.525760
     14          6           0       -1.716206   -1.686119   -0.868461
     15          1           0       -4.371429   -0.363735    0.923958
     16          1           0       -3.828809   -2.047104    0.802883
     17          1           0       -4.436531   -1.205841   -0.634035
     18          1           0       -3.060267    0.465770   -1.801586
     19          1           0       -3.209422    1.388731   -0.314489
     20          1           0       -1.506662    2.325964   -1.794444
     21          1           0       -0.565626    0.844450   -1.773062
     22          1           0       -1.260687    2.328423    0.803329
     23          1           0        0.100728    2.826117   -0.176415
     24          1           0        0.166736   -0.325737    2.349480
     25          1           0        0.243204   -1.088832    0.775096
     26          1           0       -2.156881    0.485066    1.827416
     27          1           0       -1.901862   -1.240823    1.947340
     28          1           0        2.018471    1.943908   -0.054287
     29          1           0        2.029946    0.402227   -2.022259
     30          1           0        1.497575   -0.942879   -0.985829
     31          1           0        4.162639    0.535563   -0.713759
     32          1           0        2.459552   -0.628695    1.557505
     33          1           0        3.424115    0.863849    1.684591
     34          1           0        4.933793   -1.575181    0.002953
     35          1           0        3.450942   -2.237497   -0.133100
     36          1           0       -1.584827   -2.604942   -0.283887
     37          1           0       -2.315102   -1.936133   -1.752179
     38          1           0       -0.729940   -1.369639   -1.219354
 ---------------------------------------------------------------------

 SCF Done:  E(UB3LYP) =  -581.408717869     A.U. after   31 cycles

 The electronic state is 2-A.
 Alpha  occ. eigenvalues --  -14.19641 -14.19556 -10.09969 -10.09884 -10.09136
 Alpha  occ. eigenvalues --  -10.08994 -10.08488 -10.06808 -10.06442 -10.06305
 Alpha  occ. eigenvalues --  -10.06142 -10.06110 -10.06089 -10.05867  -0.82551
 Alpha  occ. eigenvalues --   -0.79226  -0.73378  -0.70926  -0.67346  -0.62477
 Alpha  occ. eigenvalues --   -0.59038  -0.57993  -0.56100  -0.53980  -0.52138
 Alpha  occ. eigenvalues --   -0.47341  -0.45070  -0.42815  -0.40166  -0.39901
 Alpha  occ. eigenvalues --   -0.38290  -0.37074  -0.36028  -0.35772  -0.33584
 Alpha  occ. eigenvalues --   -0.32340  -0.31563  -0.30897  -0.29377  -0.29023
 Alpha  occ. eigenvalues --   -0.28604  -0.28250  -0.27364  -0.27065  -0.26250
 Alpha  occ. eigenvalues --   -0.25092  -0.24129  -0.23335  -0.22928  -0.21895
 Alpha  occ. eigenvalues --   -0.21279  -0.21088  -0.20986  -0.14242  -0.09798
 Alpha  occ. eigenvalues --    0.04298
 Alpha virt. eigenvalues --    0.06006   0.06603   0.07569   0.08030   0.08210
 Alpha virt. eigenvalues --    0.09091   0.09603   0.09716   0.10425   0.10563
 Alpha virt. eigenvalues --    0.10818   0.11844   0.12435   0.12695   0.13138

  Beta  occ. eigenvalues --  -14.19642 -14.19521 -10.09961 -10.09876 -10.09124
  Beta  occ. eigenvalues --  -10.08980 -10.08489 -10.06791 -10.06425 -10.06292
  Beta  occ. eigenvalues --  -10.06132 -10.06094 -10.06065 -10.05841  -0.82539
  Beta  occ. eigenvalues --   -0.79176  -0.73356  -0.70890  -0.67319  -0.62449
  Beta  occ. eigenvalues --   -0.58991  -0.57956  -0.56062  -0.53935  -0.52093
  Beta  occ. eigenvalues --   -0.47291  -0.45031  -0.42769  -0.40127  -0.39855
  Beta  occ. eigenvalues --   -0.38266  -0.37045  -0.35994  -0.35750  -0.33546
  Beta  occ. eigenvalues --   -0.32314  -0.31534  -0.30855  -0.29351  -0.28998
  Beta  occ. eigenvalues --   -0.28578  -0.28225  -0.27337  -0.27043  -0.26223
  Beta  occ. eigenvalues --   -0.25065  -0.24096  -0.23307  -0.22900  -0.21869
  Beta  occ. eigenvalues --   -0.21252  -0.21054  -0.20958  -0.14205  -0.09785
  Beta virt. eigenvalues --    0.06300   0.06893   0.07302   0.07969   0.08485
  Beta virt. eigenvalues --    0.08766   0.09474   0.09925   0.09994   0.10793
  Beta virt. eigenvalues --    0.11011   0.11149   0.12076   0.12687   0.13072

 Mulliken charges and spin densities:
               1          2
     1  C    1.196826  -1.680296
     2  C   -1.752099   2.672460
     3  C    1.073900  -1.690954
     4  C   -0.916188   0.692770
     5  C    0.579892  -0.745611
     6  N    0.360128  -0.058012
     7  C   -0.784428   0.645810
     8  C    1.123214  -1.930800
     9  C   -1.177108   0.560983
    10  C   -0.011381  -0.202117
    11  C    1.124090  -1.539360
    12  C   -0.246205  -0.020656
    13  N   -0.423527   0.132711
    14  C    0.288624  -0.953719
    15  H   -0.165947   0.302171
    16  H   -0.103187   0.239566
    17  H   -0.023808   0.161804
    18  H   -0.091067   0.231843
    19  H    0.008581   0.144180
    20  H   -0.486859   0.670901
    21  H    0.160657  -0.003946
    22  H   -0.052220   0.197919
    23  H   -0.126363   0.274889
    24  H   -0.273105   0.459781
    25  H    0.322037  -0.207151
    26  H    0.114151   0.063208
    27  H   -0.118631   0.284085
    28  H    0.003880   0.132415
    29  H    0.032831   0.097906
    30  H   -0.003343   0.131233
    31  H   -0.003753   0.170416
    32  H   -0.049705   0.174275
    33  H   -0.257722   0.413856
    34  H   -0.141733   0.374613
    35  H   -0.049960   0.265838
    36  H   -0.227907   0.401650
    37  H   -0.150439   0.299169
    38  H    0.247873  -0.163830
 Sum of Mulliken charges =  -1.00000   1.00000

 Dipole moment (field-independent basis, Debye):
    X=             -1.2916    Y=              1.7794    Z=             -0.1685  Tot=              2.2053
 Quadrupole moment (field-independent basis, Debye-Ang):
   XX=           -173.8489   YY=           -137.1008   ZZ=           -130.1822
   XY=              7.1656   XZ=             -2.3192   YZ=              1.3119

 Summary of Natural Population Analysis:

                                       Natural Population
                Natural  -----------------------------------------------
    Atom  No    Charge         Core      Valence    Rydberg      Total
 -----------------------------------------------------------------------
      C    1   -0.27891      0.99963     2.27302    0.00626     3.27891
      C    2   -0.04766      0.99957     2.03579    0.01231     3.04766
      C    3   -0.18602      0.99958     2.17579    0.01064     3.18602
      C    4   -0.20233      0.99961     2.19432    0.00840     3.20233
      C    5   -0.07996      0.99960     2.06865    0.01171     3.07996
      N    6   -0.28390      0.99968     2.77097    0.01325     3.78390
      C    7   -0.08220      0.99959     2.07091    0.01170     3.08220
      C    8   -0.19351      0.99958     2.18406    0.00986     3.19351
      C    9    0.00254      0.99957     1.98465    0.01324     2.99746
      C   10   -0.20156      0.99960     2.19406    0.00790     3.20156
      C   11   -0.01392      0.99960     2.00038    0.01395     3.01392
      C   12   -0.19777      0.99961     2.18888    0.00928     3.19777
      N   13   -0.41798      0.99976     2.90772    0.01050     3.91798
      C   14   -0.28896      0.99962     2.28151    0.00783     3.28896
      H   15    0.09874      0.00000     0.40019    0.00107     0.40126
      H   16    0.09882      0.00000     0.40012    0.00106     0.40118
      H   17    0.09870      0.00000     0.40027    0.00103     0.40130
      H   18    0.09906      0.00000     0.39979    0.00115     0.40094
      H   19    0.09507      0.00000     0.40355    0.00138     0.40493
      H   20    0.09759      0.00000     0.40109    0.00133     0.40241
      H   21    0.09704      0.00000     0.40125    0.00171     0.40296
      H   22    0.09022      0.00000     0.40858    0.00120     0.40978
      H   23    0.09610      0.00000     0.40260    0.00130     0.40390
      H   24    0.09173      0.00000     0.40677    0.00150     0.40827
      H   25    0.08708      0.00000     0.41040    0.00252     0.41292
      H   26    0.09918      0.00000     0.39958    0.00125     0.40082
      H   27    0.10343      0.00000     0.39544    0.00113     0.39657
      H   28    0.09300      0.00000     0.40551    0.00149     0.40700
      H   29    0.09741      0.00000     0.40142    0.00117     0.40259
      H   30    0.09668      0.00000     0.40176    0.00156     0.40332
      H   31    0.08852      0.00000     0.41033    0.00115     0.41148
      H   32    0.09785      0.00000     0.40002    0.00212     0.40215
      H   33    0.09704      0.00000     0.40165    0.00131     0.40296
      H   34    0.17519      0.00000     0.32261    0.00220     0.32481
      H   35    0.17217      0.00000     0.32553    0.00230     0.32783
      H   36    0.10111      0.00000     0.39791    0.00098     0.39889
      H   37    0.10010      0.00000     0.39898    0.00091     0.39990
      H   38    0.10032      0.00000     0.39847    0.00121     0.39968
 =======================================================================
   * Total *    0.00000     13.99461    40.82454    0.18085    55.00000

 Normal termination of Gaussian 16 at Thu Dec 10 10:04:09 2020.
