 Gaussian 16, Revision A.03,

 -----------------------------------------------------------
 # opt freq B3LYP/6-31G(d) empiricaldispersion=gd3bj scf=xqc
 -----------------------------------------------------------

 ------------------------------
 CID_66097073_JID_3734_neutraal
 ------------------------------
 Symbolic Z-matrix:
 Charge =  0 Multiplicity = 1

 SCF Done:  E(RB3LYP) =  -598.968542476     A.U. after   14 cycles
 SCF Done:  E(RB3LYP) =  -598.972722123     A.U. after   11 cycles
 SCF Done:  E(RB3LYP) =  -598.972964546     A.U. after   11 cycles
 SCF Done:  E(RB3LYP) =  -598.973682751     A.U. after   11 cycles
 SCF Done:  E(RB3LYP) =  -598.973991226     A.U. after   11 cycles
 SCF Done:  E(RB3LYP) =  -598.973901761     A.U. after   11 cycles
 SCF Done:  E(RB3LYP) =  -598.974102473     A.U. after   11 cycles
 SCF Done:  E(RB3LYP) =  -598.974199219     A.U. after   10 cycles
 SCF Done:  E(RB3LYP) =  -598.974262730     A.U. after   12 cycles
 SCF Done:  E(RB3LYP) =  -598.974303179     A.U. after   10 cycles
 SCF Done:  E(RB3LYP) =  -598.974349403     A.U. after    9 cycles
 SCF Done:  E(RB3LYP) =  -598.974349982     A.U. after    8 cycles
 SCF Done:  E(RB3LYP) =  -598.974350380     A.U. after    9 cycles
 SCF Done:  E(RB3LYP) =  -598.974350515     A.U. after    7 cycles
 SCF Done:  E(RB3LYP) =  -598.974350603     A.U. after    7 cycles
 SCF Done:  E(RB3LYP) =  -598.974350606     A.U. after    7 cycles
 Optimization completed.
    -- Stationary point found.
 Normal termination of Gaussian 16 at Wed Dec  9 23:26:19 2020.

 --------------------------------------------------------------------
 #N Geom=AllCheck Guess=TCheck SCRF=Check GenChk RB3LYP/6-31G(d) Freq
 --------------------------------------------------------------------

 Structure from the checkpoint file:  "JID_3734.chk"
 ------------------------------
 CID_66097073_JID_3734_neutraal
 ------------------------------
 Charge =  0 Multiplicity = 1

 SCF Done:  E(RB3LYP) =  -598.974350606     A.U. after    1 cycles

  Exact polarizability: 122.144   0.738 122.317  -4.852  -0.372 103.454
 Approx polarizability: 164.129  -1.715 176.196  -5.965   0.807 151.564

                      1                      2                      3
                      A                      A                      A
 Frequencies --     21.4878                71.7290                91.1717
 Red. masses --      8.4720                 2.9110                 2.7618
 Frc consts  --      0.0023                 0.0088                 0.0135
 IR Inten    --      1.4862                 0.7467                 0.8001

                      4                      5                      6
                      A                      A                      A
 Frequencies --    115.9969               136.3002               152.8916
 Red. masses --      3.4290                 3.4939                 1.9847
 Frc consts  --      0.0272                 0.0382                 0.0273
 IR Inten    --      1.4987                 0.9312                 0.2006

                      7                      8                      9
                      A                      A                      A
 Frequencies --    196.1380               201.8949               241.2333
 Red. masses --      1.4759                 3.2767                 1.2040
 Frc consts  --      0.0335                 0.0787                 0.0413
 IR Inten    --      2.8767                 1.3887                36.5782

                     10                     11                     12
                      A                      A                      A
 Frequencies --    242.8141               266.7049               275.3786
 Red. masses --      1.4216                 2.0583                 3.1844
 Frc consts  --      0.0494                 0.0863                 0.1423
 IR Inten    --      0.3349                 3.5861                 0.9073

                     13                     14                     15
                      A                      A                      A
 Frequencies --    279.4742               293.8155               320.4555
 Red. masses --      1.2330                 1.3077                 2.0134
 Frc consts  --      0.0567                 0.0665                 0.1218
 IR Inten    --      0.7146                 2.2749                 5.4618

                     16                     17                     18
                      A                      A                      A
 Frequencies --    344.3048               353.7835               374.8968
 Red. masses --      1.8896                 2.7204                 2.5558
 Frc consts  --      0.1320                 0.2006                 0.2116
 IR Inten    --      3.6042                 3.0186                 3.2379

                     19                     20                     21
                      A                      A                      A
 Frequencies --    406.6393               424.5093               447.5710
 Red. masses --      2.8301                 2.4130                 2.0468
 Frc consts  --      0.2757                 0.2562                 0.2416
 IR Inten    --      1.6989                 3.7843                 0.9282

                     22                     23                     24
                      A                      A                      A
 Frequencies --    463.8399               513.0076               563.7208
 Red. masses --      2.4245                 2.4317                 2.5153
 Frc consts  --      0.3073                 0.3771                 0.4709
 IR Inten    --     10.0013                 4.5112                 1.1550

                     25                     26                     27
                      A                      A                      A
 Frequencies --    599.8363               644.8558               692.9686
 Red. masses --      2.9777                 1.9600                 1.6786
 Frc consts  --      0.6312                 0.4802                 0.4749
 IR Inten    --     43.7606                25.9754                76.2346

                     28                     29                     30
                      A                      A                      A
 Frequencies --    775.1422               795.6118               849.0108
 Red. masses --      2.2787                 1.9331                 2.0809
 Frc consts  --      0.8067                 0.7210                 0.8837
 IR Inten    --     22.4822                 1.3437                10.1297

                     31                     32                     33
                      A                      A                      A
 Frequencies --    866.6562               893.9523               923.7384
 Red. masses --      2.7974                 2.0120                 1.9751
 Frc consts  --      1.2380                 0.9474                 0.9929
 IR Inten    --     18.6231                95.0059                 1.4930

                     34                     35                     36
                      A                      A                      A
 Frequencies --    936.9575               947.1008               967.4088
 Red. masses --      1.6509                 1.2570                 1.7327
 Frc consts  --      0.8539                 0.6643                 0.9554
 IR Inten    --     11.8962                 1.8282                 4.9743

                     37                     38                     39
                      A                      A                      A
 Frequencies --    980.2514               988.2115              1011.5873
 Red. masses --      1.4463                 1.8190                 2.2557
 Frc consts  --      0.8188                 1.0466                 1.3600
 IR Inten    --      0.2767                 2.5983                 5.5606

                     40                     41                     42
                      A                      A                      A
 Frequencies --   1024.2697              1092.0545              1096.9723
 Red. masses --      1.6290                 1.9746                 2.8311
 Frc consts  --      1.0069                 1.3875                 2.0072
 IR Inten    --      2.4002                 1.9580                23.4198

                     43                     44                     45
                      A                      A                      A
 Frequencies --   1112.2831              1122.8526              1168.3775
 Red. masses --      1.8256                 1.7492                 1.7849
 Frc consts  --      1.3307                 1.2994                 1.4356
 IR Inten    --      7.6660                45.5411                42.7922

                     46                     47                     48
                      A                      A                      A
 Frequencies --   1183.2262              1199.2922              1213.7836
 Red. masses --      2.1457                 2.0979                 2.0748
 Frc consts  --      1.7699                 1.7778                 1.8010
 IR Inten    --     94.1065                40.1134                 9.2202

                     49                     50                     51
                      A                      A                      A
 Frequencies --   1233.2987              1253.1995              1285.1080
 Red. masses --      2.8676                 1.4472                 1.4712
 Frc consts  --      2.5699                 1.3392                 1.4315
 IR Inten    --     17.0789                51.5955                21.5156

                     52                     53                     54
                      A                      A                      A
 Frequencies --   1318.0456              1346.3510              1370.6267
 Red. masses --      1.3217                 1.2631                 1.3029
 Frc consts  --      1.3528                 1.3489                 1.4421
 IR Inten    --      0.8107                 0.7038                 0.0680

                     55                     56                     57
                      A                      A                      A
 Frequencies --   1384.8896              1389.9655              1405.9545
 Red. masses --      1.5130                 1.7573                 1.4064
 Frc consts  --      1.7097                 2.0003                 1.6379
 IR Inten    --     37.4847                52.3958                 2.7148

                     58                     59                     60
                      A                      A                      A
 Frequencies --   1429.1243              1432.6274              1438.5649
 Red. masses --      1.2358                 1.2560                 1.2413
 Frc consts  --      1.4871                 1.5189                 1.5135
 IR Inten    --      6.4528                 0.5558                 8.9069

                     61                     62                     63
                      A                      A                      A
 Frequencies --   1446.8098              1452.4172              1459.6342
 Red. masses --      1.2303                 1.2408                 1.2158
 Frc consts  --      1.5173                 1.5422                 1.5262
 IR Inten    --      3.9026                 1.8609                 4.5619

                     64                     65                     66
                      A                      A                      A
 Frequencies --   1514.3864              1520.0729              1522.8126
 Red. masses --      1.0557                 1.0728                 1.0465
 Frc consts  --      1.4265                 1.4604                 1.4299
 IR Inten    --      2.7424                 5.2835                 2.9120

                     67                     68                     69
                      A                      A                      A
 Frequencies --   1526.4234              1532.6503              1538.0093
 Red. masses --      1.0713                 1.0497                 1.0459
 Frc consts  --      1.4706                 1.4528                 1.4576
 IR Inten    --      4.2494                 3.4370                 3.9206

                     70                     71                     72
                      A                      A                      A
 Frequencies --   1542.6460              1544.2324              1548.9050
 Red. masses --      1.0605                 1.0547                 1.0543
 Frc consts  --      1.4869                 1.4818                 1.4903
 IR Inten    --      3.5116                 3.0570                11.4911

                     73                     74                     75
                      A                      A                      A
 Frequencies --   1553.7102              1698.5386              1827.5821
 Red. masses --      1.0587                 1.0861                 9.0741
 Frc consts  --      1.5058                 1.8462                17.8570
 IR Inten    --      4.2885                27.9884               233.3208

                     76                     77                     78
                      A                      A                      A
 Frequencies --   3040.7138              3047.1421              3050.5181
 Red. masses --      1.0694                 1.0374                 1.0392
 Frc consts  --      5.8254                 5.6751                 5.6975
 IR Inten    --     18.9961                20.1683                15.1706

                     79                     80                     81
                      A                      A                      A
 Frequencies --   3055.9909              3060.5649              3074.5154
 Red. masses --      1.0405                 1.0405                 1.0840
 Frc consts  --      5.7252                 5.7425                 6.0374
 IR Inten    --     37.4757                31.0508                17.4007

                     82                     83                     84
                      A                      A                      A
 Frequencies --   3079.1963              3094.1559              3096.4540
 Red. masses --      1.0845                 1.0745                 1.0857
 Frc consts  --      6.0581                 6.0610                 6.1333
 IR Inten    --      3.3435                12.4052                13.3047

                     85                     86                     87
                      A                      A                      A
 Frequencies --   3106.2935              3108.7412              3112.0451
 Red. masses --      1.1012                 1.1010                 1.0993
 Frc consts  --      6.2605                 6.2690                 6.2727
 IR Inten    --     80.5284                 3.8425                24.9377

                     88                     89                     90
                      A                      A                      A
 Frequencies --   3118.2062              3119.9442              3137.1538
 Red. masses --      1.0988                 1.0975                 1.1004
 Frc consts  --      6.2948                 6.2943                 6.3808
 IR Inten    --     43.5169                65.5939                24.3124

                     91                     92                     93
                      A                      A                      A
 Frequencies --   3150.3474              3160.6547              3177.6216
 Red. masses --      1.0972                 1.0982                 1.0955
 Frc consts  --      6.4156                 6.4637                 6.5172
 IR Inten    --     30.4795                16.5445                 5.9812

                     94                     95                     96
                      A                      A                      A
 Frequencies --   3478.9152              3565.3032              3676.4419
 Red. masses --      1.0505                 1.0910                 1.0638
 Frc consts  --      7.4906                 8.1711                 8.4712
 IR Inten    --      2.9813                 0.0358                43.7190

 - Thermochemistry -
 -------------------
 Temperature   298.150 Kelvin.  Pressure   1.00000 Atm.
 Atom     1 has atomic number  6 and mass  12.00000

 Molecular mass:   187.15723 amu.
 Principal axes and moments of inertia in atomic units:
                           1         2         3
     Eigenvalues --  1990.777652699.054423444.80134
           X            0.99911   0.04156  -0.00774
           Y           -0.04166   0.99905  -0.01259
           Z            0.00721   0.01290   0.99989
 This molecule is an asymmetric top.
 Rotational symmetry number  1.
 Warning -- assumption of classical behavior for rotation
           may cause significant error
 Rotational temperatures (Kelvin)      0.04351     0.03209     0.02514
 Rotational constants (GHZ):           0.90655     0.66866     0.52390
 Zero-point vibrational energy     812944.3 (Joules/Mol)
                                  194.29834 (Kcal/Mol)
 Warning -- explicit consideration of  25 degrees of freedom as
           vibrations may cause significant error
 Vibrational temperatures:     30.92   103.20   131.18   166.89   196.11
          (Kelvin)            219.98   282.20   290.48   347.08   349.36
                              383.73   396.21   402.10   422.73   461.06
                              495.38   509.02   539.39   585.06   610.77
                              643.95   667.36   738.10   811.07   863.03
                              927.80   997.03  1115.26  1144.71  1221.54
                             1246.92  1286.20  1329.05  1348.07  1362.67
                             1391.89  1410.36  1421.82  1455.45  1473.70
                             1571.22  1578.30  1600.33  1615.53  1681.03
                             1702.40  1725.51  1746.36  1774.44  1803.07
                             1848.98  1896.37  1937.10  1972.03  1992.55
                             1999.85  2022.85  2056.19  2061.23  2069.77
                             2081.64  2089.70  2100.09  2178.86  2187.05
                             2190.99  2196.18  2205.14  2212.85  2219.52
                             2221.81  2228.53  2235.44  2443.82  2629.48
                             4374.91  4384.16  4389.02  4396.89  4403.47
                             4423.54  4430.28  4451.80  4455.11  4469.26
                             4472.79  4477.54  4486.40  4488.90  4513.66
                             4532.65  4547.48  4571.89  5005.38  5129.68
                             5289.58

 Zero-point correction=                           0.309634 (Hartree/Particle)
 Thermal correction to Energy=                    0.325214
 Thermal correction to Enthalpy=                  0.326158
 Thermal correction to Gibbs Free Energy=         0.267831
 Sum of electronic and zero-point Energies=           -598.664716
 Sum of electronic and thermal Energies=              -598.649137
 Sum of electronic and thermal Enthalpies=            -598.648192
 Sum of electronic and thermal Free Energies=         -598.706519

                     E (Thermal)             CV                S
                      KCal/Mol        Cal/Mol-Kelvin    Cal/Mol-Kelvin
 Total                  204.075             59.429            122.759
 Electronic               0.000              0.000              0.000
 Translational            0.889              2.981             41.586
 Rotational               0.889              2.981             31.293
 Vibrational            202.297             53.468             49.880
 Vibration     1          0.593              1.985              6.492
 Vibration     2          0.598              1.967              4.105
 Vibration     3          0.602              1.955              3.635
 Vibration     4          0.608              1.936              3.166
 Vibration     5          0.614              1.917              2.855
 Vibration     6          0.619              1.899              2.636
 Vibration     7          0.636              1.845              2.169
 Vibration     8          0.639              1.837              2.116
 Vibration     9          0.658              1.777              1.794
 Vibration    10          0.659              1.775              1.782
 Vibration    11          0.672              1.734              1.617
 Vibration    12          0.677              1.719              1.562
 Vibration    13          0.680              1.712              1.537
 Vibration    14          0.689              1.685              1.452
 Vibration    15          0.706              1.634              1.308
 Vibration    16          0.723              1.587              1.192
 Vibration    17          0.730              1.567              1.149
 Vibration    18          0.746              1.524              1.060
 Vibration    19          0.771              1.456              0.939
 Vibration    20          0.787              1.417              0.877
 Vibration    21          0.807              1.366              0.803
 Vibration    22          0.821              1.330              0.755
 Vibration    23          0.868              1.221              0.626
 Vibration    24          0.919              1.110              0.516
 Vibration    25          0.958              1.032              0.450

 Optimization completed.
    -- Stationary point found.
 Normal termination of Gaussian 16 at Wed Dec  9 23:36:47 2020.

 ----------------------------------------------------------------------
 # B3LYP/6-311++G(d,p) empiricaldispersion=gd3bj scf=xqc pop=npa geom=c
 heck
 ----------------------------------------------------------------------

 --------------------------------------
 CID_66097073_JID_3734_Energie_neutraal
 --------------------------------------
 Structure from the checkpoint file:  "JID_3734.chk"
 Charge =  0 Multiplicity = 1

 SCF Done:  E(RB3LYP) =  -599.163602830     A.U. after   14 cycles
 Normal termination of Gaussian 16 at Wed Dec  9 23:40:57 2020.

 ----------------------------------------------------------------------
 # B3LYP/6-311++G(d,p) empiricaldispersion=gd3bj scf=xqc pop=npa geom=c
 heck
 ----------------------------------------------------------------------

 ------------------------------------
 CID_66097073_JID_3734_Energie_kation
 ------------------------------------
 Structure from the checkpoint file:  "JID_3734.chk"
 Charge =  1 Multiplicity = 2

 SCF Done:  E(UB3LYP) =  -598.835013581     A.U. after   27 cycles
 Normal termination of Gaussian 16 at Wed Dec  9 23:51:24 2020.
 Gaussian 16:  ES64L-G16RevA.03 25-Dec-2016

 ----------------------------------------------------------------------
 # B3LYP/6-311++G(d,p) empiricaldispersion=gd3bj scf=xqc pop=npa geom=c
 heck
 ----------------------------------------------------------------------

 -----------------------------------
 CID_66097073_JID_3734_Energie_anion
 -----------------------------------
 Structure from the checkpoint file:  "JID_3734.chk"
 Charge = -1 Multiplicity = 2

                         Standard orientation:
 ---------------------------------------------------------------------
 Center     Atomic      Atomic             Coordinates (Angstroms)
 Number     Number       Type             X           Y           Z
 ---------------------------------------------------------------------
      1          6           0       -0.454681   -2.154859    1.353878
      2          6           0       -0.065489   -0.670002    1.334109
      3          6           0        0.279652   -0.007952   -0.025703
      4          6           0       -0.936183   -0.134519   -1.005462
      5          6           0       -2.255134    0.300905   -0.421172
      6          8           0       -2.631894    1.443916   -0.255212
      7          8           0       -3.037157   -0.754728   -0.068648
      8          6           0        0.525086    1.537148    0.217180
      9          6           0        1.237573    1.934764    1.523658
     10          6           0        1.203519    2.255349   -0.961202
     11          6           0        1.492016   -0.688835   -0.753797
     12          6           0        2.779353   -0.755002    0.081303
     13          7           0        1.132760   -2.007446   -1.314763
     14          1           0       -1.192404   -2.407810    0.590134
     15          1           0       -0.889213   -2.404888    2.328351
     16          1           0        0.415116   -2.808469    1.225315
     17          1           0       -0.889735   -0.093078    1.774131
     18          1           0        0.777094   -0.532895    2.018207
     19          1           0       -0.750614    0.499421   -1.877735
     20          1           0       -1.004066   -1.163130   -1.354299
     21          1           0       -3.849893   -0.366368    0.307453
     22          1           0       -0.479497    1.964516    0.296140
     23          1           0        2.256468    1.543254    1.599293
     24          1           0        1.308101    3.027705    1.568720
     25          1           0        0.688105    1.613154    2.412040
     26          1           0        0.738233    2.020603   -1.924246
     27          1           0        1.126584    3.339249   -0.822595
     28          1           0        2.270322    2.013269   -1.034755
     29          1           0        1.700191   -0.068491   -1.631414
     30          1           0        2.635824   -1.345763    0.993310
     31          1           0        3.569915   -1.238564   -0.504741
     32          1           0        3.145062    0.231988    0.374523
     33          1           0        1.832641   -2.265498   -2.008256
     34          1           0        1.180590   -2.721569   -0.592108
 ---------------------------------------------------------------------

 SCF Done:  E(UB3LYP) =  -599.150440570     A.U. after   31 cycles

 The electronic state is 2-A.
 Alpha  occ. eigenvalues --  -19.07011 -19.01622 -14.18569 -10.20619 -10.09681
 Alpha  occ. eigenvalues --  -10.09200 -10.07266 -10.07120 -10.06443 -10.05979
 Alpha  occ. eigenvalues --  -10.05880 -10.05461 -10.05408  -1.01048  -0.91988
 Alpha  occ. eigenvalues --   -0.78889  -0.72672  -0.66912  -0.64529  -0.62831
 Alpha  occ. eigenvalues --   -0.58694  -0.57347  -0.52025  -0.50043  -0.48667
 Alpha  occ. eigenvalues --   -0.43357  -0.39796  -0.39369  -0.38759  -0.37888
 Alpha  occ. eigenvalues --   -0.35476  -0.34283  -0.33095  -0.32335  -0.31988
 Alpha  occ. eigenvalues --   -0.31201  -0.30657  -0.30066  -0.29790  -0.28605
 Alpha  occ. eigenvalues --   -0.27983  -0.26416  -0.26072  -0.25910  -0.24510
 Alpha  occ. eigenvalues --   -0.23616  -0.22466  -0.21618  -0.20881  -0.20154
 Alpha  occ. eigenvalues --   -0.17625  -0.14141   0.04377
 Alpha virt. eigenvalues --    0.06236   0.07315   0.07542   0.08873   0.09085
 Alpha virt. eigenvalues --    0.09447   0.09583   0.10267   0.10760   0.11894
 Alpha virt. eigenvalues --    0.12360   0.12507   0.13052   0.13107   0.13823

  Beta  occ. eigenvalues --  -19.06973 -19.01610 -14.18533 -10.20612 -10.09669
  Beta  occ. eigenvalues --  -10.09202 -10.07259 -10.07107 -10.06428 -10.05959
  Beta  occ. eigenvalues --  -10.05865 -10.05422 -10.05379  -1.00998  -0.91946
  Beta  occ. eigenvalues --   -0.78833  -0.72641  -0.66886  -0.64491  -0.62769
  Beta  occ. eigenvalues --   -0.58657  -0.57288  -0.51955  -0.49965  -0.48615
  Beta  occ. eigenvalues --   -0.43322  -0.39765  -0.39321  -0.38720  -0.37860
  Beta  occ. eigenvalues --   -0.35448  -0.34245  -0.33065  -0.32299  -0.31946
  Beta  occ. eigenvalues --   -0.31174  -0.30619  -0.30031  -0.29757  -0.28577
  Beta  occ. eigenvalues --   -0.27959  -0.26377  -0.26038  -0.25861  -0.24479
  Beta  occ. eigenvalues --   -0.23588  -0.22431  -0.21596  -0.20851  -0.20128
  Beta  occ. eigenvalues --   -0.17588  -0.14098
  Beta virt. eigenvalues --    0.06624   0.07488   0.07877   0.08115   0.09234
  Beta virt. eigenvalues --    0.09444   0.09855   0.10015   0.10627   0.10978
  Beta virt. eigenvalues --    0.12249   0.12735   0.12848   0.13268   0.13448

 Mulliken charges and spin densities:
               1          2
     1  C    0.948453  -1.629006
     2  C   -1.901202   1.223360
     3  C    3.314002  -1.701558
     4  C    0.313301  -0.778278
     5  C   -0.287140  -0.080964
     6  O   -0.248412   0.010623
     7  O   -0.144223   0.052288
     8  C   -0.789573   0.613237
     9  C   -0.110968  -0.488505
    10  C    0.373469  -1.026302
    11  C   -2.408026   1.915183
    12  C    1.429664  -2.054545
    13  N   -0.443856   0.141956
    14  H    0.115494   0.068940
    15  H   -0.334214   0.476631
    16  H   -0.196312   0.326706
    17  H    0.013151   0.197209
    18  H    0.062504   0.075774
    19  H    0.038031   0.103887
    20  H    0.307524  -0.014461
    21  H   -0.249140   0.532888
    22  H    0.257907  -0.019891
    23  H    0.034902   0.101618
    24  H   -0.073106   0.215803
    25  H   -0.084051   0.234735
    26  H   -0.132878   0.256659
    27  H    0.160805  -0.026599
    28  H   -0.121133   0.283638
    29  H   -0.174661   0.404086
    30  H   -0.016198   0.172920
    31  H   -0.695288   0.857758
    32  H    0.049258   0.076928
    33  H   -0.275966   0.534301
    34  H    0.267878  -0.057019
 Sum of Mulliken charges =  -1.00000   1.00000

 Dipole moment (field-independent basis, Debye):
    X=             -1.3552    Y=              2.6341    Z=              0.7612  Tot=              3.0585
 Quadrupole moment (field-independent basis, Debye-Ang):
   XX=           -148.8517   YY=           -127.6946   ZZ=           -122.2261
   XY=              6.0289   XZ=              9.4966   YZ=             -0.7576

 Summary of Natural Population Analysis:

                                       Natural Population
                Natural  -----------------------------------------------
    Atom  No    Charge         Core      Valence    Rydberg      Total
 -----------------------------------------------------------------------
      C    1   -0.28504      0.99965     2.28004    0.00534     3.28504
      C    2   -0.19947      0.99959     2.18941    0.01047     3.19947
      C    3   -0.01705      0.99953     2.00207    0.01545     3.01705
      C    4   -0.25014      0.99952     2.23976    0.01086     3.25014
      C    5    0.41169      0.99970     1.56250    0.02611     2.58831
      O    6   -0.31358      0.99987     3.30795    0.00576     4.31358
      O    7   -0.34421      0.99988     3.33760    0.00673     4.34421
      C    8   -0.12081      0.99956     2.10990    0.01135     3.12081
      C    9   -0.28306      0.99964     2.27876    0.00466     3.28306
      C   10   -0.28663      0.99964     2.28099    0.00600     3.28663
      C   11   -0.01890      0.99955     2.00384    0.01551     3.01890
      C   12   -0.29146      0.99963     2.28555    0.00627     3.29146
      N   13   -0.42514      0.99977     2.91420    0.01117     3.92514
      H   14    0.10532      0.00000     0.39318    0.00150     0.39468
      H   15    0.09986      0.00000     0.39922    0.00092     0.40014
      H   16    0.08984      0.00000     0.40888    0.00128     0.41016
      H   17    0.09782      0.00000     0.40054    0.00164     0.40218
      H   18    0.10259      0.00000     0.39611    0.00130     0.39741
      H   19    0.11344      0.00000     0.38553    0.00103     0.38656
      H   20    0.12952      0.00000     0.36859    0.00188     0.37048
      H   21    0.24020      0.00000     0.25265    0.00715     0.25980
      H   22    0.10852      0.00000     0.38932    0.00216     0.39148
      H   23    0.09608      0.00000     0.40295    0.00097     0.40392
      H   24    0.09744      0.00000     0.40176    0.00080     0.40256
      H   25    0.10079      0.00000     0.39826    0.00095     0.39921
      H   26    0.09943      0.00000     0.39957    0.00100     0.40057
      H   27    0.09905      0.00000     0.40026    0.00069     0.40095
      H   28    0.09750      0.00000     0.40158    0.00091     0.40250
      H   29    0.09519      0.00000     0.40245    0.00236     0.40481
      H   30    0.09751      0.00000     0.40113    0.00136     0.40249
      H   31    0.10299      0.00000     0.39516    0.00186     0.39701
      H   32    0.09859      0.00000     0.40015    0.00125     0.40141
      H   33    0.17863      0.00000     0.31872    0.00264     0.32137
      H   34    0.17349      0.00000     0.32427    0.00225     0.32651
 =======================================================================
   * Total *   -0.00000     12.99552    38.83290    0.17159    52.00000

 Normal termination of Gaussian 16 at Thu Dec 10 00:03:32 2020.
