 Gaussian 16, Revision A.03,

 -----------------------------------------------------------
 # opt freq B3LYP/6-31G(d) empiricaldispersion=gd3bj scf=xqc
 -----------------------------------------------------------

 ------------------------------
 CID_139333447_JID_508_neutraal
 ------------------------------
 Symbolic Z-matrix:
 Charge =  0 Multiplicity = 1

 SCF Done:  E(RB3LYP) =  -425.231508187     A.U. after   13 cycles
 SCF Done:  E(RB3LYP) =  -425.234130924     A.U. after   11 cycles
 SCF Done:  E(RB3LYP) =  -425.234540221     A.U. after   10 cycles
 SCF Done:  E(RB3LYP) =  -425.234567409     A.U. after    9 cycles
 SCF Done:  E(RB3LYP) =  -425.234571940     A.U. after    7 cycles
 SCF Done:  E(RB3LYP) =  -425.234572362     A.U. after    7 cycles
 SCF Done:  E(RB3LYP) =  -425.234572449     A.U. after    6 cycles
 Optimization completed.
    -- Stationary point found.

 1\1\GINC-NODE376\FOpt\RB3LYP\6-31G(d)\C8H18N2\VSC10255\08-Dec-2020\0\\
 # opt freq B3LYP/6-31G(d) empiricaldispersion=gd3bj scf=xqc\\CID_13933
 3447_JID_508_neutraal\\0,1\C,0.9286134148,0.0285241865,0.0701631883\C,
 0.333349756,-0.2676194898,1.4532379347\C,-0.7555752866,0.7594282194,1.
 8028222997\N,-1.927726386,0.5935251165,0.9424441251\C,-2.5385396415,-0
 .7177855935,1.1536027955\C,-1.5466224306,-1.8307981643,0.8191733587\C,
 -0.2292933708,-1.7090046382,1.6090611597\C,0.770445665,-2.7729963977,1
 .125579136\N,-0.5502208354,-1.8879850797,3.0416632434\C,-2.8883858791,

 Normal termination of Gaussian 16 at Tue Dec  8 12:15:02 2020.

 --------------------------------------------------------------------
 #N Geom=AllCheck Guess=TCheck SCRF=Check GenChk RB3LYP/6-31G(d) Freq
 --------------------------------------------------------------------

 Structure from the checkpoint file:  "JID_508.chk"
 ------------------------------
 CID_139333447_JID_508_neutraal
 ------------------------------
 Charge =  0 Multiplicity = 1

 SCF Done:  E(RB3LYP) =  -425.234572449     A.U. after    1 cycles

  Exact polarizability: 106.353  -0.605  95.571   0.167   1.731  87.139
 Approx polarizability: 131.170  -1.541 135.230   1.876   1.238 132.161

                      1                      2                      3
                      A                      A                      A
 Frequencies --    104.2651               154.6591               191.0664
 Red. masses --      2.9312                 2.3822                 1.1995
 Frc consts  --      0.0188                 0.0336                 0.0258
 IR Inten    --      1.3829                 0.2806                 0.3601

                      4                      5                      6
                      A                      A                      A
 Frequencies --    227.5376               253.3601               258.1104
 Red. masses --      1.9293                 1.5440                 1.2710
 Frc consts  --      0.0589                 0.0584                 0.0499
 IR Inten    --      0.0685                 0.0301                 0.4521

                      7                      8                      9
                      A                      A                      A
 Frequencies --    273.5079               289.0125               309.7111
 Red. masses --      1.1398                 1.7621                 1.9070
 Frc consts  --      0.0502                 0.0867                 0.1078
 IR Inten    --     30.5359                 3.8438                 0.9283

                     10                     11                     12
                      A                      A                      A
 Frequencies --    339.4819               357.9074               390.0336
 Red. masses --      2.7121                 1.9221                 2.0991
 Frc consts  --      0.1842                 0.1451                 0.1881
 IR Inten    --      1.9702                 1.0612                 0.3490

                     13                     14                     15
                      A                      A                      A
 Frequencies --    418.0243               460.3748               467.8810
 Red. masses --      1.9301                 2.4401                 2.9535
 Frc consts  --      0.1987                 0.3047                 0.3809
 IR Inten    --      7.3622                 4.3567                 6.9978

                     16                     17                     18
                      A                      A                      A
 Frequencies --    486.7030               560.7325               662.2241
 Red. masses --      2.4229                 3.0358                 2.6324
 Frc consts  --      0.3382                 0.5624                 0.6802
 IR Inten    --      0.9521                 1.8009                 0.1746

                     19                     20                     21
                      A                      A                      A
 Frequencies --    707.6381               804.4528               859.9364
 Red. masses --      3.1087                 2.3219                 2.1736
 Frc consts  --      0.9172                 0.8853                 0.9470
 IR Inten    --      0.9926                15.9205                 4.4047

                     22                     23                     24
                      A                      A                      A
 Frequencies --    898.7278               905.7514               947.0110
 Red. masses --      1.8875                 1.8356                 1.5835
 Frc consts  --      0.8982                 0.8872                 0.8367
 IR Inten    --     54.9576                33.0791                24.8158

                     25                     26                     27
                      A                      A                      A
 Frequencies --    972.7885               980.5331              1010.4378
 Red. masses --      1.5947                 1.5914                 1.6376
 Frc consts  --      0.8891                 0.9015                 0.9851
 IR Inten    --      5.3792                 0.6064                 1.1966

                     28                     29                     30
                      A                      A                      A
 Frequencies --   1039.7255              1059.0483              1075.3136
 Red. masses --      1.8184                 1.7921                 1.9991
 Frc consts  --      1.1582                 1.1843                 1.3619
 IR Inten    --      2.1559                11.6455                11.5945

                     31                     32                     33
                      A                      A                      A
 Frequencies --   1102.3493              1119.5138              1142.8380
 Red. masses --      1.7353                 1.5053                 1.6840
 Frc consts  --      1.2424                 1.1116                 1.2958
 IR Inten    --      1.4143                16.9786                26.8997

                     34                     35                     36
                      A                      A                      A
 Frequencies --   1158.4233              1167.4846              1202.6588
 Red. masses --      1.7118                 1.5554                 2.5941
 Frc consts  --      1.3534                 1.2491                 2.2106
 IR Inten    --     20.9606                18.7671                 1.3614

                     37                     38                     39
                      A                      A                      A
 Frequencies --   1217.5184              1233.3188              1278.7056
 Red. masses --      2.0513                 1.6975                 1.5258
 Frc consts  --      1.7915                 1.5213                 1.4699
 IR Inten    --     11.3045                 4.6322                 7.6912

                     40                     41                     42
                      A                      A                      A
 Frequencies --   1313.2567              1346.6677              1358.6421
 Red. masses --      1.8254                 1.4320                 1.5432
 Frc consts  --      1.8548                 1.5301                 1.6784
 IR Inten    --     16.6942                10.4825                 5.5065

                     43                     44                     45
                      A                      A                      A
 Frequencies --   1367.9975              1384.1323              1404.2884
 Red. masses --      1.6695                 1.5006                 1.3817
 Frc consts  --      1.8409                 1.6939                 1.6054
 IR Inten    --      1.0088                 4.1192                 3.5739

                     46                     47                     48
                      A                      A                      A
 Frequencies --   1411.7866              1432.7506              1434.4675
 Red. masses --      1.5906                 1.3909                 1.2705
 Frc consts  --      1.8679                 1.6822                 1.5403
 IR Inten    --      3.6550                10.8820                 6.3543

                     49                     50                     51
                      A                      A                      A
 Frequencies --   1444.3973              1483.9808              1507.9986
 Red. masses --      1.2786                 1.1941                 1.0905
 Frc consts  --      1.5716                 1.5494                 1.4611
 IR Inten    --     20.1327                 0.7610                 2.4734

                     52                     53                     54
                      A                      A                      A
 Frequencies --   1514.3920              1515.7654              1519.0247
 Red. masses --      1.0771                 1.0496                 1.0610
 Frc consts  --      1.4554                 1.4209                 1.4424
 IR Inten    --      3.4999                16.1985                 1.5513

                     55                     56                     57
                      A                      A                      A
 Frequencies --   1524.2306              1536.3484              1537.4632
 Red. masses --      1.0517                 1.0638                 1.0512
 Frc consts  --      1.4396                 1.4794                 1.4640
 IR Inten    --      6.8154                 4.4872                 3.0198

                     58                     59                     60
                      A                      A                      A
 Frequencies --   1542.0365              1546.4098              1689.1111
 Red. masses --      1.0882                 1.0681                 1.0934
 Frc consts  --      1.5246                 1.5049                 1.8380
 IR Inten    --     10.8676                 1.8671                32.5575

                     61                     62                     63
                      A                      A                      A
 Frequencies --   2931.0453              2957.5813              2976.1824
 Red. masses --      1.0619                 1.0713                 1.0695
 Frc consts  --      5.3748                 5.5211                 5.5815
 IR Inten    --     78.9666                58.1673                54.7799

                     64                     65                     66
                      A                      A                      A
 Frequencies --   3005.3016              3032.9712              3038.9884
 Red. masses --      1.0833                 1.0439                 1.0595
 Frc consts  --      5.7646                 5.6575                 5.7653
 IR Inten    --     61.4973                13.5561                54.1893

                     67                     68                     69
                      A                      A                      A
 Frequencies --   3057.9110              3062.7060              3064.7376
 Red. masses --      1.0533                 1.0816                 1.0824
 Frc consts  --      5.8030                 5.9775                 5.9902
 IR Inten    --      8.3962                74.5864                 5.0982

                     70                     71                     72
                      A                      A                      A
 Frequencies --   3071.6681              3092.0891              3095.9398
 Red. masses --      1.0711                 1.0970                 1.1019
 Frc consts  --      5.9544                 6.1798                 6.2227
 IR Inten    --     64.6837                20.6622                42.0246

                     73                     74                     75
                      A                      A                      A
 Frequencies --   3113.5835              3114.7596              3122.8708
 Red. masses --      1.1010                 1.1036                 1.0974
 Frc consts  --      6.2886                 6.3081                 6.3054
 IR Inten    --     34.1050                44.3101                40.3998

                     76                     77                     78
                      A                      A                      A
 Frequencies --   3144.9377              3443.1392              3528.6999
 Red. masses --      1.1020                 1.0493                 1.0921
 Frc consts  --      6.4220                 7.3289                 8.0117
 IR Inten    --     25.7044                 4.2767                 1.4603

 - Thermochemistry -
 -------------------
 Temperature   298.150 Kelvin.  Pressure   1.00000 Atm.
 Atom     1 has atomic number  6 and mass  12.00000

 Molecular mass:   142.14700 amu.
 Principal axes and moments of inertia in atomic units:
                           1         2         3
     Eigenvalues --   885.782751701.904031989.71404
           X            0.99992   0.00792  -0.01019
           Y           -0.00787   0.99996   0.00524
           Z            0.01023  -0.00516   0.99993
 This molecule is an asymmetric top.
 Rotational symmetry number  1.
 Warning -- assumption of classical behavior for rotation
           may cause significant error
 Rotational temperatures (Kelvin)      0.09778     0.05089     0.04353
 Rotational constants (GHZ):           2.03745     1.06042     0.90704
 Zero-point vibrational energy     686411.4 (Joules/Mol)
                                  164.05627 (Kcal/Mol)
 Warning -- explicit consideration of  17 degrees of freedom as
           vibrations may cause significant error
 Vibrational temperatures:    150.01   222.52   274.90   327.38   364.53
          (Kelvin)            371.36   393.52   415.82   445.61   488.44
                              514.95   561.17   601.44   662.38   673.18
                              700.26   806.77   952.79  1018.13  1157.43
                             1237.26  1293.07  1303.17  1362.54  1399.63
                             1410.77  1453.79  1495.93  1523.73  1547.14
                             1586.03  1610.73  1644.29  1666.71  1679.75
                             1730.36  1751.74  1774.47  1839.77  1889.48
                             1937.55  1954.78  1968.24  1991.46  2020.46
                             2031.25  2061.41  2063.88  2078.17  2135.12
                             2169.67  2178.87  2180.85  2185.54  2193.03
                             2210.46  2212.07  2218.65  2224.94  2430.25
                             4217.12  4255.30  4282.06  4323.96  4363.77
                             4372.43  4399.65  4406.55  4409.47  4419.45
                             4448.83  4454.37  4479.75  4481.44  4493.11
                             4524.86  4953.91  5077.01

 Zero-point correction=                           0.261440 (Hartree/Particle)
 Thermal correction to Energy=                    0.272267
 Thermal correction to Enthalpy=                  0.273212
 Thermal correction to Gibbs Free Energy=         0.226760
 Sum of electronic and zero-point Energies=           -424.973132
 Sum of electronic and thermal Energies=              -424.962305
 Sum of electronic and thermal Enthalpies=            -424.961361
 Sum of electronic and thermal Free Energies=         -425.007812

                     E (Thermal)             CV                S
                      KCal/Mol        Cal/Mol-Kelvin    Cal/Mol-Kelvin
 Total                  170.850             43.472             97.766
 Electronic               0.000              0.000              0.000
 Translational            0.889              2.981             40.766
 Rotational               0.889              2.981             29.485
 Vibrational            169.073             37.511             27.514
 Vibration     1          0.605              1.946              3.373
 Vibration     2          0.620              1.897              2.614
 Vibration     3          0.634              1.852              2.217
 Vibration     4          0.651              1.799              1.898
 Vibration     5          0.665              1.757              1.707
 Vibration     6          0.667              1.749              1.675
 Vibration     7          0.676              1.722              1.574
 Vibration     8          0.686              1.694              1.480
 Vibration     9          0.699              1.655              1.364
 Vibration    10          0.719              1.597              1.215
 Vibration    11          0.733              1.559              1.131
 Vibration    12          0.758              1.491              1.000
 Vibration    13          0.781              1.431              0.899
 Vibration    14          0.818              1.338              0.765
 Vibration    15          0.825              1.321              0.744
 Vibration    16          0.843              1.280              0.692
 Vibration    17          0.916              1.116              0.522

 Optimization completed.
    -- Stationary point found.

 1\1\GINC-NODE376\Freq\RB3LYP\6-31G(d)\C8H18N2\VSC10255\08-Dec-2020\0\\
 #N Geom=AllCheck Guess=TCheck SCRF=Check GenChk RB3LYP/6-31G(d) Freq\\
 CID_139333447_JID_508_neutraal\\0,1\C,0.9286134148,0.0285241865,0.0701
 631883\C,0.333349756,-0.2676194898,1.4532379347\C,-0.7555752866,0.7594
 282194,1.8028222997\N,-1.927726386,0.5935251165,0.9424441251\C,-2.5385
 396415,-0.7177855935,1.1536027955\C,-1.5466224306,-1.8307981643,0.8191
 733587\C,-0.2292933708,-1.7090046382,1.6090611597\C,0.770445665,-2.772
 9963977,1.125579136\N,-0.5502208354,-1.8879850797,3.0416632434\C,-2.88

 Normal termination of Gaussian 16 at Tue Dec  8 12:22:51 2020.

 ----------------------------------------------------------------------
 # B3LYP/6-311++G(d,p) empiricaldispersion=gd3bj scf=xqc pop=npa geom=c
 heck
 ----------------------------------------------------------------------

 --------------------------------------
 CID_139333447_JID_508_Energie_neutraal
 --------------------------------------
 Structure from the checkpoint file:  "JID_508.chk"
 Charge =  0 Multiplicity = 1

 SCF Done:  E(RB3LYP) =  -425.360179270     A.U. after   13 cycles
 Normal termination of Gaussian 16 at Tue Dec  8 12:26:38 2020.

 ----------------------------------------------------------------------
 # B3LYP/6-311++G(d,p) empiricaldispersion=gd3bj scf=xqc pop=npa geom=c
 heck
 ----------------------------------------------------------------------

 ------------------------------------
 CID_139333447_JID_508_Energie_kation
 ------------------------------------
 Structure from the checkpoint file:  "JID_508.chk"
 Charge =  1 Multiplicity = 2

 SCF Done:  E(UB3LYP) =  -425.078470802     A.U. after   19 cycles
 Normal termination of Gaussian 16 at Tue Dec  8 12:39:32 2020.
 Gaussian 16:  ES64L-G16RevA.03 25-Dec-2016

 -----------------------------------
 CID_139333447_JID_508_Energie_anion
 -----------------------------------
 Structure from the checkpoint file:  "JID_508.chk"
 Charge = -1 Multiplicity = 2

                         Standard orientation:
 ---------------------------------------------------------------------
 Center     Atomic      Atomic             Coordinates (Angstroms)
 Number     Number       Type             X           Y           Z
 ---------------------------------------------------------------------
      1          6           0        0.576664    2.113547   -0.533589
      2          6           0        0.509716    0.989966    0.509493
      3          6           0       -0.950506    0.683903    0.879455
      4          7           0       -1.659646    0.075074   -0.246671
      5          6           0       -1.061620   -1.212753   -0.594641
      6          6           0        0.400474   -1.032303   -0.999929
      7          6           0        1.232898   -0.319009    0.082843
      8          6           0        2.652363   -0.047645   -0.443267
      9          7           0        1.261955   -1.196467    1.273054
     10          6           0       -3.078423   -0.058547    0.031382
     11          1           0        0.053989    3.000060   -0.156510
     12          1           0        0.084065    1.818589   -1.464015
     13          1           0        1.605594    2.409484   -0.757832
     14          1           0        1.009427    1.348785    1.422799
     15          1           0       -0.979586    0.032694    1.770365
     16          1           0       -1.461074    1.620851    1.134314
     17          1           0       -1.625973   -1.636939   -1.434193
     18          1           0       -1.128403   -1.927698    0.246240
     19          1           0        0.447469   -0.452103   -1.927992
     20          1           0        0.847708   -2.012860   -1.214585
     21          1           0        3.241295    0.511016    0.295765
     22          1           0        3.167007   -0.997584   -0.634745
     23          1           0        2.654713    0.522808   -1.377735
     24          1           0        1.735862   -2.067409    1.032395
     25          1           0        1.833101   -0.757825    1.995988
     26          1           0       -3.292641   -0.714901    0.898551
     27          1           0       -3.509151    0.927206    0.239159
     28          1           0       -3.588965   -0.477379   -0.843134
 ---------------------------------------------------------------------

 SCF Done:  E(UB3LYP) =  -425.342353680     A.U. after   26 cycles

 The electronic state is 2-A.
 Alpha  occ. eigenvalues --  -14.19322 -14.17464 -10.09321 -10.08211 -10.07666
 Alpha  occ. eigenvalues --  -10.07381 -10.06081 -10.05207 -10.04458 -10.04306
 Alpha  occ. eigenvalues --   -0.82143  -0.77842  -0.67679  -0.65115  -0.60742
 Alpha  occ. eigenvalues --   -0.57811  -0.54786  -0.50655  -0.48127  -0.41551
 Alpha  occ. eigenvalues --   -0.37919  -0.37266  -0.35407  -0.35148  -0.34079
 Alpha  occ. eigenvalues --   -0.31731  -0.31054  -0.29516  -0.28907  -0.28226
 Alpha  occ. eigenvalues --   -0.27519  -0.26209  -0.25167  -0.23850  -0.23305
 Alpha  occ. eigenvalues --   -0.22730  -0.20275  -0.19298  -0.13618  -0.10587
 Alpha  occ. eigenvalues --    0.04930
 Alpha virt. eigenvalues --    0.07024   0.07609   0.08370   0.09468   0.09633
 Alpha virt. eigenvalues --    0.10542   0.10713   0.10884   0.12205   0.12346
 Alpha virt. eigenvalues --    0.12981   0.13742   0.14032   0.14130   0.15252

  Beta  occ. eigenvalues --  -14.19310 -14.17423 -10.09320 -10.08194 -10.07651
  Beta  occ. eigenvalues --  -10.07368 -10.06063 -10.05181 -10.04437 -10.04265
  Beta  occ. eigenvalues --   -0.82119  -0.77784  -0.67629  -0.65076  -0.60690
  Beta  occ. eigenvalues --   -0.57765  -0.54721  -0.50595  -0.48069  -0.41489
  Beta  occ. eigenvalues --   -0.37868  -0.37223  -0.35370  -0.35121  -0.34019
  Beta  occ. eigenvalues --   -0.31694  -0.31014  -0.29482  -0.28873  -0.28193
  Beta  occ. eigenvalues --   -0.27483  -0.26173  -0.25137  -0.23817  -0.23253
  Beta  occ. eigenvalues --   -0.22692  -0.20217  -0.19268  -0.13569  -0.10528
  Beta virt. eigenvalues --    0.07109   0.07963   0.08418   0.09032   0.09988
  Beta virt. eigenvalues --    0.10524   0.10823   0.11212   0.11316   0.12735
  Beta virt. eigenvalues --    0.12871   0.13385   0.14048   0.14351   0.14653

 Mulliken charges and spin densities:
               1          2
     1  C    0.841676  -1.544291
     2  C   -0.749797   1.093971
     3  C   -0.121656  -0.396176
     4  N   -0.076736   0.152797
     5  C   -0.247457  -0.138516
     6  C    0.457237  -0.903241
     7  C   -0.620353   0.273039
     8  C    2.413297  -2.752588
     9  N   -0.578388   0.363598
    10  C    0.176084  -0.441675
    11  H    0.004377   0.124349
    12  H   -0.012701   0.168883
    13  H   -0.202014   0.346889
    14  H   -0.368814   0.570209
    15  H    0.010778   0.117162
    16  H   -0.049347   0.216914
    17  H   -0.235678   0.400286
    18  H    0.096118   0.039909
    19  H    0.032043   0.125334
    20  H   -0.246100   0.403455
    21  H   -0.410705   0.565083
    22  H   -0.332147   0.475310
    23  H   -0.120043   0.266215
    24  H   -0.106749   0.338372
    25  H   -0.247457   0.484862
    26  H    0.044741   0.051615
    27  H   -0.185322   0.311443
    28  H   -0.164889   0.286790
 Sum of Mulliken charges =  -1.00000   1.00000

 Dipole moment (field-independent basis, Debye):
    X=             -3.7860    Y=              0.6699    Z=             -1.1315  Tot=              4.0078
 Quadrupole moment (field-independent basis, Debye-Ang):
   XX=           -121.3927   YY=           -105.4094   ZZ=           -101.8642
   XY=              2.5116   XZ=             -5.4690   YZ=             -0.7339

 Summary of Natural Population Analysis:

                                       Natural Population
                Natural  -----------------------------------------------
    Atom  No    Charge         Core      Valence    Rydberg      Total
 -----------------------------------------------------------------------
      C    1   -0.28707      0.99964     2.28060    0.00683     3.28707
      C    2   -0.11408      0.99955     2.10059    0.01394     3.11408
      C    3   -0.08222      0.99959     2.06987    0.01275     3.08222
      N    4   -0.28347      0.99971     2.77185    0.01191     3.78347
      C    5   -0.08249      0.99961     2.07102    0.01187     3.08249
      C    6   -0.19560      0.99957     2.18496    0.01107     3.19560
      C    7    0.05677      0.99955     1.92830    0.01538     2.94323
      C    8   -0.29131      0.99961     2.28418    0.00751     3.29131
      N    9   -0.42801      0.99975     2.91718    0.01108     3.92801
      C   10   -0.17122      0.99965     2.16475    0.00682     3.17122
      H   11    0.09741      0.00000     0.40172    0.00087     0.40259
      H   12    0.10194      0.00000     0.39642    0.00165     0.39806
      H   13    0.09981      0.00000     0.39924    0.00094     0.40019
      H   14    0.09852      0.00000     0.39955    0.00193     0.40148
      H   15    0.09223      0.00000     0.40608    0.00169     0.40777
      H   16    0.09268      0.00000     0.40604    0.00128     0.40732
      H   17    0.09308      0.00000     0.40572    0.00121     0.40692
      H   18    0.08615      0.00000     0.41214    0.00171     0.41385
      H   19    0.10095      0.00000     0.39753    0.00152     0.39905
      H   20    0.10064      0.00000     0.39816    0.00120     0.39936
      H   21    0.10102      0.00000     0.39708    0.00190     0.39898
      H   22    0.10047      0.00000     0.39777    0.00176     0.39953
      H   23    0.09975      0.00000     0.39903    0.00121     0.40025
      H   24    0.17470      0.00000     0.32265    0.00265     0.32530
      H   25    0.17610      0.00000     0.32063    0.00327     0.32390
      H   26    0.07738      0.00000     0.42087    0.00175     0.42262
      H   27    0.09302      0.00000     0.40576    0.00122     0.40698
      H   28    0.09285      0.00000     0.40585    0.00131     0.40715
 =======================================================================
   * Total *    0.00000      9.99624    29.86554    0.13823    40.00000

 Normal termination of Gaussian 16 at Tue Dec  8 12:50:14 2020.
