 Gaussian 16, Revision A.03,

 -----------------------------------------------------------
 # opt freq B3LYP/6-31G(d) empiricaldispersion=gd3bj scf=xqc
 -----------------------------------------------------------

 ------------------------------
 CID_79326021_JID_3004_neutraal
 ------------------------------
 Symbolic Z-matrix:
 Charge =  0 Multiplicity = 1

 SCF Done:  E(RB3LYP) =  -1012.34081627     A.U. after   14 cycles
 SCF Done:  E(RB3LYP) =  -1012.34807553     A.U. after   12 cycles
 SCF Done:  E(RB3LYP) =  -1012.34713006     A.U. after   12 cycles
 SCF Done:  E(RB3LYP) =  -1012.34880454     A.U. after   12 cycles
 SCF Done:  E(RB3LYP) =  -1012.34920346     A.U. after   11 cycles
 SCF Done:  E(RB3LYP) =  -1012.34939543     A.U. after   12 cycles
 SCF Done:  E(RB3LYP) =  -1012.34946788     A.U. after   11 cycles
 SCF Done:  E(RB3LYP) =  -1012.34944362     A.U. after   10 cycles
 SCF Done:  E(RB3LYP) =  -1012.34943372     A.U. after   11 cycles
 SCF Done:  E(RB3LYP) =  -1012.34947268     A.U. after   10 cycles
 SCF Done:  E(RB3LYP) =  -1012.34947925     A.U. after    8 cycles
 SCF Done:  E(RB3LYP) =  -1012.34948043     A.U. after    8 cycles
 SCF Done:  E(RB3LYP) =  -1012.34948119     A.U. after    9 cycles
 SCF Done:  E(RB3LYP) =  -1012.34948121     A.U. after    8 cycles
 SCF Done:  E(RB3LYP) =  -1012.34948138     A.U. after    8 cycles
 Optimization completed.
    -- Stationary point found.
 Normal termination of Gaussian 16 at Wed Dec  9 22:23:15 2020.

 --------------------------------------------------------------------
 #N Geom=AllCheck Guess=TCheck SCRF=Check GenChk RB3LYP/6-31G(d) Freq
 --------------------------------------------------------------------

 Structure from the checkpoint file:  "JID_3004.chk"
 ------------------------------
 CID_79326021_JID_3004_neutraal
 ------------------------------
 Charge =  0 Multiplicity = 1

 SCF Done:  E(RB3LYP) =  -1012.34948138     A.U. after    1 cycles

  Exact polarizability: 124.083  -2.255 107.453  -1.519  -3.356  99.022
 Approx polarizability: 163.724  -1.547 156.335  -2.690  -4.162 151.943

                      1                      2                      3
                      A                      A                      A
 Frequencies --     26.9296                36.6046                49.2244
 Red. masses --      5.5681                 2.9656                 7.7831
 Frc consts  --      0.0024                 0.0023                 0.0111
 IR Inten    --      0.8747                 0.5253                 2.1358

                      4                      5                      6
                      A                      A                      A
 Frequencies --     65.3528                92.2984               109.1443
 Red. masses --      6.6396                 3.5608                 3.1788
 Frc consts  --      0.0167                 0.0179                 0.0223
 IR Inten    --      1.2047                 2.1551                 2.2567

                      7                      8                      9
                      A                      A                      A
 Frequencies --    130.0890               152.5567               174.2677
 Red. masses --      5.4645                 3.7080                 3.8721
 Frc consts  --      0.0545                 0.0508                 0.0693
 IR Inten    --      0.0781                 2.3661                 4.0644

                     10                     11                     12
                      A                      A                      A
 Frequencies --    238.3045               244.1071               293.4878
 Red. masses --      1.6114                 3.6475                 1.8666
 Frc consts  --      0.0539                 0.1281                 0.0947
 IR Inten    --      0.5777                 0.2221                 0.8420

                     13                     14                     15
                      A                      A                      A
 Frequencies --    318.9846               326.2569               363.5666
 Red. masses --      2.7643                 3.0114                 3.6587
 Frc consts  --      0.1657                 0.1889                 0.2849
 IR Inten    --      0.8665                 2.5040                 1.7253

                     16                     17                     18
                      A                      A                      A
 Frequencies --    428.2147               458.0595               539.1204
 Red. masses --      3.2403                 4.2990                 2.4658
 Frc consts  --      0.3501                 0.5315                 0.4223
 IR Inten    --      3.0651                10.8530                 4.5946

                     19                     20                     21
                      A                      A                      A
 Frequencies --    576.6367               608.3372               650.4838
 Red. masses --      3.9547                 3.3334                 1.9875
 Frc consts  --      0.7748                 0.7268                 0.4955
 IR Inten    --     26.9495                 8.1107                79.0246

                     22                     23                     24
                      A                      A                      A
 Frequencies --    683.3324               733.1243               801.1100
 Red. masses --      3.2241                 3.3841                 1.3787
 Frc consts  --      0.8870                 1.0716                 0.5213
 IR Inten    --     24.8620                34.1761                15.0673

                     25                     26                     27
                      A                      A                      A
 Frequencies --    822.8790               840.7107               879.6728
 Red. masses --      1.9379                 4.5668                 2.2401
 Frc consts  --      0.7731                 1.9018                 1.0213
 IR Inten    --     21.0103                19.9252                 3.3664

                     28                     29                     30
                      A                      A                      A
 Frequencies --    907.7783               916.0264               934.1818
 Red. masses --      1.2292                 3.6711                 3.1850
 Frc consts  --      0.5968                 1.8149                 1.6377
 IR Inten    --      0.0491                 1.5144                12.2708

                     31                     32                     33
                      A                      A                      A
 Frequencies --   1015.6289              1033.2081              1037.6135
 Red. masses --      3.0091                 2.8039                10.6901
 Frc consts  --      1.8288                 1.7635                 6.7812
 IR Inten    --      5.5630                10.3913                85.7008

                     34                     35                     36
                      A                      A                      A
 Frequencies --   1056.4814              1065.5208              1114.1386
 Red. masses --      2.6788                 2.5365                 2.3598
 Frc consts  --      1.7616                 1.6967                 1.7259
 IR Inten    --     18.7373                 9.1563                 9.0759

                     37                     38                     39
                      A                      A                      A
 Frequencies --   1119.2018              1144.7496              1163.3142
 Red. masses --      2.0846                 3.0365                 1.3577
 Frc consts  --      1.5385                 2.3445                 1.0826
 IR Inten    --     29.2521               331.5791                 9.1249

                     40                     41                     42
                      A                      A                      A
 Frequencies --   1165.3680              1179.3323              1209.6248
 Red. masses --      1.3235                 1.1901                 1.6806
 Frc consts  --      1.0590                 0.9752                 1.4488
 IR Inten    --      4.9973                 0.3713                29.7125

                     43                     44                     45
                      A                      A                      A
 Frequencies --   1255.2954              1268.6409              1299.2907
 Red. masses --      1.8253                 1.3471                 1.2891
 Frc consts  --      1.6946                 1.2774                 1.2822
 IR Inten    --     25.3892                 9.0132                 8.8220

                     46                     47                     48
                      A                      A                      A
 Frequencies --   1306.6857              1319.5160              1329.5506
 Red. masses --      1.3355                 1.2667                 1.3611
 Frc consts  --      1.3435                 1.2995                 1.4176
 IR Inten    --     31.9729                 1.8736                 3.9706

                     49                     50                     51
                      A                      A                      A
 Frequencies --   1350.8486              1371.2103              1392.7834
 Red. masses --      1.1226                 1.5543                 1.4362
 Frc consts  --      1.2069                 1.7219                 1.6415
 IR Inten    --     12.7673                14.3127                 3.3814

                     52                     53                     54
                      A                      A                      A
 Frequencies --   1410.8520              1424.2933              1447.6807
 Red. masses --      1.3915                 1.2609                 1.2866
 Frc consts  --      1.6319                 1.5071                 1.5887
 IR Inten    --      2.3245                 2.1463                23.6521

                     55                     56                     57
                      A                      A                      A
 Frequencies --   1487.6401              1512.3255              1523.0869
 Red. masses --      1.0913                 1.0481                 1.0544
 Frc consts  --      1.4230                 1.4124                 1.4411
 IR Inten    --     13.7113                 2.1702                 2.5559

                     58                     59                     60
                      A                      A                      A
 Frequencies --   1536.6651              1538.6003              1562.8944
 Red. masses --      1.0803                 1.0771                 1.1112
 Frc consts  --      1.5030                 1.5023                 1.5992
 IR Inten    --      1.3473                 2.3066                 1.0341

                     61                     62                     63
                      A                      A                      A
 Frequencies --   1868.7241              3025.4494              3032.5490
 Red. masses --     10.4692                 1.0824                 1.0575
 Frc consts  --     21.5404                 5.8373                 5.7300
 IR Inten    --    260.9091                21.2418                81.3390

                     64                     65                     66
                      A                      A                      A
 Frequencies --   3044.0991              3049.7901              3059.5371
 Red. masses --      1.0592                 1.0612                 1.0465
 Frc consts  --      5.7827                 5.8153                 5.7714
 IR Inten    --     17.6273                46.1195                25.9223

                     67                     68                     69
                      A                      A                      A
 Frequencies --   3083.9450              3093.4208              3095.2281
 Red. masses --      1.1002                 1.1045                 1.0618
 Frc consts  --      6.1652                 6.2271                 5.9934
 IR Inten    --     12.7078                10.7989                16.7193

                     70                     71                     72
                      A                      A                      A
 Frequencies --   3099.4409              3106.1531              3137.6856
 Red. masses --      1.0997                 1.0979                 1.0915
 Frc consts  --      6.2245                 6.2413                 6.3313
 IR Inten    --     45.0987                60.7323                24.3551

                     73                     74                     75
                      A                      A                      A
 Frequencies --   3149.4574              3170.6119              3684.9663
 Red. masses --      1.1072                 1.1037                 1.0642
 Frc consts  --      6.4707                 6.5373                 8.5145
 IR Inten    --      7.9408                20.5961                58.5025

 - Thermochemistry -
 -------------------
 Temperature   298.150 Kelvin.  Pressure   1.00000 Atm.
 Atom     1 has atomic number  6 and mass  12.00000

 Molecular mass:   206.06128 amu.
 Principal axes and moments of inertia in atomic units:
                           1         2         3
     Eigenvalues --  1529.997754572.268225128.01543
           X            0.99998   0.00592  -0.00338
           Y           -0.00609   0.99863  -0.05196
           Z            0.00307   0.05198   0.99864
 This molecule is an asymmetric top.
 Rotational symmetry number  1.
 Warning -- assumption of classical behavior for rotation
           may cause significant error
 Rotational temperatures (Kelvin)      0.05661     0.01894     0.01689
 Rotational constants (GHZ):           1.17957     0.39471     0.35194
 Zero-point vibrational energy     584638.6 (Joules/Mol)
                                  139.73198 (Kcal/Mol)
 Warning -- explicit consideration of  20 degrees of freedom as
           vibrations may cause significant error
 Vibrational temperatures:     38.75    52.67    70.82    94.03   132.80
          (Kelvin)            157.03   187.17   219.50   250.73   342.87
                              351.22   422.26   458.95   469.41   523.09
                              616.11   659.05   775.67   829.65   875.26
                              935.90   983.16  1054.80  1152.62  1183.94
                             1209.60  1265.65  1306.09  1317.96  1344.08
                             1461.26  1486.56  1492.89  1520.04  1533.05
                             1603.00  1610.28  1647.04  1673.75  1676.70
                             1696.80  1740.38  1806.09  1825.29  1869.39
                             1880.03  1898.49  1912.93  1943.57  1972.87
                             2003.90  2029.90  2049.24  2082.89  2140.38
                             2175.90  2191.38  2210.92  2213.70  2248.66
                             2688.68  4352.95  4363.16  4379.78  4387.97
                             4401.99  4437.11  4450.74  4453.34  4459.40
                             4469.06  4514.43  4531.37  4561.80  5301.84

 Zero-point correction=                           0.222677 (Hartree/Particle)
 Thermal correction to Energy=                    0.237126
 Thermal correction to Enthalpy=                  0.238070
 Thermal correction to Gibbs Free Energy=         0.178989
 Sum of electronic and zero-point Energies=          -1012.126804
 Sum of electronic and thermal Energies=             -1012.112356
 Sum of electronic and thermal Enthalpies=           -1012.111412
 Sum of electronic and thermal Free Energies=        -1012.170493

                     E (Thermal)             CV                S
                      KCal/Mol        Cal/Mol-Kelvin    Cal/Mol-Kelvin
 Total                  148.799             51.181            124.347
 Electronic               0.000              0.000              0.000
 Translational            0.889              2.981             41.873
 Rotational               0.889              2.981             31.951
 Vibrational            147.021             45.219             50.523
 Vibration     1          0.593              1.984              6.044
 Vibration     2          0.594              1.982              5.435
 Vibration     3          0.595              1.978              4.848
 Vibration     4          0.597              1.971              4.289
 Vibration     5          0.602              1.955              3.611
 Vibration     6          0.606              1.942              3.284
 Vibration     7          0.612              1.923              2.945
 Vibration     8          0.619              1.900              2.640
 Vibration     9          0.627              1.874              2.389
 Vibration    10          0.656              1.782              1.816
 Vibration    11          0.659              1.773              1.773
 Vibration    12          0.688              1.686              1.454
 Vibration    13          0.705              1.637              1.315
 Vibration    14          0.710              1.623              1.279
 Vibration    15          0.737              1.547              1.107
 Vibration    16          0.790              1.409              0.865
 Vibration    17          0.816              1.343              0.772
 Vibration    18          0.894              1.164              0.567
 Vibration    19          0.933              1.082              0.492
 Vibration    20          0.967              1.014              0.436

 Optimization completed.
    -- Stationary point found.
 Normal termination of Gaussian 16 at Wed Dec  9 22:29:32 2020.

 ----------------------------------------------------------------------
 # B3LYP/6-311++G(d,p) empiricaldispersion=gd3bj scf=xqc pop=npa geom=c
 heck
 ----------------------------------------------------------------------

 --------------------------------------
 CID_79326021_JID_3004_Energie_neutraal
 --------------------------------------
 Structure from the checkpoint file:  "JID_3004.chk"
 Charge =  0 Multiplicity = 1

 SCF Done:  E(RB3LYP) =  -1012.56770980     A.U. after   14 cycles
 Normal termination of Gaussian 16 at Wed Dec  9 22:31:59 2020.

 ----------------------------------------------------------------------
 # B3LYP/6-311++G(d,p) empiricaldispersion=gd3bj scf=xqc pop=npa geom=c
 heck
 ----------------------------------------------------------------------

 ------------------------------------
 CID_79326021_JID_3004_Energie_kation
 ------------------------------------
 Structure from the checkpoint file:  "JID_3004.chk"
 Charge =  1 Multiplicity = 2

 SCF Done:  E(UB3LYP) =  -1012.25090964     A.U. after   26 cycles
 Normal termination of Gaussian 16 at Wed Dec  9 22:37:55 2020.
 Gaussian 16:  ES64L-G16RevA.03 25-Dec-2016

 ----------------------------------------------------------------------
 # B3LYP/6-311++G(d,p) empiricaldispersion=gd3bj scf=xqc pop=npa geom=c
 heck
 ----------------------------------------------------------------------

 -----------------------------------
 CID_79326021_JID_3004_Energie_anion
 -----------------------------------
 Structure from the checkpoint file:  "JID_3004.chk"
 Charge = -1 Multiplicity = 2

                         Standard orientation:
 ---------------------------------------------------------------------
 Center     Atomic      Atomic             Coordinates (Angstroms)
 Number     Number       Type             X           Y           Z
 ---------------------------------------------------------------------
      1          6           0        1.488274    2.246477   -0.925622
      2          6           0        1.201455    2.038490    0.555365
      3          8           0        1.993970    1.042038    1.207129
      4          6           0        1.746084   -0.321757    0.994038
      5          6           0        0.280034   -0.789605    1.112334
      6         16           0       -0.706504   -0.723221   -0.448059
      7          6           0       -2.158501    0.219686    0.101786
      8          6           0       -3.198700    0.513691   -0.997415
      9          8           0       -4.272008    0.034935   -0.158270
     10          6           0       -3.332834   -0.501201    0.800232
     11          6           0        2.439184   -0.863132   -0.263979
     12          8           0        3.212620   -0.270581   -0.973200
     13          8           0        2.117897   -2.171238   -0.446228
     14          1           0        2.557030    2.401129   -1.090327
     15          1           0        0.941118    3.132826   -1.270436
     16          1           0        1.166166    1.393132   -1.525308
     17          1           0        1.441420    2.950020    1.111706
     18          1           0        0.134335    1.836728    0.715120
     19          1           0        2.275797   -0.813433    1.823293
     20          1           0        0.277090   -1.825187    1.457055
     21          1           0       -0.217473   -0.180397    1.871728
     22          1           0       -1.841955    1.123540    0.629278
     23          1           0       -3.326143    1.563664   -1.282496
     24          1           0       -3.081539   -0.098077   -1.902486
     25          1           0       -3.270365   -1.595747    0.749635
     26          1           0       -3.566891   -0.188673    1.824920
     27          1           0        2.605649   -2.465135   -1.238622
 ---------------------------------------------------------------------

 SCF Done:  E(UB3LYP) =  -1012.55824417     A.U. after   33 cycles
 SCF Done:  E(UB3LYP) =  -1012.55824417     a.u. after    1 cycles

 The electronic state is 2-A.
 Alpha  occ. eigenvalues --  -88.74478 -19.06764 -19.03464 -19.02591 -19.01098
 Alpha  occ. eigenvalues --  -10.19626 -10.14046 -10.13886 -10.12793 -10.11638
 Alpha  occ. eigenvalues --  -10.11618 -10.10336 -10.05478  -7.83107  -5.79502
 Alpha  occ. eigenvalues --   -5.79138  -5.78467  -1.00799  -0.96066  -0.94021
 Alpha  occ. eigenvalues --   -0.91767  -0.71921  -0.68363  -0.64659  -0.60926
 Alpha  occ. eigenvalues --   -0.60143  -0.54083  -0.53452  -0.47471  -0.46082
 Alpha  occ. eigenvalues --   -0.42242  -0.41504  -0.40454  -0.38739  -0.37619
 Alpha  occ. eigenvalues --   -0.36913  -0.35609  -0.34404  -0.32869  -0.32369
 Alpha  occ. eigenvalues --   -0.32020  -0.30915  -0.29987  -0.28940  -0.27519
 Alpha  occ. eigenvalues --   -0.26338  -0.25577  -0.23022  -0.22411  -0.21611
 Alpha  occ. eigenvalues --   -0.20909  -0.18672  -0.17090  -0.16395  -0.13112
 Alpha  occ. eigenvalues --    0.04417
 Alpha virt. eigenvalues --    0.06486   0.07089   0.07888   0.08657   0.09260
 Alpha virt. eigenvalues --    0.09838   0.10060   0.10621   0.10750   0.11568
 Alpha virt. eigenvalues --    0.12538   0.12780   0.13173   0.13662   0.14679

  Beta  occ. eigenvalues --  -88.74474 -19.06725 -19.03461 -19.02592 -19.01035
  Beta  occ. eigenvalues --  -10.19539 -10.14031 -10.13882 -10.12762 -10.11617
  Beta  occ. eigenvalues --  -10.11598 -10.10277 -10.05471  -7.83103  -5.79494
  Beta  occ. eigenvalues --   -5.79130  -5.78465  -1.00685  -0.96051  -0.94004
  Beta  occ. eigenvalues --   -0.91666  -0.71866  -0.68299  -0.64619  -0.60887
  Beta  occ. eigenvalues --   -0.60051  -0.53956  -0.53392  -0.47416  -0.45996
  Beta  occ. eigenvalues --   -0.42184  -0.41431  -0.40349  -0.38624  -0.37593
  Beta  occ. eigenvalues --   -0.36879  -0.35540  -0.34247  -0.32806  -0.32324
  Beta  occ. eigenvalues --   -0.31991  -0.30840  -0.29908  -0.28890  -0.27492
  Beta  occ. eigenvalues --   -0.26294  -0.25538  -0.22928  -0.22259  -0.21534
  Beta  occ. eigenvalues --   -0.20859  -0.18626  -0.17073  -0.16341  -0.13087
  Beta virt. eigenvalues --    0.06768   0.07426   0.07919   0.08174   0.09403
  Beta virt. eigenvalues --    0.09514   0.10118   0.10468   0.10995   0.11214
  Beta virt. eigenvalues --    0.11911   0.12560   0.13016   0.13617   0.13946

 Mulliken charges and spin densities:
               1          2
     1  C   -0.373354  -0.195703
     2  C    0.278741  -0.421761
     3  O   -0.070414   0.005680
     4  C   -0.435426   0.396822
     5  C    1.167666  -1.825718
     6  S    0.282467  -0.097052
     7  C   -0.845038   0.763101
     8  C    0.037783  -0.323746
     9  O   -0.209359   0.025527
    10  C    0.803939  -1.154139
    11  C    0.406852  -0.466421
    12  O   -0.281605   0.037619
    13  O   -0.193881   0.064012
    14  H    0.189861  -0.012921
    15  H   -0.018177   0.124525
    16  H    0.160732   0.018155
    17  H   -0.222296   0.406999
    18  H   -0.097683   0.177659
    19  H   -0.689821   0.958622
    20  H   -0.210123   0.469278
    21  H   -0.263264   0.482796
    22  H   -0.026845   0.263823
    23  H    0.050356   0.106772
    24  H    0.120840   0.022195
    25  H   -0.034399   0.173502
    26  H   -0.348807   0.529236
    27  H   -0.178748   0.471136
 Sum of Mulliken charges =  -1.00000   1.00000

 Dipole moment (field-independent basis, Debye):
    X=             -1.7639    Y=              1.7106    Z=             -5.0623  Tot=              5.6271
 Quadrupole moment (field-independent basis, Debye-Ang):
   XX=           -150.5499   YY=           -122.0880   ZZ=           -123.6098
   XY=              4.0979   XZ=              5.1032   YZ=              0.6273

 Summary of Natural Population Analysis:

                                       Natural Population
                Natural  -----------------------------------------------
    Atom  No    Charge         Core      Valence    Rydberg      Total
 -----------------------------------------------------------------------
      C    1   -0.30190      0.99966     2.29794    0.00430     3.30190
      C    2   -0.00880      0.99957     1.99677    0.01246     3.00880
      O    3   -0.29624      0.99988     3.28580    0.01056     4.29624
      C    4    0.01832      0.99948     1.96327    0.01893     2.98168
      C    5   -0.26350      0.99957     2.25285    0.01108     3.26350
      S    6    0.09769      4.99958     2.88558    0.01715     7.90231
      C    7   -0.19956      0.99956     2.18718    0.01282     3.19956
      C    8   -0.00286      0.99961     1.99061    0.01264     3.00286
      O    9   -0.30408      0.99991     3.29587    0.00830     4.30408
      C   10   -0.00478      0.99960     1.99128    0.01390     3.00478
      C   11    0.40667      0.99970     1.56735    0.02628     2.59333
      O   12   -0.29737      0.99986     3.29076    0.00674     4.29737
      O   13   -0.34946      0.99988     3.34233    0.00725     4.34946
      H   14    0.10467      0.00000     0.39434    0.00098     0.39533
      H   15    0.09437      0.00000     0.40461    0.00102     0.40563
      H   16    0.10518      0.00000     0.39346    0.00136     0.39482
      H   17    0.08726      0.00000     0.41138    0.00136     0.41274
      H   18    0.07734      0.00000     0.42043    0.00224     0.42266
      H   19    0.11509      0.00000     0.38072    0.00419     0.38491
      H   20    0.11670      0.00000     0.38058    0.00272     0.38330
      H   21    0.11540      0.00000     0.38044    0.00416     0.38460
      H   22    0.10548      0.00000     0.39220    0.00232     0.39452
      H   23    0.08640      0.00000     0.41230    0.00130     0.41360
      H   24    0.08245      0.00000     0.41623    0.00132     0.41755
      H   25    0.08465      0.00000     0.41358    0.00177     0.41535
      H   26    0.08982      0.00000     0.40771    0.00246     0.41018
      H   27    0.24104      0.00000     0.25310    0.00586     0.25896
 =======================================================================
   * Total *    0.00000     16.99584    37.80866    0.19550    55.00000

 Normal termination of Gaussian 16 at Wed Dec  9 22:45:27 2020.
