 Gaussian 16, Revision A.03,

 -----------------------------------------------------------
 # opt freq B3LYP/6-31G(d) empiricaldispersion=gd3bj scf=xqc
 -----------------------------------------------------------

 -------------------------------
 CID_130138302_JID_3874_neutraal
 -------------------------------
 Symbolic Z-matrix:
 Charge =  0 Multiplicity = 1

 SCF Done:  E(RB3LYP) =  -596.513062421     A.U. after   14 cycles
 SCF Done:  E(RB3LYP) =  -596.517672266     A.U. after   12 cycles
 SCF Done:  E(RB3LYP) =  -596.518113675     A.U. after   10 cycles
 SCF Done:  E(RB3LYP) =  -596.518310441     A.U. after   10 cycles
 SCF Done:  E(RB3LYP) =  -596.518354453     A.U. after    9 cycles
 SCF Done:  E(RB3LYP) =  -596.518373034     A.U. after   10 cycles
 SCF Done:  E(RB3LYP) =  -596.518388011     A.U. after    8 cycles
 SCF Done:  E(RB3LYP) =  -596.518403127     A.U. after   10 cycles
 SCF Done:  E(RB3LYP) =  -596.518410255     A.U. after    9 cycles
 SCF Done:  E(RB3LYP) =  -596.518413364     A.U. after    9 cycles
 SCF Done:  E(RB3LYP) =  -596.518414193     A.U. after    8 cycles
 SCF Done:  E(RB3LYP) =  -596.518414856     A.U. after    8 cycles
 SCF Done:  E(RB3LYP) =  -596.518415265     A.U. after    8 cycles
 SCF Done:  E(RB3LYP) =  -596.518415454     A.U. after    7 cycles
 SCF Done:  E(RB3LYP) =  -596.518415553     A.U. after    7 cycles
 Optimization completed.
    -- Stationary point found.
 Normal termination of Gaussian 16 at Mon Dec 14 16:36:39 2020.

 --------------------------------------------------------------------
 #N Geom=AllCheck Guess=TCheck SCRF=Check GenChk RB3LYP/6-31G(d) Freq
 --------------------------------------------------------------------

 Structure from the checkpoint file:  "JID_3874.chk"
 -------------------------------
 CID_130138302_JID_3874_neutraal
 -------------------------------
 Charge =  0 Multiplicity = 1

 SCF Done:  E(RB3LYP) =  -596.518415553     A.U. after    1 cycles

  Exact polarizability: 138.929  -0.136 108.677   2.423  -1.764  89.434
 Approx polarizability: 166.112 -11.220 162.395   4.035  -2.493 141.363

                      1                      2                      3
                      A                      A                      A
 Frequencies --     32.2134                62.1540                81.4279
 Red. masses --      5.1415                 3.6219                 5.6179
 Frc consts  --      0.0031                 0.0082                 0.0219
 IR Inten    --      2.2887                 5.0980                 5.2645

                      4                      5                      6
                      A                      A                      A
 Frequencies --    111.8299               130.6264               137.0579
 Red. masses --      3.9515                 2.2149                 1.4185
 Frc consts  --      0.0291                 0.0223                 0.0157
 IR Inten    --      1.6384                 0.3969                 0.4102

                      7                      8                      9
                      A                      A                      A
 Frequencies --    165.5544               196.1646               221.5689
 Red. masses --      2.7527                 2.3118                 2.1419
 Frc consts  --      0.0445                 0.0524                 0.0620
 IR Inten    --      1.2132                 2.9003                 0.9900

                     10                     11                     12
                      A                      A                      A
 Frequencies --    244.6811               265.2334               287.1018
 Red. masses --      3.5131                 1.7398                 1.7930
 Frc consts  --      0.1239                 0.0721                 0.0871
 IR Inten    --      7.6912                38.2186                35.9151

                     13                     14                     15
                      A                      A                      A
 Frequencies --    300.4088               386.6607               429.5304
 Red. masses --      2.2717                 2.7352                 3.4721
 Frc consts  --      0.1208                 0.2409                 0.3774
 IR Inten    --     23.1080                 0.8451                 7.5249

                     16                     17                     18
                      A                      A                      A
 Frequencies --    506.0396               522.1965               534.7504
 Red. masses --      3.4517                 2.3511                 3.2008
 Frc consts  --      0.5208                 0.3777                 0.5393
 IR Inten    --      2.6848                 3.5021                 5.0956

                     19                     20                     21
                      A                      A                      A
 Frequencies --    595.3273               625.0084               630.8015
 Red. masses --      2.7989                 3.5149                 2.7779
 Frc consts  --      0.5845                 0.8090                 0.6512
 IR Inten    --      5.8012                10.7102                 0.1920

                     22                     23                     24
                      A                      A                      A
 Frequencies --    776.7113               797.2172               835.7646
 Red. masses --      2.1937                 2.5686                 3.4135
 Frc consts  --      0.7797                 0.9618                 1.4048
 IR Inten    --      0.8812                 9.2273                 5.0211

                     25                     26                     27
                      A                      A                      A
 Frequencies --    870.0037               898.7274               910.0164
 Red. masses --      1.5416                 1.6494                 1.9628
 Frc consts  --      0.6875                 0.7850                 0.9577
 IR Inten    --      4.6803                 3.1938                 4.3577

                     28                     29                     30
                      A                      A                      A
 Frequencies --    946.0275               973.1341               978.9770
 Red. masses --      1.4563                 1.4901                 1.7912
 Frc consts  --      0.7679                 0.8314                 1.0114
 IR Inten    --      5.1295                 3.2569                13.0213

                     31                     32                     33
                      A                      A                      A
 Frequencies --   1007.2509              1014.7385              1055.7988
 Red. masses --      2.3303                 2.3812                 2.5886
 Frc consts  --      1.3929                 1.4446                 1.7001
 IR Inten    --      7.0903                 2.3824                59.5373

                     34                     35                     36
                      A                      A                      A
 Frequencies --   1058.4791              1061.9654              1077.1011
 Red. masses --      2.1290                 1.7321                 1.7928
 Frc consts  --      1.4054                 1.1509                 1.2254
 IR Inten    --      5.9818                 8.7387                41.2753

                     37                     38                     39
                      A                      A                      A
 Frequencies --   1088.0283              1099.1795              1129.1429
 Red. masses --      2.2877                 1.9115                 1.8820
 Frc consts  --      1.5956                 1.3607                 1.4137
 IR Inten    --      8.4114                 0.6630                 4.3418

                     40                     41                     42
                      A                      A                      A
 Frequencies --   1153.8722              1174.6136              1190.5803
 Red. masses --      1.2788                 1.8467                 1.4386
 Frc consts  --      1.0031                 1.5012                 1.2015
 IR Inten    --      1.3106                 3.3877                13.8118

                     43                     44                     45
                      A                      A                      A
 Frequencies --   1207.6274              1231.5038              1242.2762
 Red. masses --      1.2973                 1.8350                 1.5267
 Frc consts  --      1.1147                 1.6397                 1.3882
 IR Inten    --      4.7679                19.9663                13.5484

                     46                     47                     48
                      A                      A                      A
 Frequencies --   1251.5470              1274.1589              1285.2688
 Red. masses --      1.4511                 1.5357                 1.3606
 Frc consts  --      1.3392                 1.4689                 1.3242
 IR Inten    --      5.6521                 3.3075                 8.9017

                     49                     50                     51
                      A                      A                      A
 Frequencies --   1326.6119              1341.0896              1361.5703
 Red. masses --      1.3561                 1.3607                 1.2358
 Frc consts  --      1.4061                 1.4419                 1.3498
 IR Inten    --      2.3599                 3.7109                 5.9229

                     52                     53                     54
                      A                      A                      A
 Frequencies --   1377.2174              1382.8369              1406.0246
 Red. masses --      1.4175                 1.3228                 1.3579
 Frc consts  --      1.5841                 1.4903                 1.5816
 IR Inten    --      4.7107                 2.8479                65.6297

                     55                     56                     57
                      A                      A                      A
 Frequencies --   1408.5666              1419.3974              1442.1842
 Red. masses --      1.3113                 1.7544                 1.4594
 Frc consts  --      1.5329                 2.0825                 1.7884
 IR Inten    --      3.8848                 7.8674                16.5623

                     58                     59                     60
                      A                      A                      A
 Frequencies --   1455.9323              1464.2925              1501.5673
 Red. masses --      3.8953                 1.4985                 1.0940
 Frc consts  --      4.8649                 1.8930                 1.4533
 IR Inten    --    359.9844                42.2941                 6.7790

                     61                     62                     63
                      A                      A                      A
 Frequencies --   1514.2854              1523.4935              1527.2240
 Red. masses --      1.0499                 1.1886                 1.2659
 Frc consts  --      1.4184                 1.6255                 1.7396
 IR Inten    --     11.0099                 0.9085                 2.8501

                     64                     65                     66
                      A                      A                      A
 Frequencies --   1546.7915              1552.2907              1559.2775
 Red. masses --      1.0792                 1.0888                 1.0956
 Frc consts  --      1.5214                 1.5458                 1.5694
 IR Inten    --      0.7651                 1.5461                 5.1847

                     67                     68                     69
                      A                      A                      A
 Frequencies --   1768.3515              2996.1434              3011.7763
 Red. masses --      9.8894                 1.0829                 1.0714
 Frc consts  --     18.2204                 5.7274                 5.7259
 IR Inten    --    324.4918                18.0176                54.9921

                     70                     71                     72
                      A                      A                      A
 Frequencies --   3033.2702              3040.6767              3053.7782
 Red. masses --      1.0685                 1.0697                 1.0397
 Frc consts  --      5.7924                 5.8269                 5.7127
 IR Inten    --     45.1624                31.6272                 6.5747

                     73                     74                     75
                      A                      A                      A
 Frequencies --   3071.7769              3089.5914              3093.2804
 Red. masses --      1.0667                 1.0889                 1.0950
 Frc consts  --      5.9305                 6.1242                 6.1731
 IR Inten    --     21.5726                40.1790                40.6623

                     76                     77                     78
                      A                      A                      A
 Frequencies --   3111.8257              3116.6463              3133.3927
 Red. masses --      1.1005                 1.0956                 1.0923
 Frc consts  --      6.2787                 6.2704                 6.3188
 IR Inten    --     13.8806                13.7310                17.6057

                     79                     80                     81
                      A                      A                      A
 Frequencies --   3134.4227              3148.3307              3157.7307
 Red. masses --      1.0974                 1.0554                 1.0901
 Frc consts  --      6.3522                 6.1635                 6.4041
 IR Inten    --     12.4491                16.6610                26.8369

                     82                     83                     84
                      A                      A                      A
 Frequencies --   3177.4710              3226.4994              3753.3516
 Red. masses --      1.0999                 1.1165                 1.0658
 Frc consts  --      6.5431                 6.8479                 8.8468
 IR Inten    --      9.1866                15.2491                 6.6457

 - Thermochemistry -
 -------------------
 Temperature   298.150 Kelvin.  Pressure   1.00000 Atm.
 Atom     1 has atomic number  6 and mass  12.00000

 Molecular mass:   183.12593 amu.
 Principal axes and moments of inertia in atomic units:
                           1         2         3
     Eigenvalues --   973.143634758.850095345.97137
           X            0.99977   0.02162   0.00090
           Y           -0.02161   0.99968  -0.01307
           Z           -0.00118   0.01304   0.99991
 This molecule is an asymmetric top.
 Rotational symmetry number  1.
 Warning -- assumption of classical behavior for rotation
           may cause significant error
 Rotational temperatures (Kelvin)      0.08900     0.01820     0.01620
 Rotational constants (GHZ):           1.85455     0.37924     0.33759
 Zero-point vibrational energy     695538.9 (Joules/Mol)
                                  166.23778 (Kcal/Mol)
 Warning -- explicit consideration of  19 degrees of freedom as
           vibrations may cause significant error
 Vibrational temperatures:     46.35    89.43   117.16   160.90   187.94
          (Kelvin)            197.20   238.20   282.24   318.79   352.04
                              381.61   413.08   432.22   556.32   618.00
                              728.08   751.32   769.39   856.54   899.25
                              907.58  1117.51  1147.02  1202.48  1251.74
                             1293.07  1309.31  1361.12  1400.12  1408.53
                             1449.21  1459.98  1519.06  1522.92  1527.93
                             1549.71  1565.43  1581.47  1624.58  1660.16
                             1690.01  1712.98  1737.51  1771.86  1787.36
                             1800.70  1833.23  1849.22  1908.70  1929.53
                             1959.00  1981.51  1989.59  2022.96  2026.61
                             2042.20  2074.98  2094.76  2106.79  2160.42
                             2178.72  2191.97  2197.33  2225.49  2233.40
                             2243.45  2544.26  4310.78  4333.27  4364.20
                             4374.86  4393.71  4419.60  4445.23  4450.54
                             4477.22  4484.16  4508.25  4509.74  4529.75
                             4543.27  4571.67  4642.21  5400.24

 Zero-point correction=                           0.264917 (Hartree/Particle)
 Thermal correction to Energy=                    0.278510
 Thermal correction to Enthalpy=                  0.279454
 Thermal correction to Gibbs Free Energy=         0.224071
 Sum of electronic and zero-point Energies=           -596.253499
 Sum of electronic and thermal Energies=              -596.239906
 Sum of electronic and thermal Enthalpies=            -596.238961
 Sum of electronic and thermal Free Energies=         -596.294344

                     E (Thermal)             CV                S
                      KCal/Mol        Cal/Mol-Kelvin    Cal/Mol-Kelvin
 Total                  174.768             50.511            116.563
 Electronic               0.000              0.000              0.000
 Translational            0.889              2.981             41.521
 Rotational               0.889              2.981             31.582
 Vibrational            172.990             44.549             43.459
 Vibration     1          0.594              1.983              5.688
 Vibration     2          0.597              1.972              4.388
 Vibration     3          0.600              1.962              3.856
 Vibration     4          0.607              1.940              3.237
 Vibration     5          0.612              1.923              2.937
 Vibration     6          0.614              1.916              2.845
 Vibration     7          0.624              1.885              2.485
 Vibration     8          0.636              1.845              2.169
 Vibration     9          0.648              1.808              1.946
 Vibration    10          0.660              1.772              1.769
 Vibration    11          0.671              1.737              1.627
 Vibration    12          0.684              1.698              1.491
 Vibration    13          0.693              1.673              1.415
 Vibration    14          0.755              1.499              1.013
 Vibration    15          0.791              1.406              0.860
 Vibration    16          0.861              1.237              0.643
 Vibration    17          0.877              1.201              0.605
 Vibration    18          0.890              1.173              0.577
 Vibration    19          0.953              1.042              0.458

                           ! Non-Optimized Parameters !
 Normal termination of Gaussian 16 at Mon Dec 14 16:44:45 2020.

 ----------------------------------------------------------------------
 # B3LYP/6-311++G(d,p) empiricaldispersion=gd3bj scf=xqc pop=npa geom=c
 heck
 ----------------------------------------------------------------------

 ---------------------------------------
 CID_130138302_JID_3874_Energie_neutraal
 ---------------------------------------
 Structure from the checkpoint file:  "JID_3874.chk"
 Charge =  0 Multiplicity = 1

 SCF Done:  E(RB3LYP) =  -596.697578226     A.U. after   14 cycles
 Normal termination of Gaussian 16 at Mon Dec 14 16:48:29 2020.

 ----------------------------------------------------------------------
 # B3LYP/6-311++G(d,p) empiricaldispersion=gd3bj scf=xqc pop=npa geom=c
 heck
 ----------------------------------------------------------------------

 -------------------------------------
 CID_130138302_JID_3874_Energie_kation
 -------------------------------------
 Structure from the checkpoint file:  "JID_3874.chk"
 Charge =  1 Multiplicity = 2

 SCF Done:  E(UB3LYP) =  -596.379497411     A.U. after   29 cycles
 Normal termination of Gaussian 16 at Mon Dec 14 16:59:20 2020.
 Gaussian 16:  ES64L-G16RevA.03 25-Dec-2016

 ----------------------------------------------------------------------
 # B3LYP/6-311++G(d,p) empiricaldispersion=gd3bj scf=xqc pop=npa geom=c
 heck
 ----------------------------------------------------------------------

 ------------------------------------
 CID_130138302_JID_3874_Energie_anion
 ------------------------------------
 Structure from the checkpoint file:  "JID_3874.chk"
 Charge = -1 Multiplicity = 2

                         Standard orientation:
 ---------------------------------------------------------------------
 Center     Atomic      Atomic             Coordinates (Angstroms)
 Number     Number       Type             X           Y           Z
 ---------------------------------------------------------------------
      1          6           0       -4.101853   -0.982251    0.240860
      2          6           0       -3.186436    0.193326   -0.064011
      3          8           0       -3.616282    1.308793   -0.343358
      4          7           0       -1.845959   -0.058757   -0.003980
      5          6           0       -1.204944   -1.341064    0.291103
      6          6           0        0.273349   -0.965551    0.459172
      7          6           0        0.447417    0.223767   -0.505696
      8          6           0       -0.876069    0.988990   -0.321360
      9          6           0        1.647718    1.146039   -0.363608
     10          6           0        2.242465    1.568253    0.955480
     11          6           0        3.071401    0.749656   -0.008777
     12          6           0        3.456487   -0.668382    0.339181
     13          8           0        3.445333   -1.540879   -0.789322
     14          1           0       -5.131281   -0.663654    0.074606
     15          1           0       -3.992596   -1.306429    1.282758
     16          1           0       -3.880070   -1.845815   -0.396707
     17          1           0       -1.338578   -2.052449   -0.537569
     18          1           0       -1.620437   -1.802378    1.192931
     19          1           0        0.454467   -0.646194    1.491263
     20          1           0        0.937456   -1.804917    0.239299
     21          1           0        0.451935   -0.183356   -1.529146
     22          1           0       -0.797217    1.709886    0.503746
     23          1           0       -1.190196    1.540987   -1.211073
     24          1           0        1.605952    1.945225   -1.102996
     25          1           0        2.485585    2.615525    1.107772
     26          1           0        1.900821    1.061936    1.854902
     27          1           0        3.837734    1.284097   -0.566862
     28          1           0        4.481698   -0.692219    0.723244
     29          1           0        2.807974   -1.053976    1.137880
     30          1           0        2.658842   -1.314987   -1.308808
 ---------------------------------------------------------------------

 SCF Done:  E(UB3LYP) =  -596.688098079     A.U. after   33 cycles
 SCF Done:  E(UB3LYP) =  -596.688098079     a.u. after    1 cycles

 The electronic state is 2-A.
 Alpha  occ. eigenvalues --  -19.02857 -18.98109 -14.23673 -10.16725 -10.12551
 Alpha  occ. eigenvalues --  -10.10818 -10.10154 -10.09180 -10.09095 -10.08945
 Alpha  occ. eigenvalues --  -10.08369 -10.07998 -10.07331  -0.93347  -0.92959
 Alpha  occ. eigenvalues --   -0.84470  -0.77807  -0.70146  -0.65227  -0.63351
 Alpha  occ. eigenvalues --   -0.60680  -0.54842  -0.53050  -0.49830  -0.46596
 Alpha  occ. eigenvalues --   -0.44792  -0.42887  -0.41027  -0.39139  -0.38035
 Alpha  occ. eigenvalues --   -0.35684  -0.35464  -0.34649  -0.33718  -0.32987
 Alpha  occ. eigenvalues --   -0.31507  -0.30480  -0.29766  -0.29051  -0.28723
 Alpha  occ. eigenvalues --   -0.26594  -0.25693  -0.25548  -0.24752  -0.23988
 Alpha  occ. eigenvalues --   -0.20468  -0.19312  -0.18247  -0.15316  -0.14081
 Alpha  occ. eigenvalues --    0.04101
 Alpha virt. eigenvalues --    0.05992   0.06741   0.07822   0.08318   0.08901
 Alpha virt. eigenvalues --    0.09494   0.10167   0.10653   0.10828   0.11519
 Alpha virt. eigenvalues --    0.11946   0.12404   0.13380   0.13599   0.13939

  Beta  occ. eigenvalues --  -19.02839 -18.98104 -14.23675 -10.16723 -10.12541
  Beta  occ. eigenvalues --  -10.10773 -10.10142 -10.09168 -10.09074 -10.08934
  Beta  occ. eigenvalues --  -10.08350 -10.07976 -10.07298  -0.93336  -0.92925
  Beta  occ. eigenvalues --   -0.84452  -0.77771  -0.70118  -0.65174  -0.63304
  Beta  occ. eigenvalues --   -0.60637  -0.54804  -0.52976  -0.49776  -0.46544
  Beta  occ. eigenvalues --   -0.44731  -0.42840  -0.40991  -0.39090  -0.37988
  Beta  occ. eigenvalues --   -0.35646  -0.35439  -0.34613  -0.33681  -0.32958
  Beta  occ. eigenvalues --   -0.31469  -0.30440  -0.29736  -0.29012  -0.28693
  Beta  occ. eigenvalues --   -0.26561  -0.25662  -0.25504  -0.24713  -0.23945
  Beta  occ. eigenvalues --   -0.20439  -0.19286  -0.18224  -0.15300  -0.14063
  Beta virt. eigenvalues --    0.06407   0.07050   0.07424   0.08187   0.08681
  Beta virt. eigenvalues --    0.09722   0.10081   0.10620   0.11020   0.11057
  Beta virt. eigenvalues --    0.11549   0.12222   0.12786   0.13667   0.13932

 Mulliken charges and spin densities:
               1          2
     1  C    0.803742  -1.339570
     2  C   -0.486945   0.700785
     3  O   -0.367365   0.001709
     4  N   -0.193440   0.289622
     5  C    2.875584  -3.557633
     6  C   -1.823802   1.684868
     7  C    0.139707  -0.066120
     8  C    0.516922  -1.146383
     9  C   -0.797980   0.784746
    10  C    0.470619  -1.054436
    11  C    0.064668   0.159803
    12  C    0.126169  -0.725047
    13  O   -0.221350  -0.016118
    14  H    0.117414   0.059165
    15  H   -0.234946   0.400121
    16  H   -0.216921   0.370841
    17  H   -0.464040   0.667027
    18  H   -0.377128   0.550163
    19  H   -0.116384   0.297932
    20  H    0.147847   0.005569
    21  H   -0.380457   0.586151
    22  H    0.186648   0.018306
    23  H    0.013574   0.198631
    24  H   -0.216867   0.453088
    25  H   -0.149970   0.314841
    26  H   -0.032679   0.157878
    27  H   -0.320532   0.544102
    28  H   -0.032363   0.192349
    29  H   -0.151615   0.322616
    30  H    0.121890   0.144994
 Sum of Mulliken charges =  -1.00000   1.00000

 Dipole moment (field-independent basis, Debye):
    X=              1.4910    Y=              1.3597    Z=              1.5001  Tot=              2.5144
 Quadrupole moment (field-independent basis, Debye-Ang):
   XX=           -154.7710   YY=           -129.2730   ZZ=           -113.0562
   XY=              0.2815   XZ=              4.1920   YZ=              1.2955

 Summary of Natural Population Analysis:

                                       Natural Population
                Natural  -----------------------------------------------
    Atom  No    Charge         Core      Valence    Rydberg      Total
 -----------------------------------------------------------------------
      C    1   -0.33066      0.99963     2.32602    0.00501     3.33066
      C    2    0.34603      0.99965     1.63273    0.02158     2.65397
      O    3   -0.33120      0.99988     3.32541    0.00591     4.33120
      N    4   -0.25773      0.99964     2.74778    0.01031     3.75773
      C    5   -0.07869      0.99962     2.06910    0.00997     3.07869
      C    6   -0.19761      0.99962     2.18815    0.00984     3.19761
      C    7   -0.11834      0.99957     2.10682    0.01195     3.11834
      C    8   -0.07359      0.99960     2.06403    0.00996     3.07359
      C    9   -0.10867      0.99956     2.09699    0.01212     3.10867
      C   10   -0.19420      0.99960     2.18512    0.00948     3.19420
      C   11   -0.12447      0.99958     2.11430    0.01059     3.12447
      C   12   -0.01264      0.99956     2.00079    0.01229     3.01264
      O   13   -0.36873      0.99990     3.36258    0.00625     4.36873
      H   14    0.10962      0.00000     0.38958    0.00080     0.39038
      H   15    0.11003      0.00000     0.38859    0.00138     0.38997
      H   16    0.10932      0.00000     0.38936    0.00132     0.39068
      H   17    0.09639      0.00000     0.40052    0.00309     0.40361
      H   18    0.10208      0.00000     0.39560    0.00231     0.39792
      H   19    0.09777      0.00000     0.40044    0.00179     0.40223
      H   20    0.10864      0.00000     0.38983    0.00153     0.39136
      H   21    0.10074      0.00000     0.39711    0.00215     0.39926
      H   22    0.09490      0.00000     0.40368    0.00142     0.40510
      H   23    0.10685      0.00000     0.39181    0.00133     0.39315
      H   24    0.10795      0.00000     0.39053    0.00152     0.39205
      H   25    0.10502      0.00000     0.39397    0.00101     0.39498
      H   26    0.10156      0.00000     0.39733    0.00111     0.39844
      H   27    0.10506      0.00000     0.39363    0.00132     0.39494
      H   28    0.08728      0.00000     0.41148    0.00124     0.41272
      H   29    0.07783      0.00000     0.42009    0.00208     0.42217
      H   30    0.22944      0.00000     0.26682    0.00374     0.27056
 =======================================================================
   * Total *    0.00000     12.99542    36.84020    0.16437    50.00000

 Normal termination of Gaussian 16 at Mon Dec 14 17:11:45 2020.
