 Gaussian 16, Revision A.03,

 -----------------------------------------------------------
 # opt freq B3LYP/6-31G(d) empiricaldispersion=gd3bj scf=xqc
 -----------------------------------------------------------

 ------------------------------
 CID_86076538_JID_9869_neutraal
 ------------------------------
 Symbolic Z-matrix:
 Charge =  0 Multiplicity = 1

 SCF Done:  E(RB3LYP) =  -766.967690440     A.U. after   15 cycles
 SCF Done:  E(RB3LYP) =  -766.972574298     A.U. after   13 cycles
 SCF Done:  E(RB3LYP) =  -766.972841292     A.U. after   12 cycles
 SCF Done:  E(RB3LYP) =  -766.972826804     A.U. after   12 cycles
 SCF Done:  E(RB3LYP) =  -766.973015811     A.U. after   12 cycles
 SCF Done:  E(RB3LYP) =  -766.973013342     A.U. after    9 cycles
 SCF Done:  E(RB3LYP) =  -766.973135357     A.U. after   12 cycles
 SCF Done:  E(RB3LYP) =  -766.966509515     A.U. after   15 cycles
 SCF Done:  E(RB3LYP) =  -766.973260363     A.U. after   13 cycles
 SCF Done:  E(RB3LYP) =  -766.973816576     A.U. after   15 cycles
 SCF Done:  E(RB3LYP) =  -766.974733417     A.U. after   10 cycles
 SCF Done:  E(RB3LYP) =  -766.974734891     A.U. after    8 cycles
 SCF Done:  E(RB3LYP) =  -766.974735863     A.U. after   10 cycles
 SCF Done:  E(RB3LYP) =  -766.974737029     A.U. after   10 cycles
 SCF Done:  E(RB3LYP) =  -766.974737100     A.U. after    8 cycles
 Optimization completed.
    -- Stationary point found.
 Normal termination of Gaussian 16 at Mon Dec 14 18:56:17 2020.

 --------------------------------------------------------------------
 #N Geom=AllCheck Guess=TCheck SCRF=Check GenChk RB3LYP/6-31G(d) Freq
 --------------------------------------------------------------------

 Structure from the checkpoint file:  "JID_9869.chk"
 ------------------------------
 CID_86076538_JID_9869_neutraal
 ------------------------------
 Charge =  0 Multiplicity = 1

 SCF Done:  E(RB3LYP) =  -766.974737100     A.U. after    1 cycles

  Exact polarizability: 447.885   3.235 172.746  -0.391   3.247  82.387
 Approx polarizability: 589.016   3.176 294.917  -1.001   7.225 127.315

                      1                      2                      3
                      A                      A                      A
 Frequencies --     21.1904                24.7872                30.7980
 Red. masses --      3.6358                 4.5098                 5.1674
 Frc consts  --      0.0010                 0.0016                 0.0029
 IR Inten    --      0.0023                 1.2284                 0.5207

                      4                      5                      6
                      A                      A                      A
 Frequencies --     55.9239               102.5816               106.7105
 Red. masses --      4.5494                 3.2257                 4.4159
 Frc consts  --      0.0084                 0.0200                 0.0296
 IR Inten    --      0.0135                 0.5724                 0.1263

                      7                      8                      9
                      A                      A                      A
 Frequencies --    115.8778               160.6195               184.9517
 Red. masses --      4.5595                 2.6271                 4.5354
 Frc consts  --      0.0361                 0.0399                 0.0914
 IR Inten    --      0.1692                 3.3079                 0.6584

                     10                     11                     12
                      A                      A                      A
 Frequencies --    202.6223               220.1013               255.8557
 Red. masses --      5.9380                 5.7416                 1.6342
 Frc consts  --      0.1436                 0.1639                 0.0630
 IR Inten    --      0.0200                 0.6889                 0.1126

                     13                     14                     15
                      A                      A                      A
 Frequencies --    336.7056               397.5759               412.8502
 Red. masses --      5.8147                 5.9868                 3.0367
 Frc consts  --      0.3884                 0.5575                 0.3050
 IR Inten    --      0.0797                 1.9678                 0.0149

                     16                     17                     18
                      A                      A                      A
 Frequencies --    423.6041               440.6342               469.6833
 Red. masses --      3.9310                 6.2657                 5.0736
 Frc consts  --      0.4156                 0.7168                 0.6594
 IR Inten    --      2.1775                 0.2634                 0.0343

                     19                     20                     21
                      A                      A                      A
 Frequencies --    500.3538               535.4292               548.8881
 Red. masses --      5.5204                 2.9760                 7.1658
 Frc consts  --      0.8143                 0.5027                 1.2720
 IR Inten    --      9.2721                 5.2062                 5.1485

                     22                     23                     24
                      A                      A                      A
 Frequencies --    557.9304               584.1392               591.1014
 Red. masses --      3.7814                 2.0867                 4.6198
 Frc consts  --      0.6935                 0.4195                 0.9510
 IR Inten    --      0.2039                 3.0841                14.2301

                     25                     26                     27
                      A                      A                      A
 Frequencies --    638.4151               663.4280               704.3066
 Red. masses --      6.5544                 8.1343                 2.0333
 Frc consts  --      1.5739                 2.1094                 0.5943
 IR Inten    --      0.0271                 1.5504                18.9174

                     28                     29                     30
                      A                      A                      A
 Frequencies --    722.3495               760.4357               769.9715
 Red. masses --      4.5456                 4.2419                 1.7549
 Frc consts  --      1.3974                 1.4452                 0.6130
 IR Inten    --      0.2082                 5.2637                34.4399

                     31                     32                     33
                      A                      A                      A
 Frequencies --    789.7740               821.5176               853.1787
 Red. masses --      2.6555                 1.7056                 1.2486
 Frc consts  --      0.9759                 0.6782                 0.5355
 IR Inten    --      1.2430                31.7155                 0.0012

                     34                     35                     36
                      A                      A                      A
 Frequencies --    863.1894               883.6600               888.3743
 Red. masses --      4.7118                 2.0796                 1.9469
 Frc consts  --      2.0685                 0.9567                 0.9053
 IR Inten    --      1.9920                18.7354                 1.6428

                     37                     38                     39
                      A                      A                      A
 Frequencies --    920.8855               929.1813               941.5969
 Red. masses --      1.4025                 2.5339                 1.4735
 Frc consts  --      0.7007                 1.2890                 0.7697
 IR Inten    --      3.1169                 2.2208                 1.1558

                     40                     41                     42
                      A                      A                      A
 Frequencies --    953.1114               964.3077               969.0429
 Red. masses --      1.3989                 1.3403                 1.3080
 Frc consts  --      0.7487                 0.7343                 0.7237
 IR Inten    --      3.8428                 0.0005                 0.6850

                     43                     44                     45
                      A                      A                      A
 Frequencies --    992.6328               993.4080              1010.3302
 Red. masses --      1.2439                 1.5642                 3.5815
 Frc consts  --      0.7221                 0.9095                 2.1540
 IR Inten    --      0.1200                 0.8330                17.7256

                     46                     47                     48
                      A                      A                      A
 Frequencies --   1018.8087              1033.9001              1057.7794
 Red. masses --      6.1771                 3.0556                 2.1904
 Frc consts  --      3.7776                 1.9244                 1.4440
 IR Inten    --      0.3605                 8.2546                 3.5539

                     49                     50                     51
                      A                      A                      A
 Frequencies --   1067.2193              1110.2049              1160.3386
 Red. masses --      1.8889                 1.5761                 1.6895
 Frc consts  --      1.2675                 1.1445                 1.3402
 IR Inten    --      0.3002                 4.0038                27.3167

                     52                     53                     54
                      A                      A                      A
 Frequencies --   1166.8844              1185.8618              1193.6477
 Red. masses --      1.7889                 2.3324                 1.0952
 Frc consts  --      1.4351                 1.9325                 0.9194
 IR Inten    --     23.0977                 6.6900                 0.0148

                     55                     56                     57
                      A                      A                      A
 Frequencies --   1196.3534              1212.5444              1213.4639
 Red. masses --      1.3586                 1.2567                 1.3307
 Frc consts  --      1.1457                 1.0886                 1.1544
 IR Inten    --     11.4943                 1.4168                 0.4554

                     58                     59                     60
                      A                      A                      A
 Frequencies --   1224.2705              1263.3061              1277.3083
 Red. masses --      2.4638                 1.2593                 1.4694
 Frc consts  --      2.1758                 1.1841                 1.4125
 IR Inten    --     34.6333                18.3805                18.4623

                     61                     62                     63
                      A                      A                      A
 Frequencies --   1307.8155              1330.5238              1338.9980
 Red. masses --      2.9548                 2.8760                 1.4152
 Frc consts  --      2.9777                 2.9997                 1.4950
 IR Inten    --      0.6524                 0.0964                 2.7851

                     64                     65                     66
                      A                      A                      A
 Frequencies --   1347.0515              1362.3325              1366.0990
 Red. masses --      1.3623                 2.5527                 1.8643
 Frc consts  --      1.4564                 2.7914                 2.0499
 IR Inten    --     46.2840                 0.5415                 0.1549

                     67                     68                     69
                      A                      A                      A
 Frequencies --   1367.3891              1391.0132              1396.5090
 Red. masses --      1.3045                 1.6479                 1.5272
 Frc consts  --      1.4371                 1.8786                 1.7548
 IR Inten    --      1.5970                32.6335                68.3498

                     70                     71                     72
                      A                      A                      A
 Frequencies --   1433.9298              1466.9577              1490.2541
 Red. masses --      4.1979                 3.8436                 2.2538
 Frc consts  --      5.0855                 4.8733                 2.9490
 IR Inten    --      1.7243               371.5948                 3.6713

                     73                     74                     75
                      A                      A                      A
 Frequencies --   1520.0934              1527.1527              1540.7547
 Red. masses --      1.0909                 1.1279                 2.4251
 Frc consts  --      1.4852                 1.5498                 3.3919
 IR Inten    --      3.8711                65.8495                64.3915

                     76                     77                     78
                      A                      A                      A
 Frequencies --   1549.1735              1552.7384              1564.3537
 Red. masses --      1.1990                 1.9043                 1.4429
 Frc consts  --      1.6953                 2.7051                 2.0804
 IR Inten    --     39.5313               361.4073                 5.1089

                     79                     80                     81
                      A                      A                      A
 Frequencies --   1593.0837              1626.7364              1656.0372
 Red. masses --      4.5943                 5.1431                 5.5408
 Frc consts  --      6.8698                 8.0188                 8.9529
 IR Inten    --    313.7975                 1.5259               408.0411

                     82                     83                     84
                      A                      A                      A
 Frequencies --   1670.6289              2315.3722              2998.9710
 Red. masses --      5.8888                11.9940                 1.0697
 Frc consts  --      9.6836                37.8841                 5.6684
 IR Inten    --    247.1460               106.9313                74.9792

                     85                     86                     87
                      A                      A                      A
 Frequencies --   3029.4758              3055.3580              3064.0085
 Red. masses --      1.0735                 1.0865                 1.0691
 Frc consts  --      5.8048                 5.9759                 5.9135
 IR Inten    --     51.8654                13.1398                21.5831

                     88                     89                     90
                      A                      A                      A
 Frequencies --   3072.3279              3117.5569              3121.2530
 Red. masses --      1.0689                 1.0916                 1.0983
 Frc consts  --      5.9446                 6.2511                 6.3043
 IR Inten    --     60.5559                32.7988                37.8250

                     91                     92                     93
                      A                      A                      A
 Frequencies --   3128.7288              3175.2389              3183.8202
 Red. masses --      1.1050                 1.0909                 1.0849
 Frc consts  --      6.3730                 6.4799                 6.4797
 IR Inten    --     44.3464                20.4235                 4.2074

                     94                     95                     96
                      A                      A                      A
 Frequencies --   3192.2141              3204.6977              3204.7760
 Red. masses --      1.0885                 1.0916                 1.0895
 Frc consts  --      6.5352                 6.6054                 6.5926
 IR Inten    --      8.4806                36.0240                 2.2622

                     97                     98                     99
                      A                      A                      A
 Frequencies --   3212.5740              3216.8163              3227.4774
 Red. masses --      1.0940                 1.0972                 1.0938
 Frc consts  --      6.6521                 6.6896                 6.7133
 IR Inten    --     27.9885                14.9356                16.3527

 - Thermochemistry -
 -------------------
 Temperature   298.150 Kelvin.  Pressure   1.00000 Atm.
 Atom     1 has atomic number  6 and mass  12.00000

 Molecular mass:   248.13135 amu.
 Principal axes and moments of inertia in atomic units:
                           1         2         3
     Eigenvalues --   900.95513********************
           X            1.00000   0.00057   0.00007
           Y           -0.00057   1.00000   0.00053
           Z           -0.00007  -0.00053   1.00000
 This molecule is an asymmetric top.
 Rotational symmetry number  1.
 Warning -- assumption of classical behavior for rotation
           may cause significant error
 Rotational temperatures (Kelvin)      0.09614     0.00503     0.00480
 Rotational constants (GHZ):           2.00314     0.10488     0.10005
 Zero-point vibrational energy     763314.4 (Joules/Mol)
                                  182.43651 (Kcal/Mol)
 Warning -- explicit consideration of  24 degrees of freedom as
           vibrations may cause significant error
 Vibrational temperatures:     30.49    35.66    44.31    80.46   147.59
          (Kelvin)            153.53   166.72   231.10   266.10   291.53
                              316.68   368.12   484.44   572.02   594.00
                              609.47   633.97   675.77   719.90   770.36
                              789.73   802.74   840.45   850.46   918.54
                              954.52  1013.34  1039.30  1094.10  1107.82
                             1136.31  1181.98  1227.53  1241.94  1271.39
                             1278.17  1324.95  1336.88  1354.75  1371.31
                             1387.42  1394.24  1428.18  1429.29  1453.64
                             1465.84  1487.55  1521.91  1535.49  1597.34
                             1669.47  1678.89  1706.19  1717.39  1721.29
                             1744.58  1745.90  1761.45  1817.62  1837.76
                             1881.65  1914.33  1926.52  1938.11  1960.09
                             1965.51  1967.37  2001.36  2009.26  2063.11
                             2110.62  2144.14  2187.08  2197.23  2216.80
                             2228.92  2234.04  2250.76  2292.09  2340.51
                             2382.67  2403.66  3331.30  4314.85  4358.74
                             4395.98  4408.42  4420.39  4485.47  4490.79
                             4501.54  4568.46  4580.81  4592.88  4610.85
                             4610.96  4622.18  4628.28  4643.62

 Zero-point correction=                           0.290731 (Hartree/Particle)
 Thermal correction to Energy=                    0.306786
 Thermal correction to Enthalpy=                  0.307730
 Thermal correction to Gibbs Free Energy=         0.244198
 Sum of electronic and zero-point Energies=           -766.684006
 Sum of electronic and thermal Energies=              -766.667952
 Sum of electronic and thermal Enthalpies=            -766.667007
 Sum of electronic and thermal Free Energies=         -766.730539

                     E (Thermal)             CV                S
                      KCal/Mol        Cal/Mol-Kelvin    Cal/Mol-Kelvin
 Total                  192.511             61.946            133.713
 Electronic               0.000              0.000              0.000
 Translational            0.889              2.981             42.427
 Rotational               0.889              2.981             33.991
 Vibrational            190.733             55.984             57.295
 Vibration     1          0.593              1.985              6.519
 Vibration     2          0.593              1.985              6.208
 Vibration     3          0.594              1.984              5.777
 Vibration     4          0.596              1.975              4.596
 Vibration     5          0.605              1.947              3.405
 Vibration     6          0.606              1.944              3.328
 Vibration     7          0.608              1.936              3.168
 Vibration     8          0.622              1.891              2.542
 Vibration     9          0.631              1.860              2.278
 Vibration    10          0.639              1.836              2.109
 Vibration    11          0.647              1.810              1.958
 Vibration    12          0.666              1.753              1.690
 Vibration    13          0.717              1.602              1.228
 Vibration    14          0.764              1.475              0.972
 Vibration    15          0.777              1.442              0.917
 Vibration    16          0.786              1.419              0.880
 Vibration    17          0.801              1.382              0.825
 Vibration    18          0.827              1.317              0.738
 Vibration    19          0.856              1.249              0.657
 Vibration    20          0.890              1.172              0.575
 Vibration    21          0.904              1.142              0.546
 Vibration    22          0.913              1.122              0.528
 Vibration    23          0.941              1.066              0.478
 Vibration    24          0.949              1.051              0.465

 Optimization completed.
    -- Stationary point found.
 Normal termination of Gaussian 16 at Mon Dec 14 19:07:31 2020.

 ----------------------------------------------------------------------
 # B3LYP/6-311++G(d,p) empiricaldispersion=gd3bj scf=xqc pop=npa geom=c
 heck
 ----------------------------------------------------------------------

 --------------------------------------
 CID_86076538_JID_9869_Energie_neutraal
 --------------------------------------
 Structure from the checkpoint file:  "JID_9869.chk"
 Charge =  0 Multiplicity = 1

 SCF Done:  E(RB3LYP) =  -767.168541388     A.U. after   14 cycles
 Normal termination of Gaussian 16 at Mon Dec 14 19:11:51 2020.

 ----------------------------------------------------------------------
 # B3LYP/6-311++G(d,p) empiricaldispersion=gd3bj scf=xqc pop=npa geom=c
 heck
 ----------------------------------------------------------------------

 ------------------------------------
 CID_86076538_JID_9869_Energie_kation
 ------------------------------------
 Structure from the checkpoint file:  "JID_9869.chk"
 Charge =  1 Multiplicity = 2

 SCF Done:  E(UB3LYP) =  -766.922687189     A.U. after   22 cycles
 Normal termination of Gaussian 16 at Mon Dec 14 19:21:04 2020.
 Gaussian 16:  ES64L-G16RevA.03 25-Dec-2016

 ----------------------------------------------------------------------
 # B3LYP/6-311++G(d,p) empiricaldispersion=gd3bj scf=xqc pop=npa geom=c
 heck
 ----------------------------------------------------------------------

 -----------------------------------
 CID_86076538_JID_9869_Energie_anion
 -----------------------------------
 Structure from the checkpoint file:  "JID_9869.chk"
 Charge = -1 Multiplicity = 2

                         Standard orientation:
 ---------------------------------------------------------------------
 Center     Atomic      Atomic             Coordinates (Angstroms)
 Number     Number       Type             X           Y           Z
 ---------------------------------------------------------------------
      1          6           0        6.163443   -0.872771    0.340223
      2          6           0        6.286642    0.524267   -0.287694
      3          6           0        4.905335    1.146956   -0.035171
      4          7           0        4.011857   -0.006217   -0.018930
      5          6           0        4.725384   -1.285355    0.002368
      6          6           0        2.652906    0.078179   -0.009633
      7          7           0        1.978763   -1.092248   -0.049706
      8          6           0        0.650518   -1.054759   -0.042816
      9          6           0       -0.117142    0.123604   -0.000712
     10          6           0        0.602379    1.337514    0.045157
     11          6           0        1.982202    1.326771    0.043390
     12          6           0       -1.533658    0.081936   -0.000895
     13          6           0       -2.749647    0.041388   -0.000690
     14          6           0       -4.170562   -0.008355   -0.000053
     15          6           0       -4.930646    1.177071    0.051172
     16          6           0       -6.320888    1.122672    0.051852
     17          6           0       -6.979382   -0.108128    0.001690
     18          6           0       -6.235223   -1.289090   -0.049403
     19          6           0       -4.844644   -1.244793   -0.050473
     20          1           0        6.902880   -1.582476   -0.041142
     21          1           0        6.287378   -0.807991    1.427730
     22          1           0        6.460814    0.436755   -1.366373
     23          1           0        7.097032    1.123578    0.136449
     24          1           0        4.873945    1.684262    0.925699
     25          1           0        4.619783    1.858078   -0.820144
     26          1           0        4.659875   -1.781318   -0.976238
     27          1           0        4.277268   -1.959507    0.736291
     28          1           0        0.143732   -2.017535   -0.074422
     29          1           0        0.060731    2.277548    0.086042
     30          1           0        2.538695    2.255273    0.091107
     31          1           0       -4.415452    2.131563    0.090108
     32          1           0       -6.893958    2.044876    0.091730
     33          1           0       -8.064884   -0.146695    0.002396
     34          1           0       -6.741397   -2.249648   -0.088601
     35          1           0       -4.262883   -2.160153   -0.090065
 ---------------------------------------------------------------------

 SCF Done:  E(UB3LYP) =  -767.169954197     A.U. after   33 cycles
 SCF Done:  E(UB3LYP) =  -767.169954197     a.u. after    1 cycles

 The electronic state is 2-A.
 Alpha  occ. eigenvalues --  -14.22484 -14.18734 -10.12169 -10.11460 -10.10401
 Alpha  occ. eigenvalues --  -10.08886 -10.08860 -10.08616 -10.06706 -10.06676
 Alpha  occ. eigenvalues --  -10.06632 -10.06356 -10.05986 -10.05975 -10.05420
 Alpha  occ. eigenvalues --  -10.05392 -10.04939 -10.03537 -10.03309  -0.87264
 Alpha  occ. eigenvalues --   -0.81190  -0.74146  -0.70909  -0.69552  -0.66020
 Alpha  occ. eigenvalues --   -0.64722  -0.63927  -0.63153  -0.59415  -0.54697
 Alpha  occ. eigenvalues --   -0.52785  -0.50188  -0.49354  -0.49021  -0.47967
 Alpha  occ. eigenvalues --   -0.43911  -0.42598  -0.41164  -0.40147  -0.37955
 Alpha  occ. eigenvalues --   -0.36138  -0.34402  -0.34017  -0.33740  -0.33053
 Alpha  occ. eigenvalues --   -0.32124  -0.31426  -0.30966  -0.30934  -0.28864
 Alpha  occ. eigenvalues --   -0.28471  -0.27285  -0.26528  -0.26307  -0.26044
 Alpha  occ. eigenvalues --   -0.24872  -0.24288  -0.23382  -0.21700  -0.17837
 Alpha  occ. eigenvalues --   -0.17341  -0.15938  -0.14467  -0.13690  -0.12908
 Alpha  occ. eigenvalues --   -0.07896   0.03818
 Alpha virt. eigenvalues --    0.05163   0.07166   0.07455   0.07532   0.08163
 Alpha virt. eigenvalues --    0.08429   0.08848   0.09560   0.09801   0.09885
 Alpha virt. eigenvalues --    0.10458   0.10801   0.11051   0.11133   0.11634

  Beta  occ. eigenvalues --  -14.22422 -14.18791 -10.11969 -10.11457 -10.10402
  Beta  occ. eigenvalues --  -10.08843 -10.08811 -10.08602 -10.06678 -10.06543
  Beta  occ. eigenvalues --  -10.06472 -10.06409 -10.06021 -10.06011 -10.05320
  Beta  occ. eigenvalues --  -10.05291 -10.04697 -10.03435 -10.03223  -0.87109
  Beta  occ. eigenvalues --   -0.81116  -0.73888  -0.70785  -0.69370  -0.65727
  Beta  occ. eigenvalues --   -0.64641  -0.63710  -0.62959  -0.59194  -0.54537
  Beta  occ. eigenvalues --   -0.52669  -0.49828  -0.49236  -0.48952  -0.47784
  Beta  occ. eigenvalues --   -0.43810  -0.42459  -0.41080  -0.40026  -0.37868
  Beta  occ. eigenvalues --   -0.35905  -0.34299  -0.33978  -0.33612  -0.32856
  Beta  occ. eigenvalues --   -0.32036  -0.31345  -0.30899  -0.30883  -0.28758
  Beta  occ. eigenvalues --   -0.28127  -0.27222  -0.26476  -0.26013  -0.25592
  Beta  occ. eigenvalues --   -0.24834  -0.24160  -0.23302  -0.20947  -0.17135
  Beta  occ. eigenvalues --   -0.16804  -0.15912  -0.13922  -0.13654  -0.12094
  Beta  occ. eigenvalues --   -0.07256
  Beta virt. eigenvalues --    0.05599   0.07328   0.07415   0.07505   0.08113
  Beta virt. eigenvalues --    0.08210   0.08800   0.08805   0.09582   0.09852
  Beta virt. eigenvalues --    0.10076   0.10510   0.10902   0.11036   0.11592

 Mulliken charges and spin densities:
               1          2
     1  C   -0.295775  -0.113813
     2  C    0.153084  -0.686375
     3  C    0.000519  -0.057375
     4  N    0.112827   0.069869
     5  C   -0.057776  -0.115530
     6  C   -0.655108   0.136256
     7  N   -0.105802  -0.018651
     8  C   -0.804696   0.068353
     9  C    0.466539  -0.003704
    10  C   -0.277400   0.160576
    11  C    0.036492  -0.040286
    12  C    0.470238   0.105770
    13  C    1.034718   0.054383
    14  C    0.758254   0.041144
    15  C   -1.267286   0.065316
    16  C    0.170017  -0.002203
    17  C   -0.721346   0.180624
    18  C    0.116068  -0.006407
    19  C   -1.173684   0.075587
    20  H   -0.176140   0.338024
    21  H    0.147863  -0.024627
    22  H   -0.115709   0.267402
    23  H   -0.073968   0.226229
    24  H    0.151585  -0.008735
    25  H   -0.001479   0.144338
    26  H    0.071061   0.107948
    27  H    0.167448   0.013622
    28  H    0.148975  -0.001385
    29  H    0.110052  -0.011094
    30  H    0.105168   0.059330
    31  H    0.060667  -0.006200
    32  H    0.139906   0.001854
    33  H    0.104156  -0.015749
    34  H    0.139145   0.001877
    35  H    0.061387  -0.006371
 Sum of Mulliken charges =  -1.00000   1.00000

 Dipole moment (field-independent basis, Debye):
    X=              2.3290    Y=              1.2633    Z=              1.6276  Tot=              3.1096
 Quadrupole moment (field-independent basis, Debye-Ang):
   XX=           -233.9664   YY=           -123.0414   ZZ=           -130.0401
   XY=              4.3661   XZ=             10.5645   YZ=              0.0037

 Summary of Natural Population Analysis:

                                       Natural Population
                Natural  -----------------------------------------------
    Atom  No    Charge         Core      Valence    Rydberg      Total
 -----------------------------------------------------------------------
      C    1   -0.19570      0.99964     2.18750    0.00856     3.19570
      C    2   -0.19466      0.99964     2.18656    0.00846     3.19466
      C    3   -0.08153      0.99964     2.07109    0.01080     3.08153
      N    4   -0.24212      0.99964     2.73343    0.00906     3.74212
      C    5   -0.08094      0.99964     2.06954    0.01176     3.08094
      C    6    0.23842      0.99953     1.74879    0.01325     2.76158
      N    7   -0.27491      0.99968     2.76657    0.00866     3.77491
      C    8    0.06900      0.99957     1.91794    0.01349     2.93100
      C    9   -0.11212      0.99951     2.10273    0.00987     3.11212
      C   10   -0.02549      0.99955     2.01745    0.00849     3.02549
      C   11   -0.16822      0.99954     2.16079    0.00789     3.16822
      C   12    0.05055      0.99922     1.94522    0.00502     2.94945
      C   13   -0.01848      0.99926     2.01000    0.00921     3.01848
      C   14   -0.04345      0.99948     2.03501    0.00896     3.04345
      C   15   -0.06952      0.99954     2.06132    0.00867     3.06952
      C   16   -0.11825      0.99957     2.10923    0.00945     3.11825
      C   17   -0.07003      0.99958     2.06048    0.00997     3.07003
      C   18   -0.11819      0.99957     2.10917    0.00944     3.11819
      C   19   -0.06899      0.99954     2.06075    0.00869     3.06899
      H   20    0.10213      0.00000     0.39669    0.00118     0.39787
      H   21    0.09344      0.00000     0.40548    0.00107     0.40656
      H   22    0.09901      0.00000     0.39933    0.00165     0.40099
      H   23    0.09885      0.00000     0.40027    0.00088     0.40115
      H   24    0.08627      0.00000     0.41256    0.00117     0.41373
      H   25    0.09736      0.00000     0.40128    0.00136     0.40264
      H   26    0.09289      0.00000     0.40562    0.00149     0.40711
      H   27    0.10341      0.00000     0.39525    0.00134     0.39659
      H   28    0.08627      0.00000     0.41256    0.00118     0.41373
      H   29    0.09668      0.00000     0.40239    0.00093     0.40332
      H   30    0.10045      0.00000     0.39840    0.00115     0.39955
      H   31    0.09635      0.00000     0.40268    0.00097     0.40365
      H   32    0.09271      0.00000     0.40623    0.00105     0.40729
      H   33    0.08918      0.00000     0.40978    0.00104     0.41082
      H   34    0.09286      0.00000     0.40609    0.00105     0.40714
      H   35    0.09681      0.00000     0.40221    0.00098     0.40319
 =======================================================================
   * Total *    0.00003     18.99136    46.81040    0.19820    65.99997

 Normal termination of Gaussian 16 at Mon Dec 14 19:34:28 2020.
