 Gaussian 16, Revision A.03,

 -----------------------------------------------------------
 # opt freq B3LYP/6-31G(d) empiricaldispersion=gd3bj scf=xqc
 -----------------------------------------------------------

 ------------------------------
 CID_148620922_JID_705_neutraal
 ------------------------------
 Symbolic Z-matrix:
 Charge =  0 Multiplicity = 1

 SCF Done:  E(RB3LYP) =  -802.794051318     A.U. after   14 cycles
 SCF Done:  E(RB3LYP) =  -802.796220645     A.U. after   12 cycles
 SCF Done:  E(RB3LYP) =  -802.796427397     A.U. after   11 cycles
 SCF Done:  E(RB3LYP) =  -802.796412864     A.U. after   12 cycles
 SCF Done:  E(RB3LYP) =  -802.796594974     A.U. after   10 cycles
 SCF Done:  E(RB3LYP) =  -802.796631279     A.U. after   10 cycles
 SCF Done:  E(RB3LYP) =  -802.796673284     A.U. after   11 cycles
 SCF Done:  E(RB3LYP) =  -802.796692948     A.U. after   11 cycles
 SCF Done:  E(RB3LYP) =  -802.796705323     A.U. after   11 cycles
 SCF Done:  E(RB3LYP) =  -802.796707004     A.U. after    9 cycles
 SCF Done:  E(RB3LYP) =  -802.796707144     A.U. after    8 cycles
 SCF Done:  E(RB3LYP) =  -802.796707207     A.U. after    7 cycles
 Optimization completed.
    -- Stationary point found.
 Normal termination of Gaussian 16 at Tue Dec  8 12:43:36 2020.

 --------------------------------------------------------------------
 #N Geom=AllCheck Guess=TCheck SCRF=Check GenChk RB3LYP/6-31G(d) Freq
 --------------------------------------------------------------------

 Structure from the checkpoint file:  "JID_705.chk"
 ------------------------------
 CID_148620922_JID_705_neutraal
 ------------------------------
 Charge =  0 Multiplicity = 1

 SCF Done:  E(RB3LYP) =  -802.796707207     A.U. after    1 cycles

  Exact polarizability: 107.728  -0.935  97.499   2.462  -0.754  85.239
 Approx polarizability: 154.309  -3.863 130.663  -0.449   0.009 138.481

                      1                      2                      3
                      A                      A                      A
 Frequencies --     35.3845                78.0663               116.3535
 Red. masses --      5.2554                 5.8313                 2.3982
 Frc consts  --      0.0039                 0.0209                 0.0191
 IR Inten    --      1.0793                 3.5220                 1.3203

                      4                      5                      6
                      A                      A                      A
 Frequencies --    164.5452               189.6806               220.3800
 Red. masses --      1.9401                 3.4718                 1.3505
 Frc consts  --      0.0309                 0.0736                 0.0386
 IR Inten    --      0.2186                 0.9536                 0.2369

                      7                      8                      9
                      A                      A                      A
 Frequencies --    228.5133               250.3733               291.5148
 Red. masses --      1.0660                 1.8447                 3.5101
 Frc consts  --      0.0328                 0.0681                 0.1757
 IR Inten    --      0.1552                 1.3690                 1.5427

                     10                     11                     12
                      A                      A                      A
 Frequencies --    314.8968               344.2989               442.7412
 Red. masses --      4.7289                 3.0096                 5.1571
 Frc consts  --      0.2763                 0.2102                 0.5956
 IR Inten    --      5.3704                 2.7887                 1.3693

                     13                     14                     15
                      A                      A                      A
 Frequencies --    451.5843               548.1402               585.8194
 Red. masses --      3.6761                 4.1519                 2.5105
 Frc consts  --      0.4417                 0.7350                 0.5076
 IR Inten    --      1.0226                 5.1360                 8.4020

                     16                     17                     18
                      A                      A                      A
 Frequencies --    621.5914               649.3657               700.0270
 Red. masses --      4.1782                 1.4358                 3.0173
 Frc consts  --      0.9511                 0.3567                 0.8712
 IR Inten    --      5.3958                92.6368                31.1139

                     19                     20                     21
                      A                      A                      A
 Frequencies --    741.7505               859.1966               916.4330
 Red. masses --      4.2361                 2.7498                 1.5260
 Frc consts  --      1.3732                 1.1960                 0.7551
 IR Inten    --      6.7978                 2.3138                 0.8712

                     22                     23                     24
                      A                      A                      A
 Frequencies --    934.5471               968.5620              1010.9585
 Red. masses --      2.0555                 1.8784                 1.4341
 Frc consts  --      1.0577                 1.0382                 0.8635
 IR Inten    --      2.3261                 2.1739                 3.2669

                     25                     26                     27
                      A                      A                      A
 Frequencies --   1025.1768              1040.2175              1072.6288
 Red. masses --      1.7166                 1.5358                 1.5119
 Frc consts  --      1.0630                 0.9791                 1.0249
 IR Inten    --      3.9662                 0.1895                 0.7682

                     28                     29                     30
                      A                      A                      A
 Frequencies --   1104.8542              1109.2696              1133.6963
 Red. masses --      1.7120                 1.3770                 2.7981
 Frc consts  --      1.2313                 0.9983                 2.1189
 IR Inten    --      3.1558                 1.0176                 0.3479

                     31                     32                     33
                      A                      A                      A
 Frequencies --   1182.7024              1209.8536              1249.9173
 Red. masses --      2.0989                 2.0350                 1.4780
 Frc consts  --      1.7298                 1.7550                 1.3605
 IR Inten    --     10.2600                11.3091                50.3652

                     34                     35                     36
                      A                      A                      A
 Frequencies --   1274.8697              1287.4289              1304.0878
 Red. masses --      1.2944                 1.7659                 1.5987
 Frc consts  --      1.2395                 1.7245                 1.6019
 IR Inten    --     32.9361                79.6562                29.1034

                     37                     38                     39
                      A                      A                      A
 Frequencies --   1330.5721              1363.7803              1382.7317
 Red. masses --      1.2605                 1.4608                 1.4602
 Frc consts  --      1.3149                 1.6008                 1.6449
 IR Inten    --      7.7456                 2.2236                 0.3765

                     40                     41                     42
                      A                      A                      A
 Frequencies --   1398.7284              1438.7142              1441.0983
 Red. masses --      1.3821                 1.2312                 1.2124
 Frc consts  --      1.5932                 1.5016                 1.4835
 IR Inten    --      1.5097                 9.0952                11.2343

                     43                     44                     45
                      A                      A                      A
 Frequencies --   1446.2583              1507.3035              1520.1258
 Red. masses --      1.2497                 1.7230                 1.0673
 Frc consts  --      1.5401                 2.3064                 1.4531
 IR Inten    --      3.1676                53.5387                13.8400

                     46                     47                     48
                      A                      A                      A
 Frequencies --   1525.7600              1526.9173              1531.1106
 Red. masses --      1.0577                 1.0430                 1.0727
 Frc consts  --      1.4507                 1.4328                 1.4816
 IR Inten    --      3.6711                 4.0899                10.0308

                     49                     50                     51
                      A                      A                      A
 Frequencies --   1531.3607              1825.6121              2952.1490
 Red. masses --      1.0560                 7.3036                 1.0845
 Frc consts  --      1.4590                14.3417                 5.5686
 IR Inten    --      7.0422               535.2239                73.0317

                     52                     53                     54
                      A                      A                      A
 Frequencies --   3041.5521              3053.5413              3055.8737
 Red. masses --      1.0835                 1.0370                 1.0402
 Frc consts  --      5.9057                 5.6971                 5.7234
 IR Inten    --     11.4065                21.4444                21.3547

                     55                     56                     57
                      A                      A                      A
 Frequencies --   3065.1274              3075.9242              3076.8310
 Red. masses --      1.0837                 1.0618                 1.0845
 Frc consts  --      5.9988                 5.9192                 6.0491
 IR Inten    --      4.4478                24.7042                44.5337

                     58                     59                     60
                      A                      A                      A
 Frequencies --   3117.8899              3121.3574              3130.4759
 Red. masses --      1.1018                 1.0992                 1.1035
 Frc consts  --      6.3108                 6.3097                 6.3716
 IR Inten    --     23.9436                17.8719                 3.9132

                     61                     62                     63
                      A                      A                      A
 Frequencies --   3134.9647              3150.7358              3578.2993
 Red. masses --      1.1037                 1.1016                 1.0756
 Frc consts  --      6.3911                 6.4431                 8.1144
 IR Inten    --     31.0384                18.2687                21.3272

 - Thermochemistry -
 -------------------
 Temperature   298.150 Kelvin.  Pressure   1.00000 Atm.
 Atom     1 has atomic number  6 and mass  12.00000

 Molecular mass:   159.07179 amu.
 Principal axes and moments of inertia in atomic units:
                           1         2         3
     Eigenvalues --  1283.446571961.620652692.43352
           X            0.99989   0.01447   0.00449
           Y           -0.01439   0.99976  -0.01675
           Z           -0.00473   0.01668   0.99985
 This molecule is an asymmetric top.
 Rotational symmetry number  1.
 Warning -- assumption of classical behavior for rotation
           may cause significant error
 Rotational temperatures (Kelvin)      0.06749     0.04415     0.03217
 Rotational constants (GHZ):           1.40617     0.92003     0.67030
 Zero-point vibrational energy     520281.2 (Joules/Mol)
                                  124.35019 (Kcal/Mol)
 Warning -- explicit consideration of  15 degrees of freedom as
           vibrations may cause significant error
 Vibrational temperatures:     50.91   112.32   167.41   236.74   272.91
          (Kelvin)            317.08   328.78   360.23   419.42   453.07
                              495.37   637.01   649.73   788.65   842.86
                              894.33   934.29  1007.18  1067.21  1236.19
                             1318.54  1344.60  1393.54  1454.54  1475.00
                             1496.64  1543.27  1589.64  1595.99  1631.14
                             1701.64  1740.71  1798.35  1834.25  1852.32
                             1876.29  1914.40  1962.18  1989.44  2012.46
                             2069.99  2073.42  2080.84  2168.67  2187.12
                             2195.23  2196.89  2202.93  2203.29  2626.65
                             4247.48  4376.12  4393.36  4396.72  4410.03
                             4425.57  4426.87  4485.95  4490.94  4504.06
                             4510.51  4533.21  5148.37

 Zero-point correction=                           0.198165 (Hartree/Particle)
 Thermal correction to Energy=                    0.209222
 Thermal correction to Enthalpy=                  0.210166
 Thermal correction to Gibbs Free Energy=         0.160896
 Sum of electronic and zero-point Energies=           -802.598543
 Sum of electronic and thermal Energies=              -802.587485
 Sum of electronic and thermal Enthalpies=            -802.586541
 Sum of electronic and thermal Free Energies=         -802.635811

                     E (Thermal)             CV                S
                      KCal/Mol        Cal/Mol-Kelvin    Cal/Mol-Kelvin
 Total                  131.289             40.606            103.698
 Electronic               0.000              0.000              0.000
 Translational            0.889              2.981             41.102
 Rotational               0.889              2.981             30.295
 Vibrational            129.511             34.645             32.301
 Vibration     1          0.594              1.982              5.502
 Vibration     2          0.599              1.964              3.939
 Vibration     3          0.608              1.936              3.160
 Vibration     4          0.623              1.886              2.497
 Vibration     5          0.633              1.854              2.231
 Vibration     6          0.647              1.810              1.956
 Vibration     7          0.651              1.798              1.891
 Vibration     8          0.663              1.762              1.728
 Vibration     9          0.687              1.690              1.465
 Vibration    10          0.702              1.645              1.336
 Vibration    11          0.723              1.587              1.192
 Vibration    12          0.802              1.377              0.818
 Vibration    13          0.810              1.357              0.791
 Vibration    14          0.903              1.144              0.548
 Vibration    15          0.943              1.062              0.475

 Optimization completed.
    -- Stationary point found.
 Normal termination of Gaussian 16 at Tue Dec  8 13:08:41 2020.

 ----------------------------------------------------------------------
 # B3LYP/6-311++G(d,p) empiricaldispersion=gd3bj scf=xqc pop=npa geom=c
 heck
 ----------------------------------------------------------------------

 --------------------------------------
 CID_148620922_JID_705_Energie_neutraal
 --------------------------------------
 Structure from the checkpoint file:  "JID_705.chk"
 Charge =  0 Multiplicity = 1

 SCF Done:  E(RB3LYP) =  -802.944434171     A.U. after   14 cycles
 Normal termination of Gaussian 16 at Tue Dec  8 13:13:02 2020.

 ----------------------------------------------------------------------
 # B3LYP/6-311++G(d,p) empiricaldispersion=gd3bj scf=xqc pop=npa geom=c
 heck
 ----------------------------------------------------------------------

 ------------------------------------
 CID_148620922_JID_705_Energie_kation
 ------------------------------------
 Structure from the checkpoint file:  "JID_705.chk"
 Charge =  1 Multiplicity = 2

 SCF Done:  E(UB3LYP) =  -802.630612190     A.U. after   26 cycles
 Normal termination of Gaussian 16 at Tue Dec  8 13:25:45 2020.
 Gaussian 16:  ES64L-G16RevA.03 25-Dec-2016

 ----------------------------------------------------------------------
 # B3LYP/6-311++G(d,p) empiricaldispersion=gd3bj scf=xqc pop=npa geom=c
 heck
 ----------------------------------------------------------------------

 -----------------------------------
 CID_148620922_JID_705_Energie_anion
 -----------------------------------
 Structure from the checkpoint file:  "JID_705.chk"
 Charge = -1 Multiplicity = 2

                         Standard orientation:
 ---------------------------------------------------------------------
 Center     Atomic      Atomic             Coordinates (Angstroms)
 Number     Number       Type             X           Y           Z
 ---------------------------------------------------------------------
      1          6           0        0.473971    2.595849    0.474532
      2          6           0       -0.506702    1.428335    0.563032
      3          6           0       -1.393732    1.296398   -0.687669
      4         16           0       -2.023142   -0.444880   -0.725533
      5          6           0       -0.984789   -0.975326    0.724250
      6          6           0        0.162216    0.050969    0.762377
      7          7           0        1.168417   -0.228301   -0.245781
      8          6           0        2.505265   -0.351741   -0.011080
      9          8           0        3.342481   -0.606508   -0.856818
     10          6           0       -0.562708   -2.434366    0.615300
     11          1           0        1.064732    2.683801    1.393607
     12          1           0       -0.057741    3.542003    0.327570
     13          1           0        1.167786    2.461063   -0.361189
     14          1           0       -1.165547    1.578389    1.428695
     15          1           0       -2.233410    1.994881   -0.665682
     16          1           0       -0.816304    1.486330   -1.598185
     17          1           0       -1.585047   -0.837944    1.630038
     18          1           0        0.665013    0.008673    1.736034
     19          1           0        0.862366   -0.401432   -1.197390
     20          1           0        2.755298   -0.188533    1.057144
     21          1           0        0.038082   -2.716710    1.488344
     22          1           0       -1.437926   -3.090658    0.583333
     23          1           0        0.033075   -2.612309   -0.283232
 ---------------------------------------------------------------------

 SCF Done:  E(UB3LYP) =  -802.934633780     A.U. after   30 cycles

 The electronic state is 2-A.
 Alpha  occ. eigenvalues --  -88.73769 -18.99909 -14.24460 -10.17488 -10.12152
 Alpha  occ. eigenvalues --  -10.10891 -10.09928 -10.08408 -10.07230 -10.06082
 Alpha  occ. eigenvalues --   -7.82401  -5.78778  -5.78443  -5.77777  -0.94568
 Alpha  occ. eigenvalues --   -0.84282  -0.74374  -0.68108  -0.63643  -0.60026
 Alpha  occ. eigenvalues --   -0.55120  -0.53567  -0.49144  -0.46783  -0.41050
 Alpha  occ. eigenvalues --   -0.38219  -0.37924  -0.36450  -0.34051  -0.32672
 Alpha  occ. eigenvalues --   -0.32223  -0.31174  -0.30494  -0.29881  -0.27558
 Alpha  occ. eigenvalues --   -0.25696  -0.24868  -0.24496  -0.24134  -0.20777
 Alpha  occ. eigenvalues --   -0.17014  -0.16545  -0.12839   0.04470
 Alpha virt. eigenvalues --    0.06924   0.07839   0.08509   0.09132   0.09990
 Alpha virt. eigenvalues --    0.10239   0.11039   0.11190   0.11401   0.12030
 Alpha virt. eigenvalues --    0.13015   0.13428   0.13984   0.14361   0.14862

  Beta  occ. eigenvalues --  -88.73767 -18.99902 -14.24458 -10.17471 -10.12127
  Beta  occ. eigenvalues --  -10.10871 -10.09905 -10.08385 -10.07210 -10.06044
  Beta  occ. eigenvalues --   -7.82398  -5.78774  -5.78440  -5.77775  -0.94552
  Beta  occ. eigenvalues --   -0.84259  -0.74332  -0.68061  -0.63602  -0.59970
  Beta  occ. eigenvalues --   -0.55057  -0.53516  -0.49090  -0.46725  -0.40968
  Beta  occ. eigenvalues --   -0.38168  -0.37878  -0.36383  -0.34001  -0.32645
  Beta  occ. eigenvalues --   -0.32186  -0.31139  -0.30451  -0.29845  -0.27512
  Beta  occ. eigenvalues --   -0.25645  -0.24806  -0.24454  -0.24085  -0.20745
  Beta  occ. eigenvalues --   -0.16977  -0.16532  -0.12819
  Beta virt. eigenvalues --    0.07283   0.07677   0.08538   0.09265   0.09510
  Beta virt. eigenvalues --    0.10230   0.10822   0.11401   0.11524   0.11839
  Beta virt. eigenvalues --    0.12486   0.13170   0.13970   0.14549   0.14694

 Mulliken charges and spin densities:
               1          2
     1  C    1.197844  -1.970378
     2  C   -1.241603   1.661865
     3  C    0.375070  -0.995770
     4  S   -0.029984  -0.262276
     5  C   -0.059752   0.375754
     6  C    1.061662  -1.562631
     7  N   -0.095123   0.000318
     8  C    0.525729  -0.419751
     9  O   -0.361452   0.003120
    10  C    0.513499  -1.218144
    11  H   -0.223296   0.379140
    12  H   -0.547222   0.711257
    13  H    0.116497   0.030678
    14  H   -0.601994   0.820266
    15  H   -0.319370   0.553585
    16  H    0.103255   0.083896
    17  H   -0.644628   0.919977
    18  H   -0.738942   0.997776
    19  H    0.310222  -0.006233
    20  H   -0.249689   0.355349
    21  H   -0.096128   0.251593
    22  H   -0.049461   0.206920
    23  H    0.054866   0.083689
 Sum of Mulliken charges =  -1.00000   1.00000

 Dipole moment (field-independent basis, Debye):
    X=              0.0027    Y=             -2.9226    Z=             -5.7584  Tot=              6.4576
 Quadrupole moment (field-independent basis, Debye-Ang):
   XX=           -123.5688   YY=           -114.3680   ZZ=           -113.0253
   XY=              6.8828   XZ=              6.1012   YZ=             -4.7274

 Summary of Natural Population Analysis:

                                       Natural Population
                Natural  -----------------------------------------------
    Atom  No    Charge         Core      Valence    Rydberg      Total
 -----------------------------------------------------------------------
      C    1   -0.28473      0.99964     2.27800    0.00708     3.28473
      C    2   -0.12247      0.99957     2.10905    0.01384     3.12247
      C    3   -0.23917      0.99957     2.22962    0.00998     3.23917
      S    4    0.06735      4.99964     2.91738    0.01563     7.93265
      C    5   -0.15910      0.99956     2.14458    0.01497     3.15910
      C    6   -0.01754      0.99952     1.99924    0.01877     3.01754
      N    7   -0.32348      0.99968     2.81371    0.01009     3.82348
      C    8    0.27746      0.99973     1.70101    0.02180     2.72254
      O    9   -0.31835      0.99988     3.31241    0.00606     4.31835
      C   10   -0.28979      0.99963     2.28277    0.00740     3.28979
      H   11    0.10593      0.00000     0.39264    0.00143     0.39407
      H   12    0.10476      0.00000     0.39383    0.00141     0.39524
      H   13    0.09785      0.00000     0.40090    0.00126     0.40215
      H   14    0.11101      0.00000     0.38205    0.00693     0.38899
      H   15    0.11005      0.00000     0.38835    0.00160     0.38995
      H   16    0.09517      0.00000     0.40316    0.00167     0.40483
      H   17    0.10941      0.00000     0.38718    0.00341     0.39059
      H   18    0.11490      0.00000     0.37883    0.00626     0.38510
      H   19    0.19732      0.00000     0.30046    0.00222     0.30268
      H   20    0.05361      0.00000     0.44468    0.00171     0.44639
      H   21    0.10631      0.00000     0.39260    0.00109     0.39369
      H   22    0.10241      0.00000     0.39675    0.00084     0.39759
      H   23    0.10109      0.00000     0.39783    0.00108     0.39891
 =======================================================================
   * Total *    0.00000     13.99642    28.84705    0.15654    43.00000

 Normal termination of Gaussian 16 at Tue Dec  8 13:36:09 2020.
