 Gaussian 16, Revision A.03,

 -----------------------------------------------------------
 # opt freq B3LYP/6-31G(d) empiricaldispersion=gd3bj scf=xqc
 -----------------------------------------------------------

 -------------------------------
 CID_116633680_JID_2493_neutraal
 -------------------------------
 Symbolic Z-matrix:
 Charge =  0 Multiplicity = 1

 SCF Done:  E(RB3LYP) =  -1274.93412013     A.U. after   15 cycles
 SCF Done:  E(RB3LYP) =  -1274.93935262     A.U. after   12 cycles
 SCF Done:  E(RB3LYP) =  -1274.94017936     A.U. after   12 cycles
 SCF Done:  E(RB3LYP) =  -1274.94043589     A.U. after   12 cycles
 SCF Done:  E(RB3LYP) =  -1274.94056397     A.U. after   12 cycles
 SCF Done:  E(RB3LYP) =  -1274.94068118     A.U. after   11 cycles
 SCF Done:  E(RB3LYP) =  -1274.94085730     A.U. after   12 cycles
 SCF Done:  E(RB3LYP) =  -1274.94089011     A.U. after   10 cycles
 SCF Done:  E(RB3LYP) =  -1274.94090819     A.U. after   11 cycles
 SCF Done:  E(RB3LYP) =  -1274.94091015     A.U. after    8 cycles
 SCF Done:  E(RB3LYP) =  -1274.94091049     A.U. after    8 cycles
 SCF Done:  E(RB3LYP) =  -1274.94091095     A.U. after    8 cycles
 SCF Done:  E(RB3LYP) =  -1274.94091131     A.U. after    7 cycles
 SCF Done:  E(RB3LYP) =  -1274.94091138     A.U. after    7 cycles
 Optimization completed.
    -- Stationary point found.
 Normal termination of Gaussian 16 at Wed Dec  9 17:28:47 2020.

 --------------------------------------------------------------------
 #N Geom=AllCheck Guess=TCheck SCRF=Check GenChk RB3LYP/6-31G(d) Freq
 --------------------------------------------------------------------

 Structure from the checkpoint file:  "JID_2493.chk"
 -------------------------------
 CID_116633680_JID_2493_neutraal
 -------------------------------
 Charge =  0 Multiplicity = 1

 SCF Done:  E(RB3LYP) =  -1274.94091138     A.U. after    1 cycles

  Exact polarizability: 139.924  -1.043 117.672  -9.033   0.505  89.823
 Approx polarizability: 207.012  -3.089 208.648 -22.442   9.723 141.075

                      1                      2                      3
                      A                      A                      A
 Frequencies --     33.7991                66.1354                82.2720
 Red. masses --      5.5424                 5.1393                 4.7766
 Frc consts  --      0.0037                 0.0132                 0.0190
 IR Inten    --      2.1532                 4.0877                 0.4539

                      4                      5                      6
                      A                      A                      A
 Frequencies --    123.8199               160.7997               172.4542
 Red. masses --      1.0755                 2.5599                 1.1645
 Frc consts  --      0.0097                 0.0390                 0.0204
 IR Inten    --      0.3012                 1.7860                 1.0903

                      7                      8                      9
                      A                      A                      A
 Frequencies --    204.6298               224.0188               239.7422
 Red. masses --      4.6586                 2.9146                 3.4356
 Frc consts  --      0.1149                 0.0862                 0.1163
 IR Inten    --      2.4087                 9.0331                 0.0644

                     10                     11                     12
                      A                      A                      A
 Frequencies --    246.7053               270.3803               291.7088
 Red. masses --      1.1699                 5.0001                 4.5903
 Frc consts  --      0.0420                 0.2154                 0.2301
 IR Inten    --      0.8795                 0.4096                 2.2014

                     13                     14                     15
                      A                      A                      A
 Frequencies --    337.9609               353.2643               424.3491
 Red. masses --      4.0295                 3.2404                 5.3171
 Frc consts  --      0.2712                 0.2383                 0.5641
 IR Inten    --      1.4107                 3.6924                27.2525

                     16                     17                     18
                      A                      A                      A
 Frequencies --    427.0854               502.3774               561.0921
 Red. masses --      5.1982                 6.1430                 7.0178
 Frc consts  --      0.5586                 0.9135                 1.3017
 IR Inten    --     11.8245                25.0928                 6.2101

                     19                     20                     21
                      A                      A                      A
 Frequencies --    570.3407               627.2322               645.3322
 Red. masses --      5.4853                 4.4392                 4.3755
 Frc consts  --      1.0513                 1.0290                 1.0736
 IR Inten    --      8.3454                 1.3004                 7.8399

                     22                     23                     24
                      A                      A                      A
 Frequencies --    675.6131               745.2512               755.0452
 Red. masses --      6.3593                 3.0554                 1.4211
 Frc consts  --      1.7102                 0.9998                 0.4773
 IR Inten    --      2.2040                29.1099                20.4605

                     25                     26                     27
                      A                      A                      A
 Frequencies --    776.3376               866.8744               974.5264
 Red. masses --      3.7950                 4.1258                 2.7753
 Frc consts  --      1.3476                 1.8267                 1.5529
 IR Inten    --     37.8101                 5.8580                 2.4606

                     28                     29                     30
                      A                      A                      A
 Frequencies --    990.4697              1000.8674              1017.4176
 Red. masses --      1.3809                 1.4541                 3.3845
 Frc consts  --      0.7981                 0.8582                 2.0641
 IR Inten    --     14.0018                29.6952                14.8667

                     31                     32                     33
                      A                      A                      A
 Frequencies --   1024.6080              1073.2280              1079.5640
 Red. masses --      1.4874                 1.8140                 1.5045
 Frc consts  --      0.9200                 1.2310                 1.0331
 IR Inten    --      2.9598                16.8341                 3.0403

                     34                     35                     36
                      A                      A                      A
 Frequencies --   1105.0694              1117.2587              1156.9808
 Red. masses --      5.9074                 1.6319                 2.3613
 Frc consts  --      4.2504                 1.2002                 1.8623
 IR Inten    --    152.3906                 5.8038                57.5635

                     37                     38                     39
                      A                      A                      A
 Frequencies --   1193.2036              1279.2617              1312.3367
 Red. masses --      1.6832                 1.3333                12.0317
 Frc consts  --      1.4119                 1.2856                12.2086
 IR Inten    --     20.4513                 5.7531               178.5817

                     40                     41                     42
                      A                      A                      A
 Frequencies --   1352.6709              1371.9055              1378.4263
 Red. masses --      4.3617                 1.2216                 1.7652
 Frc consts  --      4.7021                 1.3547                 1.9762
 IR Inten    --      9.4573                23.2670                 9.5946

                     43                     44                     45
                      A                      A                      A
 Frequencies --   1432.0247              1442.3254              1477.5761
 Red. masses --      1.2253                 1.2639                 1.0523
 Frc consts  --      1.4804                 1.5491                 1.3536
 IR Inten    --      7.0403                 0.5466                 2.7550

                     46                     47                     48
                      A                      A                      A
 Frequencies --   1491.1835              1506.5086              1510.8242
 Red. masses --      1.0528                 1.0441                 1.2961
 Frc consts  --      1.3793                 1.3961                 1.7430
 IR Inten    --      8.2165                 6.6412                 5.7581

                     49                     50                     51
                      A                      A                      A
 Frequencies --   1524.6639              1526.3520              1536.1718
 Red. masses --      1.2731                 1.3503                 1.6685
 Frc consts  --      1.7437                 1.8534                 2.3198
 IR Inten    --      5.9389                14.1397                 8.9926

                     52                     53                     54
                      A                      A                      A
 Frequencies --   1587.7170              3055.1411              3075.9791
 Red. masses --      4.4746                 1.0368                 1.0349
 Frc consts  --      6.6459                 5.7017                 5.7693
 IR Inten    --     34.1200                22.9303                11.3865

                     55                     56                     57
                      A                      A                      A
 Frequencies --   3090.9699              3092.8474              3111.0335
 Red. masses --      1.0289                 1.0854                 1.1014
 Frc consts  --      5.7917                 6.1172                 6.2806
 IR Inten    --      2.1454                 1.3783                14.1371

                     58                     59                     60
                      A                      A                      A
 Frequencies --   3142.8379              3146.6196              3167.8004
 Red. masses --      1.1018                 1.1015                 1.1047
 Frc consts  --      6.4118                 6.4257                 6.5316
 IR Inten    --     13.8664                 8.5672                 5.1972

                     61                     62                     63
                      A                      A                      A
 Frequencies --   3192.7423              3202.5768              3277.2163
 Red. masses --      1.1064                 1.1080                 1.0947
 Frc consts  --      6.6449                 6.6957                 6.9274
 IR Inten    --      0.9662                 1.8439                 1.2890

 - Thermochemistry -
 -------------------
 Temperature   298.150 Kelvin.  Pressure   1.00000 Atm.
 Atom     1 has atomic number  6 and mass  12.00000

 Molecular mass:   205.02312 amu.
 Principal axes and moments of inertia in atomic units:
                           1         2         3
     Eigenvalues --  1413.837343712.485904003.59403
           X            0.99981   0.00915  -0.01706
           Y           -0.00988   0.99902  -0.04317
           Z            0.01665   0.04333   0.99892
 This molecule is an asymmetric top.
 Rotational symmetry number  1.
 Warning -- assumption of classical behavior for rotation
           may cause significant error
 Rotational temperatures (Kelvin)      0.06126     0.02333     0.02163
 Rotational constants (GHZ):           1.27648     0.48613     0.45078
 Zero-point vibrational energy     468957.2 (Joules/Mol)
                                  112.08347 (Kcal/Mol)
 Warning -- explicit consideration of  19 degrees of freedom as
           vibrations may cause significant error
 Vibrational temperatures:     48.63    95.15   118.37   178.15   231.35
          (Kelvin)            248.12   294.42   322.31   344.94   354.95
                              389.02   419.70   486.25   508.27   610.54
                              614.48   722.81   807.29   820.59   902.45
                              928.49   972.06  1072.25  1086.34  1116.98
                             1247.24  1402.13  1425.06  1440.02  1463.84
                             1474.18  1544.14  1553.25  1589.95  1607.49
                             1664.64  1716.75  1840.57  1888.16  1946.19
                             1973.87  1983.25  2060.36  2075.18  2125.90
                             2145.48  2167.53  2173.74  2193.65  2196.08
                             2210.21  2284.37  4395.67  4425.65  4447.22
                             4449.92  4476.08  4521.84  4527.28  4557.76
                             4593.64  4607.79  4715.18

 Zero-point correction=                           0.178616 (Hartree/Particle)
 Thermal correction to Energy=                    0.191813
 Thermal correction to Enthalpy=                  0.192757
 Thermal correction to Gibbs Free Energy=         0.138378
 Sum of electronic and zero-point Energies=          -1274.762295
 Sum of electronic and thermal Energies=             -1274.749098
 Sum of electronic and thermal Enthalpies=           -1274.748154
 Sum of electronic and thermal Free Energies=        -1274.802533

                     E (Thermal)             CV                S
                      KCal/Mol        Cal/Mol-Kelvin    Cal/Mol-Kelvin
 Total                  120.365             47.997            114.450
 Electronic               0.000              0.000              0.000
 Translational            0.889              2.981             41.858
 Rotational               0.889              2.981             31.419
 Vibrational            118.587             42.035             41.173
 Vibration     1          0.594              1.983              5.593
 Vibration     2          0.598              1.970              4.265
 Vibration     3          0.600              1.961              3.836
 Vibration     4          0.610              1.929              3.040
 Vibration     5          0.622              1.890              2.540
 Vibration     6          0.626              1.876              2.409
 Vibration     7          0.640              1.833              2.091
 Vibration     8          0.649              1.804              1.926
 Vibration     9          0.657              1.780              1.805
 Vibration    10          0.661              1.768              1.754
 Vibration    11          0.674              1.728              1.594
 Vibration    12          0.687              1.689              1.464
 Vibration    13          0.718              1.600              1.222
 Vibration    14          0.729              1.569              1.152
 Vibration    15          0.786              1.417              0.877
 Vibration    16          0.789              1.411              0.868
 Vibration    17          0.858              1.245              0.652
 Vibration    18          0.917              1.115              0.522
 Vibration    19          0.926              1.095              0.504

                           ! Non-Optimized Parameters !
 Normal termination of Gaussian 16 at Wed Dec  9 17:34:38 2020.

 ----------------------------------------------------------------------
 # B3LYP/6-311++G(d,p) empiricaldispersion=gd3bj scf=xqc pop=npa geom=c
 heck
 ----------------------------------------------------------------------

 ---------------------------------------
 CID_116633680_JID_2493_Energie_neutraal
 ---------------------------------------
 Structure from the checkpoint file:  "JID_2493.chk"
 Charge =  0 Multiplicity = 1

 SCF Done:  E(RB3LYP) =  -1275.13039131     A.U. after   16 cycles
 Normal termination of Gaussian 16 at Wed Dec  9 17:37:39 2020.

 ----------------------------------------------------------------------
 # B3LYP/6-311++G(d,p) empiricaldispersion=gd3bj scf=xqc pop=npa geom=c
 heck
 ----------------------------------------------------------------------

 -------------------------------------
 CID_116633680_JID_2493_Energie_kation
 -------------------------------------
 Structure from the checkpoint file:  "JID_2493.chk"
 Charge =  1 Multiplicity = 2

 SCF Done:  E(UB3LYP) =  -1274.80945631     A.U. after   25 cycles
 Normal termination of Gaussian 16 at Wed Dec  9 17:45:20 2020.
 Gaussian 16:  ES64L-G16RevA.03 25-Dec-2016

 ----------------------------------------------------------------------
 # B3LYP/6-311++G(d,p) empiricaldispersion=gd3bj scf=xqc pop=npa geom=c
 heck
 ----------------------------------------------------------------------

 ------------------------------------
 CID_116633680_JID_2493_Energie_anion
 ------------------------------------
 Structure from the checkpoint file:  "JID_2493.chk"
 Charge = -1 Multiplicity = 2

                         Standard orientation:
 ---------------------------------------------------------------------
 Center     Atomic      Atomic             Coordinates (Angstroms)
 Number     Number       Type             X           Y           Z
 ---------------------------------------------------------------------
      1          6           0        3.420257    1.752626   -0.349884
      2          6           0        2.512312    0.583408   -0.117916
      3          6           0        2.817958   -0.733621   -0.334965
      4         16           0        1.470465   -1.746590    0.058586
      5          6           0        0.575654   -0.314284    0.510865
      6          7           0        1.236135    0.802781    0.362094
      7          6           0       -0.843865   -0.379090    0.971839
      8          6           0       -1.146395    0.534948    2.159477
      9         16           0       -1.989529   -0.029353   -0.448052
     10          8           0       -1.529354   -0.840008   -1.586384
     11          8           0       -3.361130   -0.171874    0.068402
     12          6           0       -1.701546    1.709103   -0.843764
     13          1           0        2.984778    2.442127   -1.082159
     14          1           0        3.571834    2.315782    0.577878
     15          1           0        4.395554    1.426681   -0.721081
     16          1           0        3.746497   -1.150998   -0.698260
     17          1           0       -1.123848   -1.412579    1.202219
     18          1           0       -0.810677    1.554652    1.957777
     19          1           0       -2.217338    0.531441    2.376153
     20          1           0       -0.606545    0.173420    3.039835
     21          1           0       -2.120894    2.330454   -0.051758
     22          1           0       -0.628234    1.873686   -0.946485
     23          1           0       -2.221436    1.887475   -1.787374
 ---------------------------------------------------------------------

 SCF Done:  E(UB3LYP) =  -1275.12750902     A.U. after   32 cycles

 The electronic state is 2-A.
 Alpha  occ. eigenvalues --  -88.91372 -88.73737 -18.99155 -18.99090 -14.16805
 Alpha  occ. eigenvalues --  -10.10181 -10.08639 -10.08384 -10.07775 -10.06411
 Alpha  occ. eigenvalues --  -10.05748 -10.05545  -7.98016  -7.82419  -5.94262
 Alpha  occ. eigenvalues --   -5.94141  -5.94091  -5.78697  -5.78354  -5.78042
 Alpha  occ. eigenvalues --   -0.98283  -0.88064  -0.82829  -0.70362  -0.66107
 Alpha  occ. eigenvalues --   -0.64984  -0.63681  -0.57104  -0.53963  -0.48162
 Alpha  occ. eigenvalues --   -0.45495  -0.40938  -0.38194  -0.37264  -0.35600
 Alpha  occ. eigenvalues --   -0.34773  -0.32614  -0.31428  -0.31245  -0.31187
 Alpha  occ. eigenvalues --   -0.30236  -0.29194  -0.27936  -0.26635  -0.25659
 Alpha  occ. eigenvalues --   -0.24872  -0.22779  -0.21222  -0.20094  -0.18407
 Alpha  occ. eigenvalues --   -0.17375  -0.14981  -0.14425  -0.11091   0.04877
 Alpha virt. eigenvalues --    0.07431   0.07914   0.08908   0.09480   0.10453
 Alpha virt. eigenvalues --    0.11001   0.11617   0.11868   0.12534   0.13962
 Alpha virt. eigenvalues --    0.14356   0.14629   0.14953   0.15402   0.15728

  Beta  occ. eigenvalues --  -88.91321 -88.73679 -18.99102 -18.99082 -14.16621
  Beta  occ. eigenvalues --  -10.10172 -10.08325 -10.08258 -10.07828 -10.06383
  Beta  occ. eigenvalues --  -10.05538 -10.05522  -7.97956  -7.82366  -5.94224
  Beta  occ. eigenvalues --   -5.94095  -5.94007  -5.78669  -5.78331  -5.77848
  Beta  occ. eigenvalues --   -0.98173  -0.87974  -0.82431  -0.70127  -0.65748
  Beta  occ. eigenvalues --   -0.64825  -0.63607  -0.56874  -0.53729  -0.47829
  Beta  occ. eigenvalues --   -0.45257  -0.40697  -0.38010  -0.37118  -0.35505
  Beta  occ. eigenvalues --   -0.34681  -0.32481  -0.31307  -0.31134  -0.31048
  Beta  occ. eigenvalues --   -0.30112  -0.29088  -0.27861  -0.26097  -0.25549
  Beta  occ. eigenvalues --   -0.24373  -0.22534  -0.21096  -0.20047  -0.18335
  Beta  occ. eigenvalues --   -0.17101  -0.14186  -0.13867  -0.09936
  Beta virt. eigenvalues --    0.07418   0.08215   0.09043   0.09573   0.10249
  Beta virt. eigenvalues --    0.10727   0.11122   0.11878   0.11976   0.12718
  Beta virt. eigenvalues --    0.14099   0.14400   0.14628   0.15118   0.15632

 Mulliken charges and spin densities:
               1          2
     1  C    0.796624  -1.450409
     2  C   -0.981590   0.406073
     3  C    0.258249   0.208774
     4  S   -0.361911  -0.075679
     5  C   -0.256086   0.448027
     6  N    0.046901   0.160273
     7  C   -0.194717   0.346496
     8  C   -0.139739  -0.545343
     9  S    0.007749   0.329623
    10  O   -0.222153   0.009401
    11  O   -0.192644   0.010647
    12  C    0.199043  -0.827899
    13  H   -0.094094   0.236906
    14  H   -0.033335   0.179816
    15  H   -0.084611   0.213396
    16  H   -0.058859   0.262003
    17  H    0.277429  -0.018975
    18  H    0.050898   0.120302
    19  H    0.100357   0.074055
    20  H    0.112601   0.032864
    21  H   -0.169353   0.354682
    22  H    0.014283   0.240142
    23  H   -0.075042   0.284826
 Sum of Mulliken charges =  -1.00000   1.00000

 Dipole moment (field-independent basis, Debye):
    X=              0.5465    Y=             -1.3599    Z=              2.0598  Tot=              2.5280
 Quadrupole moment (field-independent basis, Debye-Ang):
   XX=           -138.6721   YY=           -114.1274   ZZ=           -105.9707
   XY=             -3.3332   XZ=             -4.0743   YZ=             -2.9550

 Summary of Natural Population Analysis:

                                       Natural Population
                Natural  -----------------------------------------------
    Atom  No    Charge         Core      Valence    Rydberg      Total
 -----------------------------------------------------------------------
      C    1   -0.28932      0.99963     2.28467    0.00503     3.28932
      C    2    0.04663      0.99950     1.93892    0.01495     2.95337
      C    3   -0.18017      0.99946     2.17075    0.00997     3.18017
      S    4    0.20804      4.99941     2.77239    0.02016     7.79196
      C    5    0.07692      0.99956     1.90342    0.02010     2.92308
      N    6   -0.24194      0.99962     2.73020    0.01211     3.74194
      C    7   -0.21129      0.99949     2.19456    0.01723     3.21129
      C    8   -0.29077      0.99964     2.28397    0.00715     3.29077
      S    9    1.02940      4.99928     1.87872    0.09259     6.97060
      O   10   -0.46864      0.99991     3.46302    0.00571     4.46864
      O   11   -0.47685      0.99991     3.47107    0.00587     4.47685
      C   12   -0.39811      0.99961     2.39042    0.00808     3.39811
      H   13    0.10244      0.00000     0.39592    0.00163     0.39756
      H   14    0.10111      0.00000     0.39713    0.00175     0.39889
      H   15    0.09806      0.00000     0.40099    0.00094     0.40194
      H   16    0.10300      0.00000     0.39590    0.00111     0.39700
      H   17    0.11541      0.00000     0.38354    0.00105     0.38459
      H   18    0.10907      0.00000     0.38955    0.00139     0.39093
      H   19    0.10637      0.00000     0.39267    0.00096     0.39363
      H   20    0.10370      0.00000     0.39542    0.00089     0.39630
      H   21    0.11205      0.00000     0.38669    0.00126     0.38795
      H   22    0.12971      0.00000     0.36849    0.00181     0.37029
      H   23    0.11518      0.00000     0.38335    0.00148     0.38482
 =======================================================================
   * Total *    0.00000     19.99502    33.77176    0.23322    54.00000

 Normal termination of Gaussian 16 at Wed Dec  9 17:53:49 2020.
