 Gaussian 16, Revision A.03,

 -----------------------------------------------------------
 # opt freq B3LYP/6-31G(d) empiricaldispersion=gd3bj scf=xqc
 -----------------------------------------------------------

 ------------------------------
 CID_64000048_JID_7653_neutraal
 ------------------------------
 Symbolic Z-matrix:
 Charge =  0 Multiplicity = 1

 SCF Done:  E(RB3LYP) =  -783.492400835     A.U. after   15 cycles
 SCF Done:  E(RB3LYP) =  -783.497607040     A.U. after   12 cycles
 SCF Done:  E(RB3LYP) =  -783.498277523     A.U. after   12 cycles
 SCF Done:  E(RB3LYP) =  -783.498743409     A.U. after   12 cycles
 SCF Done:  E(RB3LYP) =  -783.498845028     A.U. after   11 cycles
 SCF Done:  E(RB3LYP) =  -783.498953600     A.U. after   11 cycles
 SCF Done:  E(RB3LYP) =  -783.499034227     A.U. after   11 cycles
 SCF Done:  E(RB3LYP) =  -783.499091392     A.U. after   12 cycles
 SCF Done:  E(RB3LYP) =  -783.499116148     A.U. after   10 cycles
 SCF Done:  E(RB3LYP) =  -783.499135500     A.U. after   11 cycles
 SCF Done:  E(RB3LYP) =  -783.499199404     A.U. after    9 cycles
 SCF Done:  E(RB3LYP) =  -783.499199659     A.U. after   10 cycles
 SCF Done:  E(RB3LYP) =  -783.499199778     A.U. after    8 cycles
 SCF Done:  E(RB3LYP) =  -783.499199858     A.U. after    8 cycles
 SCF Done:  E(RB3LYP) =  -783.499199892     A.U. after    8 cycles
 Optimization completed.
    -- Stationary point found.
 Normal termination of Gaussian 16 at Mon Dec 14 13:32:08 2020.

 --------------------------------------------------------------------
 #N Geom=AllCheck Guess=TCheck SCRF=Check GenChk RB3LYP/6-31G(d) Freq
 --------------------------------------------------------------------

 Structure from the checkpoint file:  "JID_7653.chk"
 ------------------------------
 CID_64000048_JID_7653_neutraal
 ------------------------------
 Charge =  0 Multiplicity = 1

 SCF Done:  E(RB3LYP) =  -783.499199892     A.U. after    1 cycles

  Exact polarizability: 218.216  -0.198 156.038   6.603   2.339  95.123
 Approx polarizability: 293.579   1.359 247.746  11.530   2.387 139.801

                      1                      2                      3
                      A                      A                      A
 Frequencies --     10.9117                30.3533                37.1994
 Red. masses --      4.3695                 4.3988                 3.7247
 Frc consts  --      0.0003                 0.0024                 0.0030
 IR Inten    --      3.2195                 0.6521                 1.1240

                      4                      5                      6
                      A                      A                      A
 Frequencies --     57.8527                79.0007               103.5605
 Red. masses --      4.7890                 4.0719                 3.6531
 Frc consts  --      0.0094                 0.0150                 0.0231
 IR Inten    --      1.1259                 0.0771                 0.5161

                      7                      8                      9
                      A                      A                      A
 Frequencies --    135.2139               155.3127               194.7612
 Red. masses --      4.0449                 3.7474                 4.8453
 Frc consts  --      0.0436                 0.0533                 0.1083
 IR Inten    --      1.2389                 3.8312                 1.9420

                     10                     11                     12
                      A                      A                      A
 Frequencies --    213.3961               233.6041               240.4065
 Red. masses --      1.7843                 1.0278                 1.5563
 Frc consts  --      0.0479                 0.0330                 0.0530
 IR Inten    --      2.0102                 0.7269                 1.6802

                     13                     14                     15
                      A                      A                      A
 Frequencies --    257.9726               270.6153               276.2821
 Red. masses --      2.1007                 1.2797                 1.3087
 Frc consts  --      0.0824                 0.0552                 0.0589
 IR Inten    --     36.6067                33.4593                31.5173

                     16                     17                     18
                      A                      A                      A
 Frequencies --    301.4611               315.9247               355.3881
 Red. masses --      2.8692                 2.9962                 1.7419
 Frc consts  --      0.1536                 0.1762                 0.1296
 IR Inten    --     15.3179                 5.1945                32.6671

                     19                     20                     21
                      A                      A                      A
 Frequencies --    368.4816               379.4057               401.6928
 Red. masses --      1.3875                 4.7534                 2.2889
 Frc consts  --      0.1110                 0.4031                 0.2176
 IR Inten    --     58.8268                 4.2722                 1.5538

                     22                     23                     24
                      A                      A                      A
 Frequencies --    423.8361               433.2314               453.0677
 Red. masses --      3.0102                 3.3274                 2.8201
 Frc consts  --      0.3186                 0.3680                 0.3411
 IR Inten    --      6.4347                 7.4978                 8.2877

                     25                     26                     27
                      A                      A                      A
 Frequencies --    474.2741               521.2325               559.0146
 Red. masses --      2.8029                 3.0895                 2.6781
 Frc consts  --      0.3715                 0.4945                 0.4931
 IR Inten    --      5.3200                 2.8126                 8.3146

                     28                     29                     30
                      A                      A                      A
 Frequencies --    579.1010               606.1410               630.0272
 Red. masses --      5.2306                 3.4516                 1.7519
 Frc consts  --      1.0335                 0.7472                 0.4097
 IR Inten    --     12.8898                 3.9641                65.2861

                     31                     32                     33
                      A                      A                      A
 Frequencies --    636.8558               726.2981               747.3115
 Red. masses --      3.9921                 4.1095                 5.3231
 Frc consts  --      0.9540                 1.2772                 1.7515
 IR Inten    --     28.7475                19.4209                 0.8133

                     34                     35                     36
                      A                      A                      A
 Frequencies --    770.3603               788.6548               797.9801
 Red. masses --      3.9386                 3.0696                 1.3962
 Frc consts  --      1.3771                 1.1249                 0.5238
 IR Inten    --      6.4749                22.7075                37.9664

                     37                     38                     39
                      A                      A                      A
 Frequencies --    831.6198               877.8735               916.8701
 Red. masses --      1.5481                 2.4569                 1.8911
 Frc consts  --      0.6308                 1.1156                 0.9367
 IR Inten    --     16.2514                30.1588                14.7915

                     40                     41                     42
                      A                      A                      A
 Frequencies --    923.4091               933.9939               945.1418
 Red. masses --      1.6494                 1.8269                 1.8483
 Frc consts  --      0.8286                 0.9390                 0.9728
 IR Inten    --      6.4751                16.4382                 9.1621

                     43                     44                     45
                      A                      A                      A
 Frequencies --    963.0378               966.6415              1006.6996
 Red. masses --      2.6645                 1.3460                 1.5178
 Frc consts  --      1.4560                 0.7410                 0.9063
 IR Inten    --     24.0427                 0.0997                 1.2215

                     46                     47                     48
                      A                      A                      A
 Frequencies --   1015.7248              1038.9201              1074.6078
 Red. masses --      6.7182                 1.4981                 2.2104
 Frc consts  --      4.0837                 0.9527                 1.5039
 IR Inten    --     32.5913                13.7229                10.2843

                     49                     50                     51
                      A                      A                      A
 Frequencies --   1118.4045              1120.3404              1136.2420
 Red. masses --      2.7403                 1.8278                 1.5468
 Frc consts  --      2.0195                 1.3517                 1.1766
 IR Inten    --     32.0939                 3.7051                 3.4862

                     52                     53                     54
                      A                      A                      A
 Frequencies --   1163.7935              1182.7187              1203.0926
 Red. masses --      1.4767                 1.7993                 2.4337
 Frc consts  --      1.1784                 1.4829                 2.0754
 IR Inten    --     39.0476                 7.3503                19.9048

                     55                     56                     57
                      A                      A                      A
 Frequencies --   1225.0260              1225.9269              1305.2423
 Red. masses --      2.6994                 2.2628                 2.8753
 Frc consts  --      2.3868                 2.0037                 2.8861
 IR Inten    --     11.2937                68.8070                15.0795

                     58                     59                     60
                      A                      A                      A
 Frequencies --   1316.1969              1335.5075              1346.8563
 Red. masses --      1.5969                 1.3187                 1.4700
 Frc consts  --      1.6299                 1.3857                 1.5711
 IR Inten    --      2.0048                54.4919                75.1729

                     61                     62                     63
                      A                      A                      A
 Frequencies --   1371.6727              1380.1076              1390.9694
 Red. masses --      2.1880                 1.5989                 1.7489
 Frc consts  --      2.4255                 1.7944                 1.9937
 IR Inten    --     28.3596                61.9995               168.1538

                     64                     65                     66
                      A                      A                      A
 Frequencies --   1416.3870              1422.5290              1426.2011
 Red. masses --      1.4667                 1.5372                 1.3294
 Frc consts  --      1.7336                 1.8327                 1.5932
 IR Inten    --      6.5687                75.7110                10.2555

                     67                     68                     69
                      A                      A                      A
 Frequencies --   1435.1885              1445.6621              1483.9014
 Red. masses --      1.3623                 1.2543                 2.0248
 Frc consts  --      1.6532                 1.5445                 2.6268
 IR Inten    --     11.7635                25.9494                53.9715

                     70                     71                     72
                      A                      A                      A
 Frequencies --   1498.3853              1506.4529              1513.7532
 Red. masses --      1.3006                 1.2223                 1.1297
 Frc consts  --      1.7204                 1.6343                 1.5252
 IR Inten    --     13.3179                 3.2349                19.3879

                     73                     74                     75
                      A                      A                      A
 Frequencies --   1515.4403              1517.4039              1520.0115
 Red. masses --      1.2659                 1.1945                 1.2113
 Frc consts  --      1.7129                 1.6205                 1.6488
 IR Inten    --     74.0619                 2.3364                 2.2980

                     76                     77                     78
                      A                      A                      A
 Frequencies --   1522.4774              1530.3580              1538.0313
 Red. masses --      1.3921                 1.0997                 1.0739
 Frc consts  --      1.9012                 1.5175                 1.4967
 IR Inten    --     47.2729                 5.0744                 4.7378

                     79                     80                     81
                      A                      A                      A
 Frequencies --   1541.1182              1556.2554              1628.6856
 Red. masses --      1.0821                 3.1320                 3.6117
 Frc consts  --      1.5142                 4.4693                 5.6446
 IR Inten    --     11.9786                89.3486                92.1131

                     82                     83                     84
                      A                      A                      A
 Frequencies --   1658.2048              1750.8858              3042.9925
 Red. masses --      5.7078                 7.2199                 1.0366
 Frc consts  --      9.2469                13.0405                 5.6557
 IR Inten    --    446.5864               227.9111                13.3865

                     85                     86                     87
                      A                      A                      A
 Frequencies --   3047.6312              3047.9015              3055.0102
 Red. masses --      1.0386                 1.0429                 1.0673
 Frc consts  --      5.6835                 5.7082                 5.8689
 IR Inten    --     21.0153                30.7014                77.6538

                     88                     89                     90
                      A                      A                      A
 Frequencies --   3059.9171              3102.8334              3106.4968
 Red. masses --      1.0576                 1.1019                 1.1055
 Frc consts  --      5.8345                 6.2503                 6.2854
 IR Inten    --     49.2424                 5.1641                 8.8856

                     91                     92                     93
                      A                      A                      A
 Frequencies --   3109.2912              3112.7522              3129.2802
 Red. masses --      1.1022                 1.1017                 1.1027
 Frc consts  --      6.2780                 6.2891                 6.3618
 IR Inten    --     30.7464                54.1881                27.5288

                     94                     95                     96
                      A                      A                      A
 Frequencies --   3141.6897              3152.0058              3163.2822
 Red. masses --      1.1006                 1.0989                 1.0872
 Frc consts  --      6.4004                 6.4323                 6.4094
 IR Inten    --     23.6520                21.7899                23.8172

                     97                     98                     99
                      A                      A                      A
 Frequencies --   3174.1946              3185.8911              3276.8213
 Red. masses --      1.0933                 1.0946                 1.0903
 Frc consts  --      6.4902                 6.5461                 6.8980
 IR Inten    --     12.8412                33.2232                 5.1038

                    100                    101                    102
                      A                      A                      A
 Frequencies --   3588.1893              3630.2539              3741.2500
 Red. masses --      1.0753                 1.0766                 1.0661
 Frc consts  --      8.1567                 8.3592                 8.7922
 IR Inten    --     22.5869                22.7232                10.0861

 - Thermochemistry -
 -------------------
 Temperature   298.150 Kelvin.  Pressure   1.00000 Atm.
 Atom     1 has atomic number  6 and mass  12.00000

 Molecular mass:   237.14773 amu.
 Principal axes and moments of inertia in atomic units:
                           1         2         3
     Eigenvalues --  1889.600627904.181349194.58460
           X            0.99998   0.00624   0.00280
           Y           -0.00626   0.99995   0.00810
           Z           -0.00275  -0.00812   0.99996
 This molecule is an asymmetric top.
 Rotational symmetry number  1.
 Warning -- assumption of classical behavior for rotation
           may cause significant error
 Rotational temperatures (Kelvin)      0.04584     0.01096     0.00942
 Rotational constants (GHZ):           0.95509     0.22833     0.19628
 Zero-point vibrational energy     808543.0 (Joules/Mol)
                                  193.24642 (Kcal/Mol)
 Warning -- explicit consideration of  29 degrees of freedom as
           vibrations may cause significant error
 Vibrational temperatures:     15.70    43.67    53.52    83.24   113.66
          (Kelvin)            149.00   194.54   223.46   280.22   307.03
                              336.10   345.89   371.17   389.36   397.51
                              433.74   454.55   511.32   530.16   545.88
                              577.95   609.81   623.32   651.86   682.37
                              749.94   804.30   833.20   872.10   906.47
                              916.29  1044.98  1075.21  1108.38  1134.70
                             1148.12  1196.52  1263.06  1319.17  1328.58
                             1343.81  1359.85  1385.60  1390.78  1448.42
                             1461.40  1494.77  1546.12  1609.13  1611.92
                             1634.80  1674.44  1701.67  1730.98  1762.54
                             1763.84  1877.95  1893.71  1921.50  1937.83
                             1973.53  1985.67  2001.29  2037.87  2046.70
                             2051.99  2064.92  2079.99  2135.00  2155.84
                             2167.45  2177.95  2180.38  2183.21  2186.96
                             2190.51  2201.84  2212.88  2217.33  2239.10
                             2343.32  2385.79  2519.13  4378.19  4384.86
                             4385.25  4395.48  4402.54  4464.29  4469.56
                             4473.58  4478.56  4502.34  4520.19  4535.03
                             4551.26  4566.96  4583.79  4714.62  5162.60
                             5223.13  5382.82

 Zero-point correction=                           0.307958 (Hartree/Particle)
 Thermal correction to Energy=                    0.326099
 Thermal correction to Enthalpy=                  0.327044
 Thermal correction to Gibbs Free Energy=         0.260058
 Sum of electronic and zero-point Energies=           -783.191242
 Sum of electronic and thermal Energies=              -783.173100
 Sum of electronic and thermal Enthalpies=            -783.172156
 Sum of electronic and thermal Free Energies=         -783.239142

                     E (Thermal)             CV                S
                      KCal/Mol        Cal/Mol-Kelvin    Cal/Mol-Kelvin
 Total                  204.630             68.109            140.983
 Electronic               0.000              0.000              0.000
 Translational            0.889              2.981             42.292
 Rotational               0.889              2.981             33.284
 Vibrational            202.853             62.147             65.407
 Vibration     1          0.593              1.987              7.838
 Vibration     2          0.594              1.984              5.806
 Vibration     3          0.594              1.982              5.403
 Vibration     4          0.596              1.974              4.529
 Vibration     5          0.600              1.963              3.916
 Vibration     6          0.605              1.946              3.386
 Vibration     7          0.613              1.918              2.871
 Vibration     8          0.620              1.897              2.606
 Vibration     9          0.635              1.847              2.182
 Vibration    10          0.644              1.821              2.014
 Vibration    11          0.654              1.789              1.851
 Vibration    12          0.657              1.779              1.800
 Vibration    13          0.667              1.749              1.675
 Vibration    14          0.674              1.727              1.592
 Vibration    15          0.678              1.717              1.557
 Vibration    16          0.693              1.671              1.409
 Vibration    17          0.703              1.643              1.331
 Vibration    18          0.731              1.564              1.142
 Vibration    19          0.741              1.537              1.086
 Vibration    20          0.749              1.514              1.042
 Vibration    21          0.767              1.466              0.956
 Vibration    22          0.786              1.418              0.879
 Vibration    23          0.794              1.398              0.848
 Vibration    24          0.812              1.354              0.787
 Vibration    25          0.831              1.307              0.726
 Vibration    26          0.876              1.203              0.607
 Vibration    27          0.915              1.120              0.526
 Vibration    28          0.936              1.076              0.487
 Vibration    29          0.965              1.019              0.439

                           ! Non-Optimized Parameters !
 Normal termination of Gaussian 16 at Mon Dec 14 13:44:01 2020.

 ----------------------------------------------------------------------
 # B3LYP/6-311++G(d,p) empiricaldispersion=gd3bj scf=xqc pop=npa geom=c
 heck
 ----------------------------------------------------------------------

 --------------------------------------
 CID_64000048_JID_7653_Energie_neutraal
 --------------------------------------
 Structure from the checkpoint file:  "JID_7653.chk"
 Charge =  0 Multiplicity = 1

 SCF Done:  E(RB3LYP) =  -783.732229258     A.U. after   15 cycles
 Normal termination of Gaussian 16 at Mon Dec 14 13:50:30 2020.

 ----------------------------------------------------------------------
 # B3LYP/6-311++G(d,p) empiricaldispersion=gd3bj scf=xqc pop=npa geom=c
 heck
 ----------------------------------------------------------------------

 ------------------------------------
 CID_64000048_JID_7653_Energie_kation
 ------------------------------------
 Structure from the checkpoint file:  "JID_7653.chk"
 Charge =  1 Multiplicity = 2

 SCF Done:  E(UB3LYP) =  -783.448104970     A.U. after   27 cycles
 Normal termination of Gaussian 16 at Mon Dec 14 14:07:32 2020.
 Gaussian 16:  ES64L-G16RevA.03 25-Dec-2016

 ----------------------------------------------------------------------
 # B3LYP/6-311++G(d,p) empiricaldispersion=gd3bj scf=xqc pop=npa geom=c
 heck
 ----------------------------------------------------------------------

 -----------------------------------
 CID_64000048_JID_7653_Energie_anion
 -----------------------------------
 Structure from the checkpoint file:  "JID_7653.chk"
 Charge = -1 Multiplicity = 2

                         Standard orientation:
 ---------------------------------------------------------------------
 Center     Atomic      Atomic             Coordinates (Angstroms)
 Number     Number       Type             X           Y           Z
 ---------------------------------------------------------------------
      1          6           0        5.095163    0.054223    0.903703
      2          6           0        4.515452   -0.410854   -0.431717
      3          7           0        3.453149   -1.403629   -0.282796
      4          6           0        2.097567   -1.304111   -0.145160
      5          8           0        1.415200   -2.325369   -0.046438
      6          6           0        1.424513    0.050220   -0.134838
      7          7           0        2.158510    1.159580    0.059732
      8          6           0        1.488185    2.317999    0.093047
      9          6           0        0.117028    2.433057   -0.075990
     10          6           0       -0.650347    1.268974   -0.284778
     11          6           0        0.040763    0.045163   -0.294209
     12          7           0       -2.007827    1.369074   -0.467647
     13          6           0       -2.879584    0.312759   -0.941020
     14          6           0       -3.588151   -0.496594    0.163362
     15          6           0       -4.337643    0.424462    1.130112
     16          6           0       -4.532545   -1.513633   -0.488299
     17          8           0       -2.535537   -1.178245    0.850291
     18          1           0        4.318128    0.563762    1.478677
     19          1           0        5.923801    0.753381    0.737998
     20          1           0        5.473486   -0.792762    1.487753
     21          1           0        4.124536    0.442445   -0.982814
     22          1           0        5.296303   -0.880169   -1.042849
     23          1           0        3.742898   -2.372377   -0.223487
     24          1           0        2.087505    3.211504    0.260710
     25          1           0       -0.357471    3.411087   -0.048935
     26          1           0       -0.468866   -0.904549   -0.367147
     27          1           0       -2.378152    2.306879   -0.491855
     28          1           0       -3.644435    0.766014   -1.581506
     29          1           0       -2.304469   -0.382446   -1.562280
     30          1           0       -5.121264    0.994265    0.616471
     31          1           0       -4.821390   -0.162383    1.920727
     32          1           0       -3.638045    1.122888    1.597254
     33          1           0       -3.975819   -2.170409   -1.164589
     34          1           0       -5.005617   -2.138936    0.278450
     35          1           0       -5.331659   -1.020622   -1.053781
     36          1           0       -2.926003   -1.683822    1.580081
 ---------------------------------------------------------------------

 SCF Done:  E(UB3LYP) =  -783.727498841     A.U. after   33 cycles
 SCF Done:  E(UB3LYP) =  -783.727498841     a.u. after    1 cycles

 The electronic state is 2-A.
 Alpha  occ. eigenvalues --  -19.01764 -18.96679 -14.22795 -14.22400 -14.18707
 Alpha  occ. eigenvalues --  -10.15422 -10.13060 -10.11586 -10.11108 -10.10270
 Alpha  occ. eigenvalues --  -10.09399 -10.09183 -10.06959 -10.06525 -10.06133
 Alpha  occ. eigenvalues --  -10.05915 -10.04977  -0.92526  -0.92116  -0.84176
 Alpha  occ. eigenvalues --   -0.82239  -0.80962  -0.69956  -0.66607  -0.66081
 Alpha  occ. eigenvalues --   -0.65253  -0.59729  -0.59086  -0.55446  -0.53594
 Alpha  occ. eigenvalues --   -0.51074  -0.48338  -0.47243  -0.42791  -0.41173
 Alpha  occ. eigenvalues --   -0.39604  -0.38899  -0.37631  -0.36744  -0.35453
 Alpha  occ. eigenvalues --   -0.34207  -0.33656  -0.33334  -0.32307  -0.31787
 Alpha  occ. eigenvalues --   -0.31341  -0.30704  -0.29776  -0.29229  -0.28731
 Alpha  occ. eigenvalues --   -0.28065  -0.27508  -0.26527  -0.25986  -0.25859
 Alpha  occ. eigenvalues --   -0.24732  -0.23545  -0.21154  -0.17739  -0.16174
 Alpha  occ. eigenvalues --   -0.15045  -0.14786  -0.13725  -0.11026   0.03943
 Alpha virt. eigenvalues --    0.05565   0.06383   0.06840   0.07955   0.08382
 Alpha virt. eigenvalues --    0.08714   0.09126   0.09736   0.09797   0.10243
 Alpha virt. eigenvalues --    0.11041   0.11457   0.11684   0.12017   0.12585

  Beta  occ. eigenvalues --  -19.01738 -18.96597 -14.22777 -14.22373 -14.18677
  Beta  occ. eigenvalues --  -10.15352 -10.13058 -10.11584 -10.11109 -10.10248
  Beta  occ. eigenvalues --  -10.09403 -10.09090 -10.06952 -10.06498 -10.06041
  Beta  occ. eigenvalues --  -10.05879 -10.04919  -0.92470  -0.91966  -0.84103
  Beta  occ. eigenvalues --   -0.82151  -0.80897  -0.69893  -0.66509  -0.66013
  Beta  occ. eigenvalues --   -0.65111  -0.59667  -0.59023  -0.55282  -0.53488
  Beta  occ. eigenvalues --   -0.51021  -0.48258  -0.47172  -0.42711  -0.41113
  Beta  occ. eigenvalues --   -0.39571  -0.38851  -0.37527  -0.36706  -0.35376
  Beta  occ. eigenvalues --   -0.34151  -0.33552  -0.33233  -0.32248  -0.31737
  Beta  occ. eigenvalues --   -0.31286  -0.30541  -0.29607  -0.29182  -0.28669
  Beta  occ. eigenvalues --   -0.28009  -0.27362  -0.26399  -0.25959  -0.25763
  Beta  occ. eigenvalues --   -0.24660  -0.23475  -0.21006  -0.17704  -0.16071
  Beta  occ. eigenvalues --   -0.14680  -0.14486  -0.13567  -0.10753
  Beta virt. eigenvalues --    0.06072   0.06558   0.07070   0.07618   0.08314
  Beta virt. eigenvalues --    0.08764   0.08861   0.09222   0.09892   0.10171
  Beta virt. eigenvalues --    0.10543   0.11131   0.11704   0.11900   0.11971

 Mulliken charges and spin densities:
               1          2
     1  C   -0.313222  -0.109582
     2  C   -0.178656  -0.027426
     3  N   -0.269962   0.018762
     4  C    0.182739  -0.264337
     5  O   -0.366236   0.031081
     6  C   -0.120236  -0.151734
     7  N   -0.017994   0.035968
     8  C   -0.083144  -0.063155
     9  C   -0.033019  -0.008956
    10  C    0.196822  -0.121516
    11  C   -0.030487  -0.076803
    12  N   -0.185562   0.152203
    13  C    0.610906  -1.176723
    14  C   -1.600110   1.712788
    15  C    1.026562  -1.578540
    16  C    0.405948  -0.858036
    17  O   -0.121259  -0.002126
    18  H    0.149138   0.041253
    19  H    0.065540   0.033994
    20  H    0.064275   0.043337
    21  H    0.172962   0.023940
    22  H    0.102522   0.028506
    23  H    0.306064  -0.008282
    24  H    0.095487   0.041877
    25  H   -0.256844   0.384279
    26  H    0.244539   0.016479
    27  H   -0.149778   0.457986
    28  H   -0.717170   0.911039
    29  H    0.322121  -0.133250
    30  H   -0.373656   0.530071
    31  H   -0.262203   0.388980
    32  H    0.166410   0.009212
    33  H    0.082207   0.070990
    34  H   -0.164855   0.303216
    35  H   -0.071589   0.220214
    36  H    0.121741   0.124295
 Sum of Mulliken charges =  -1.00000   1.00000

 Dipole moment (field-independent basis, Debye):
    X=              7.3896    Y=             -1.0650    Z=              0.0833  Tot=              7.4664
 Quadrupole moment (field-independent basis, Debye-Ang):
   XX=           -181.6132   YY=           -143.3547   ZZ=           -126.5029
   XY=              8.4441   XZ=             -4.8464   YZ=              5.9111

 Summary of Natural Population Analysis:

                                       Natural Population
                Natural  -----------------------------------------------
    Atom  No    Charge         Core      Valence    Rydberg      Total
 -----------------------------------------------------------------------
      C    1   -0.29134      0.99966     2.28679    0.00488     3.29134
      C    2   -0.08988      0.99963     2.08010    0.01015     3.08988
      N    3   -0.31370      0.99967     2.80476    0.00928     3.81370
      C    4    0.33814      0.99963     1.64002    0.02222     2.66186
      O    5   -0.32261      0.99988     3.31726    0.00546     4.32261
      C    6    0.07679      0.99948     1.91093    0.01279     2.92321
      N    7   -0.26606      0.99969     2.75484    0.01153     3.76606
      C    8    0.02473      0.99959     1.96210    0.01358     2.97527
      C    9   -0.12827      0.99952     2.11924    0.00950     3.12827
      C   10    0.10989      0.99949     1.87909    0.01154     2.89011
      C   11   -0.11786      0.99948     2.11114    0.00724     3.11786
      N   12   -0.30480      0.99966     2.79236    0.01277     3.80480
      C   13   -0.09008      0.99955     2.07666    0.01387     3.09008
      C   14    0.12014      0.99955     1.86583    0.01449     2.87986
      C   15   -0.29983      0.99961     2.29311    0.00711     3.29983
      C   16   -0.29711      0.99962     2.29066    0.00683     3.29711
      O   17   -0.37359      0.99989     3.36667    0.00704     4.37359
      H   18    0.11140      0.00000     0.38716    0.00144     0.38860
      H   19    0.09223      0.00000     0.40646    0.00131     0.40777
      H   20    0.09053      0.00000     0.40794    0.00153     0.40947
      H   21    0.11146      0.00000     0.38714    0.00140     0.38854
      H   22    0.08405      0.00000     0.41454    0.00141     0.41595
      H   23    0.18615      0.00000     0.31067    0.00318     0.31385
      H   24    0.08452      0.00000     0.41451    0.00097     0.41548
      H   25    0.09994      0.00000     0.39902    0.00104     0.40006
      H   26    0.12750      0.00000     0.37085    0.00165     0.37250
      H   27    0.19188      0.00000     0.30388    0.00424     0.30812
      H   28    0.10277      0.00000     0.39554    0.00169     0.39723
      H   29    0.10041      0.00000     0.39810    0.00149     0.39959
      H   30    0.10422      0.00000     0.39374    0.00204     0.39578
      H   31    0.09762      0.00000     0.40123    0.00114     0.40238
      H   32    0.10745      0.00000     0.39128    0.00127     0.39255
      H   33    0.10219      0.00000     0.39687    0.00094     0.39781
      H   34    0.09948      0.00000     0.39953    0.00099     0.40052
      H   35    0.10331      0.00000     0.39555    0.00114     0.39669
      H   36    0.22836      0.00000     0.26902    0.00262     0.27164
 =======================================================================
   * Total *   -0.00000     16.99361    46.79463    0.21176    64.00000

 Normal termination of Gaussian 16 at Mon Dec 14 14:28:34 2020.
