 Gaussian 16, Revision A.03,

 -----------------------------------------------------------
 # opt freq B3LYP/6-31G(d) empiricaldispersion=gd3bj scf=xqc
 -----------------------------------------------------------

 --------------------------------
 CID_104216021_JID_10212_neutraal
 --------------------------------
 Symbolic Z-matrix:
 Charge =  0 Multiplicity = 1

 SCF Done:  E(RB3LYP) =  -1276.30477749     A.U. after   15 cycles
 SCF Done:  E(RB3LYP) =  -1276.31078733     A.U. after   13 cycles
 SCF Done:  E(RB3LYP) =  -1276.30600297     A.U. after   14 cycles
 SCF Done:  E(RB3LYP) =  -1276.30501217     A.U. after   14 cycles
 SCF Done:  E(RB3LYP) =  -1276.30227191     A.U. after   14 cycles
 SCF Done:  E(RB3LYP) =  -1276.31124184     A.U. after   11 cycles
 SCF Done:  E(RB3LYP) =  -1276.31372943     A.U. after   12 cycles
 SCF Done:  E(RB3LYP) =  -1276.31336222     A.U. after   12 cycles
 SCF Done:  E(RB3LYP) =  -1276.31411041     A.U. after   12 cycles
 SCF Done:  E(RB3LYP) =  -1276.31378447     A.U. after   12 cycles
 SCF Done:  E(RB3LYP) =  -1276.31447024     A.U. after    8 cycles
 SCF Done:  E(RB3LYP) =  -1276.31447050     A.U. after    8 cycles
 SCF Done:  E(RB3LYP) =  -1276.31447063     A.U. after    7 cycles
 SCF Done:  E(RB3LYP) =  -1276.31447069     A.U. after    7 cycles
 Optimization completed.
    -- Stationary point found.
 Normal termination of Gaussian 16 at Mon Dec 14 18:00:46 2020.

 --------------------------------------------------------------------
 #N Geom=AllCheck Guess=TCheck SCRF=Check GenChk RB3LYP/6-31G(d) Freq
 --------------------------------------------------------------------

 Structure from the checkpoint file:  "JID_10212.chk"
 --------------------------------
 CID_104216021_JID_10212_neutraal
 --------------------------------
 Charge =  0 Multiplicity = 1

 SCF Done:  E(RB3LYP) =  -1276.31447069     A.U. after    1 cycles

  Exact polarizability: 211.634  -9.933 171.604  -5.009   9.168 167.687
 Approx polarizability: 278.404 -22.080 253.553  -9.996  28.380 298.358

                      1                      2                      3
                      A                      A                      A
 Frequencies --     16.1013                23.1089                34.6734
 Red. masses --      5.4525                 4.5212                 4.6776
 Frc consts  --      0.0008                 0.0014                 0.0033
 IR Inten    --      0.2908                 1.5204                 0.0484

                      4                      5                      6
                      A                      A                      A
 Frequencies --     42.7468                74.1402                89.2675
 Red. masses --      4.6736                 6.7436                 3.3604
 Frc consts  --      0.0050                 0.0218                 0.0158
 IR Inten    --      0.5648                 0.7856                 0.5631

                      7                      8                      9
                      A                      A                      A
 Frequencies --    102.2212               121.6373               127.6252
 Red. masses --      3.4613                 2.3397                 2.8575
 Frc consts  --      0.0213                 0.0204                 0.0274
 IR Inten    --      0.6713                 1.1765                 0.5017

                     10                     11                     12
                      A                      A                      A
 Frequencies --    136.6993               161.5077               172.5840
 Red. masses --      1.1198                 3.7491                 3.3597
 Frc consts  --      0.0123                 0.0576                 0.0590
 IR Inten    --      0.0369                 2.0831                 0.2128

                     13                     14                     15
                      A                      A                      A
 Frequencies --    178.6681               198.7726               205.8837
 Red. masses --      2.8667                 3.4934                 1.2108
 Frc consts  --      0.0539                 0.0813                 0.0302
 IR Inten    --      1.0746                 0.3031                 0.2245

                     16                     17                     18
                      A                      A                      A
 Frequencies --    227.4417               238.3686               254.0545
 Red. masses --      2.6325                 1.9332                 1.1650
 Frc consts  --      0.0802                 0.0647                 0.0443
 IR Inten    --      3.9055                 0.5478                 1.2157

                     19                     20                     21
                      A                      A                      A
 Frequencies --    280.3481               287.9526               306.2997
 Red. masses --      3.3122                 2.1801                 1.6974
 Frc consts  --      0.1534                 0.1065                 0.0938
 IR Inten    --      2.7187                11.4563                55.0213

                     22                     23                     24
                      A                      A                      A
 Frequencies --    314.0739               321.6267               334.6515
 Red. masses --      1.9624                 3.3278                 2.9491
 Frc consts  --      0.1141                 0.2028                 0.1946
 IR Inten    --     26.1991                 2.3736                 7.5021

                     25                     26                     27
                      A                      A                      A
 Frequencies --    352.4873               355.0206               371.2122
 Red. masses --      3.6761                 3.4306                 3.0948
 Frc consts  --      0.2691                 0.2548                 0.2513
 IR Inten    --      7.2491                 9.2248                32.2678

                     28                     29                     30
                      A                      A                      A
 Frequencies --    383.2978               415.2608               438.7807
 Red. masses --      4.5369                 3.9398                 3.5809
 Frc consts  --      0.3927                 0.4003                 0.4062
 IR Inten    --      9.6496                 7.6013                 1.5489

                     31                     32                     33
                      A                      A                      A
 Frequencies --    458.8493               511.5413               547.6839
 Red. masses --      1.1795                 4.9787                 3.5819
 Frc consts  --      0.1463                 0.7676                 0.6330
 IR Inten    --     59.7174                 2.1164                 5.2383

                     34                     35                     36
                      A                      A                      A
 Frequencies --    556.1685               584.3376               612.4196
 Red. masses --      4.5987                 2.2853                 1.6208
 Frc consts  --      0.8381                 0.4597                 0.3582
 IR Inten    --      1.7755                12.1075               124.4023

                     37                     38                     39
                      A                      A                      A
 Frequencies --    631.9464               641.6455               670.5563
 Red. masses --      2.8256                 2.1014                 6.3169
 Frc consts  --      0.6648                 0.5097                 1.6735
 IR Inten    --     42.5149                49.8191                 3.6885

                     40                     41                     42
                      A                      A                      A
 Frequencies --    673.6246               724.3267               731.1645
 Red. masses --      4.6395                 2.5729                 2.5931
 Frc consts  --      1.2404                 0.7953                 0.8168
 IR Inten    --      6.1360                36.3844                55.0717

                     43                     44                     45
                      A                      A                      A
 Frequencies --    741.2157               753.3063               777.7913
 Red. masses --      3.7264                 4.9227                 3.2008
 Frc consts  --      1.2062                 1.6459                 1.1409
 IR Inten    --     28.1984                 1.4805                 4.2302

                     46                     47                     48
                      A                      A                      A
 Frequencies --    792.3823               807.0917               865.4196
 Red. masses --      2.0568                 1.3598                 1.3484
 Frc consts  --      0.7609                 0.5219                 0.5950
 IR Inten    --     23.4391                13.2172                10.1189

                     49                     50                     51
                      A                      A                      A
 Frequencies --    911.2109               939.9191               953.1621
 Red. masses --      2.3918                 3.7527                 2.0616
 Frc consts  --      1.1701                 1.9533                 1.1035
 IR Inten    --     30.4610                33.1598                 6.6805

                     52                     53                     54
                      A                      A                      A
 Frequencies --    965.0456               996.9945              1014.9310
 Red. masses --      2.0497                 3.1025                 1.6344
 Frc consts  --      1.1247                 1.8170                 0.9920
 IR Inten    --     12.3171                25.7148                 1.6611

                     55                     56                     57
                      A                      A                      A
 Frequencies --   1042.2982              1054.5499              1062.7954
 Red. masses --      1.9298                 2.5617                 2.6919
 Frc consts  --      1.2352                 1.6785                 1.7915
 IR Inten    --      8.0072                44.4482                 2.6829

                     58                     59                     60
                      A                      A                      A
 Frequencies --   1074.1613              1090.0079              1097.6278
 Red. masses --      1.3998                 1.7905                 1.7243
 Frc consts  --      0.9516                 1.2533                 1.2240
 IR Inten    --      0.9365                41.5794                 6.6908

                     61                     62                     63
                      A                      A                      A
 Frequencies --   1112.1329              1130.5339              1177.9723
 Red. masses --      2.7823                 1.7191                 2.0382
 Frc consts  --      2.0275                 1.2945                 1.6664
 IR Inten    --     38.4875                28.7435                16.8752

                     64                     65                     66
                      A                      A                      A
 Frequencies --   1182.7742              1187.9569              1193.5033
 Red. masses --      2.2217                 3.0418                 3.6839
 Frc consts  --      1.8312                 2.5292                 3.0918
 IR Inten    --      4.1351                 2.4347                 1.8287

                     67                     68                     69
                      A                      A                      A
 Frequencies --   1196.3765              1233.3973              1324.9082
 Red. masses --      2.7151                 2.5062                 1.9819
 Frc consts  --      2.2896                 2.2463                 2.0498
 IR Inten    --      9.4193                27.1200                 1.4241

                     70                     71                     72
                      A                      A                      A
 Frequencies --   1329.9386              1336.2359              1347.9142
 Red. masses --      1.2658                 1.3307                 1.5594
 Frc consts  --      1.3192                 1.3999                 1.6693
 IR Inten    --     16.9220                56.7223                65.6182

                     73                     74                     75
                      A                      A                      A
 Frequencies --   1363.5613              1365.5204              1387.8294
 Red. masses --      1.7850                 1.5016                 1.5912
 Frc consts  --      1.9554                 1.6497                 1.8057
 IR Inten    --    137.3341                90.5140                10.7320

                     76                     77                     78
                      A                      A                      A
 Frequencies --   1395.3106              1405.5181              1426.3457
 Red. masses --      1.3572                 1.3808                 1.2419
 Frc consts  --      1.5568                 1.6071                 1.4887
 IR Inten    --     14.8655                 3.3117                17.5970

                     79                     80                     81
                      A                      A                      A
 Frequencies --   1433.1287              1438.6523              1443.4915
 Red. masses --      1.3341                 1.8778                 1.2276
 Frc consts  --      1.6144                 2.2899                 1.5070
 IR Inten    --     14.1014                15.4273                 6.1293

                     82                     83                     84
                      A                      A                      A
 Frequencies --   1446.4411              1500.0636              1507.7889
 Red. masses --      1.2419                 1.4027                 1.0420
 Frc consts  --      1.5308                 1.8596                 1.3957
 IR Inten    --      0.3661                49.8601                 8.3163

                     85                     86                     87
                      A                      A                      A
 Frequencies --   1510.5700              1515.2683              1516.7107
 Red. masses --      1.0704                 1.3323                 1.0810
 Frc consts  --      1.4391                 1.8023                 1.4652
 IR Inten    --      5.5301                11.9821                11.2449

                     88                     89                     90
                      A                      A                      A
 Frequencies --   1520.1755              1528.5244              1530.5561
 Red. masses --      1.0478                 1.1689                 1.0489
 Frc consts  --      1.4266                 1.6091                 1.4477
 IR Inten    --      5.3782                15.3308                 6.0212

                     91                     92                     93
                      A                      A                      A
 Frequencies --   1533.9612              1546.2534              1547.9745
 Red. masses --      1.0526                 3.1767                 1.0515
 Frc consts  --      1.4593                 4.4749                 1.4845
 IR Inten    --      4.8666                 8.0707                 6.6124

                     94                     95                     96
                      A                      A                      A
 Frequencies --   1557.4244              1603.9173              1654.5418
 Red. masses --      1.0537                 5.3863                 1.2282
 Frc consts  --      1.5059                 8.1641                 1.9810
 IR Inten    --      3.3852                14.6661                65.2682

                     97                     98                     99
                      A                      A                      A
 Frequencies --   1726.6159              1770.7214              3038.8911
 Red. masses --      5.2566                 8.3237                 1.0708
 Frc consts  --      9.2331                15.3767                 5.8262
 IR Inten    --    106.3495               391.9365                29.6133

                    100                    101                    102
                      A                      A                      A
 Frequencies --   3048.1088              3059.2180              3060.9320
 Red. masses --      1.0360                 1.0387                 1.0390
 Frc consts  --      5.6712                 5.7275                 5.7355
 IR Inten    --     35.2526                19.3391                49.3242

                    103                    104                    105
                      A                      A                      A
 Frequencies --   3064.2945              3081.4699              3101.9214
 Red. masses --      1.0357                 1.0705                 1.1020
 Frc consts  --      5.7297                 5.9888                 6.2475
 IR Inten    --     16.8282                 5.0197                14.3359

                    106                    107                    108
                      A                      A                      A
 Frequencies --   3108.9826              3113.2523              3128.0280
 Red. masses --      1.0999                 1.0954                 1.0990
 Frc consts  --      6.2640                 6.2551                 6.3353
 IR Inten    --     25.1004                29.7688                10.9995

                    109                    110                    111
                      A                      A                      A
 Frequencies --   3129.5590              3130.3166              3131.1955
 Red. masses --      1.1013                 1.0930                 1.1009
 Frc consts  --      6.3549                 6.3102                 6.3594
 IR Inten    --     11.3049                27.1456                 9.0369

                    112                    113                    114
                      A                      A                      A
 Frequencies --   3144.2842              3161.9374              3169.9494
 Red. masses --      1.0990                 1.0895                 1.0989
 Frc consts  --      6.4014                 6.4177                 6.5058
 IR Inten    --     28.7959                10.4113                 8.7318

                    115                    116                    117
                      A                      A                      A
 Frequencies --   3170.3182              3223.2643              3564.6435
 Red. masses --      1.0992                 1.0935                 1.0493
 Frc consts  --      6.5095                 6.6935                 7.8560
 IR Inten    --      6.3540                15.2600                24.3744

                    118                    119                    120
                      A                      A                      A
 Frequencies --   3578.5491              3686.5912              3783.6947
 Red. masses --      1.0752                 1.0958                 1.0679
 Frc consts  --      8.1121                 8.7743                 9.0079
 IR Inten    --     25.5568                42.4881                77.4466

 - Thermochemistry -
 -------------------
 Temperature   298.150 Kelvin.  Pressure   1.00000 Atm.
 Atom     1 has atomic number  6 and mass  12.00000

 Molecular mass:   298.14635 amu.
 Principal axes and moments of inertia in atomic units:
                           1         2         3
     Eigenvalues --  3782.344549328.552679956.81687
           X            0.99991   0.01292   0.00275
           Y           -0.01303   0.99892   0.04457
           Z           -0.00217  -0.04460   0.99900
 This molecule is an asymmetric top.
 Rotational symmetry number  1.
 Warning -- assumption of classical behavior for rotation
           may cause significant error
 Rotational temperatures (Kelvin)      0.02290     0.00928     0.00870
 Rotational constants (GHZ):           0.47715     0.19346     0.18126
 Zero-point vibrational energy     929860.9 (Joules/Mol)
                                  222.24209 (Kcal/Mol)
 Warning -- explicit consideration of  36 degrees of freedom as
           vibrations may cause significant error
 Vibrational temperatures:     23.17    33.25    49.89    61.50   106.67
          (Kelvin)            128.44   147.07   175.01   183.62   196.68
                              232.37   248.31   257.06   285.99   296.22
                              327.24   342.96   365.53   403.36   414.30
                              440.70   451.88   462.75   481.49   507.15
                              510.80   534.09   551.48   597.47   631.31
                              660.18   735.99   787.99   800.20   840.73
                              881.14   909.23   923.18   964.78   969.20
                             1042.14  1051.98  1066.44  1083.84  1119.07
                             1140.06  1161.22  1245.15  1311.03  1352.33
                             1371.39  1388.49  1434.45  1460.26  1499.63
                             1517.26  1529.13  1545.48  1568.28  1579.24
                             1600.11  1626.59  1694.84  1701.75  1709.20
                             1717.19  1721.32  1774.58  1906.25  1913.49
                             1922.55  1939.35  1961.86  1964.68  1996.78
                             2007.54  2022.23  2052.19  2061.95  2069.90
                             2076.86  2081.11  2158.26  2169.37  2173.37
                             2180.13  2182.21  2187.19  2199.21  2202.13
                             2207.03  2224.71  2227.19  2240.79  2307.68
                             2380.52  2484.22  2547.67  4372.29  4385.55
                             4401.53  4404.00  4408.84  4433.55  4462.97
                             4473.13  4479.28  4500.53  4502.74  4503.83
                             4505.09  4523.92  4549.32  4560.85  4561.38
                             4637.56  5128.73  5148.73  5304.18  5443.89

 Zero-point correction=                           0.354165 (Hartree/Particle)
 Thermal correction to Energy=                    0.376832
 Thermal correction to Enthalpy=                  0.377777
 Thermal correction to Gibbs Free Energy=         0.301175
 Sum of electronic and zero-point Energies=          -1275.960305
 Sum of electronic and thermal Energies=             -1275.937638
 Sum of electronic and thermal Enthalpies=           -1275.936694
 Sum of electronic and thermal Free Energies=        -1276.013296

                     E (Thermal)             CV                S
                      KCal/Mol        Cal/Mol-Kelvin    Cal/Mol-Kelvin
 Total                  236.466             83.964            161.221
 Electronic               0.000              0.000              0.000
 Translational            0.889              2.981             42.974
 Rotational               0.889              2.981             34.218
 Vibrational            234.688             78.003             84.029
 Vibration     1          0.593              1.986              7.065
 Vibration     2          0.593              1.985              6.347
 Vibration     3          0.594              1.983              5.542
 Vibration     4          0.595              1.980              5.128
 Vibration     5          0.599              1.966              4.040
 Vibration     6          0.602              1.957              3.676
 Vibration     7          0.604              1.947              3.412
 Vibration     8          0.609              1.931              3.074
 Vibration     9          0.611              1.926              2.982
 Vibration    10          0.614              1.917              2.850
 Vibration    11          0.622              1.890              2.532
 Vibration    12          0.626              1.876              2.407
 Vibration    13          0.629              1.869              2.342
 Vibration    14          0.637              1.842              2.144
 Vibration    15          0.640              1.832              2.080
 Vibration    16          0.651              1.799              1.899
 Vibration    17          0.656              1.782              1.815
 Vibration    18          0.665              1.756              1.702
 Vibration    19          0.680              1.710              1.532
 Vibration    20          0.685              1.696              1.486
 Vibration    21          0.697              1.662              1.382
 Vibration    22          0.702              1.647              1.341
 Vibration    23          0.707              1.632              1.302
 Vibration    24          0.716              1.606              1.238
 Vibration    25          0.729              1.570              1.155
 Vibration    26          0.731              1.565              1.144
 Vibration    27          0.743              1.531              1.075
 Vibration    28          0.752              1.506              1.026
 Vibration    29          0.779              1.437              0.908
 Vibration    30          0.799              1.386              0.830
 Vibration    31          0.817              1.341              0.769
 Vibration    32          0.867              1.224              0.630
 Vibration    33          0.903              1.145              0.549
 Vibration    34          0.912              1.126              0.532
 Vibration    35          0.941              1.065              0.477
 Vibration    36          0.972              1.006              0.429

                           ! Non-Optimized Parameters !
 Normal termination of Gaussian 16 at Mon Dec 14 18:24:19 2020.

 ----------------------------------------------------------------------
 # B3LYP/6-311++G(d,p) empiricaldispersion=gd3bj scf=xqc pop=npa geom=c
 heck
 ----------------------------------------------------------------------

 ----------------------------------------
 CID_104216021_JID_10212_Energie_neutraal
 ----------------------------------------
 Structure from the checkpoint file:  "JID_10212.chk"
 Charge =  0 Multiplicity = 1

 SCF Done:  E(RB3LYP) =  -1276.60476321     A.U. after   16 cycles
 Normal termination of Gaussian 16 at Mon Dec 14 18:36:50 2020.

 ----------------------------------------------------------------------
 # B3LYP/6-311++G(d,p) empiricaldispersion=gd3bj scf=xqc pop=npa geom=c
 heck
 ----------------------------------------------------------------------

 --------------------------------------
 CID_104216021_JID_10212_Energie_kation
 --------------------------------------
 Structure from the checkpoint file:  "JID_10212.chk"
 Charge =  1 Multiplicity = 2

 SCF Done:  E(UB3LYP) =  -1276.31092891     A.U. after   33 cycles
 SCF Done:  E(UB3LYP) =  -1276.31092891     a.u. after    1 cycles
 Normal termination of Gaussian 16 at Mon Dec 14 19:13:42 2020.
 Gaussian 16:  ES64L-G16RevA.03 25-Dec-2016

 ----------------------------------------------------------------------
 # B3LYP/6-311++G(d,p) empiricaldispersion=gd3bj scf=xqc pop=npa geom=c
 heck
 ----------------------------------------------------------------------

 -------------------------------------
 CID_104216021_JID_10212_Energie_anion
 -------------------------------------
 Structure from the checkpoint file:  "JID_10212.chk"
 Charge = -1 Multiplicity = 2

                         Standard orientation:
 ---------------------------------------------------------------------
 Center     Atomic      Atomic             Coordinates (Angstroms)
 Number     Number       Type             X           Y           Z
 ---------------------------------------------------------------------
      1          6           0       -3.529656   -2.380653    1.172817
      2          6           0       -3.427107   -1.067767    0.390986
      3          6           0       -1.992791   -0.534295    0.104778
      4          6           0       -1.051439   -1.670525   -0.402216
      5          6           0       -1.512001   -2.534372   -1.588437
      6          6           0       -2.158179    0.652262   -0.841833
      7          7           0       -2.488478    1.770633   -0.290917
      8          8           0       -2.649870    2.778161   -1.295408
      9          7           0       -1.936584    0.509362   -2.196401
     10          6           0       -1.369574   -0.021966    1.435951
     11          8           0       -1.918131   -0.207473    2.514922
     12          7           0       -0.121606    0.543366    1.397287
     13          6           0        0.643303    1.126035    0.297833
     14          6           0        0.672659    2.658138    0.391663
     15          6           0        2.045665    0.562386    0.330378
     16          7           0        2.837592    0.667643    1.355895
     17          6           0        4.049348    0.059542    1.115516
     18          6           0        4.215415   -0.524416   -0.109475
     19         16           0        2.745948   -0.302928   -1.031791
     20          6           0        5.411140   -1.244826   -0.647919
     21          1           0       -3.102670   -3.230009    0.628898
     22          1           0       -4.584454   -2.611959    1.359554
     23          1           0       -3.025514   -2.290355    2.135976
     24          1           0       -3.941729   -1.174305   -0.573445
     25          1           0       -3.950933   -0.279111    0.936057
     26          1           0       -0.061024   -1.269141   -0.627454
     27          1           0       -0.907087   -2.329330    0.459903
     28          1           0       -1.280960   -2.076625   -2.556081
     29          1           0       -0.978659   -3.490685   -1.572083
     30          1           0       -2.581778   -2.759952   -1.558388
     31          1           0       -3.002145    3.515353   -0.776118
     32          1           0       -2.144045   -0.396794   -2.588096
     33          1           0       -2.297913    1.286612   -2.737961
     34          1           0        0.225930    0.772972    2.322079
     35          1           0        0.176882    0.845617   -0.644654
     36          1           0        1.142727    2.966509    1.330592
     37          1           0        1.253676    3.078763   -0.435954
     38          1           0       -0.348769    3.040833    0.345208
     39          1           0        4.808315    0.069064    1.890508
     40          1           0        5.179171   -2.284371   -0.907717
     41          1           0        5.809661   -0.760376   -1.547042
     42          1           0        6.203003   -1.255660    0.107449
 ---------------------------------------------------------------------

 SCF Done:  E(UB3LYP) =  -1276.59921540     A.U. after   33 cycles
 SCF Done:  E(UB3LYP) =  -1276.59921540     a.u. after    1 cycles

 The electronic state is 2-A.
 Alpha  occ. eigenvalues --  -88.77300 -19.06333 -18.98827 -14.24396 -14.23326
 Alpha  occ. eigenvalues --  -14.23293 -14.20573 -10.17649 -10.14682 -10.12885
 Alpha  occ. eigenvalues --  -10.12235 -10.11224 -10.10267 -10.09643 -10.09164
 Alpha  occ. eigenvalues --  -10.08361 -10.07586 -10.07246 -10.06647 -10.06245
 Alpha  occ. eigenvalues --   -7.85948  -5.82214  -5.81874  -5.81564  -0.97799
 Alpha  occ. eigenvalues --   -0.94165  -0.86233  -0.84432  -0.82210  -0.74655
 Alpha  occ. eigenvalues --   -0.71858  -0.71131  -0.68347  -0.65721  -0.64432
 Alpha  occ. eigenvalues --   -0.61797  -0.59927  -0.54952  -0.54199  -0.51179
 Alpha  occ. eigenvalues --   -0.50219  -0.47199  -0.46032  -0.45052  -0.43803
 Alpha  occ. eigenvalues --   -0.42802  -0.39392  -0.39100  -0.37710  -0.37099
 Alpha  occ. eigenvalues --   -0.35385  -0.35010  -0.34473  -0.34393  -0.34206
 Alpha  occ. eigenvalues --   -0.33051  -0.32729  -0.32205  -0.31217  -0.31107
 Alpha  occ. eigenvalues --   -0.30354  -0.29815  -0.28748  -0.28262  -0.27777
 Alpha  occ. eigenvalues --   -0.26888  -0.26475  -0.26444  -0.25426  -0.24594
 Alpha  occ. eigenvalues --   -0.24237  -0.23656  -0.22032  -0.19316  -0.17950
 Alpha  occ. eigenvalues --   -0.17678  -0.16208  -0.15478  -0.13898  -0.13449
 Alpha  occ. eigenvalues --    0.03873
 Alpha virt. eigenvalues --    0.05613   0.06038   0.06468   0.07797   0.08080
 Alpha virt. eigenvalues --    0.08417   0.09122   0.09634   0.09827   0.10295
 Alpha virt. eigenvalues --    0.10537   0.10719   0.10936   0.11229   0.11496

  Beta  occ. eigenvalues --  -88.77282 -19.06296 -18.98818 -14.24385 -14.23309
  Beta  occ. eigenvalues --  -14.23244 -14.20539 -10.17644 -10.14678 -10.12896
  Beta  occ. eigenvalues --  -10.12028 -10.11226 -10.10125 -10.09648 -10.09159
  Beta  occ. eigenvalues --  -10.08352 -10.07577 -10.07205 -10.06629 -10.06241
  Beta  occ. eigenvalues --   -7.85930  -5.82208  -5.81868  -5.81500  -0.97730
  Beta  occ. eigenvalues --   -0.94148  -0.86072  -0.84367  -0.82169  -0.74596
  Beta  occ. eigenvalues --   -0.71824  -0.70956  -0.68225  -0.65692  -0.64344
  Beta  occ. eigenvalues --   -0.61765  -0.59836  -0.54906  -0.54155  -0.51136
  Beta  occ. eigenvalues --   -0.50174  -0.47022  -0.45918  -0.44961  -0.43752
  Beta  occ. eigenvalues --   -0.42746  -0.39294  -0.39069  -0.37679  -0.37051
  Beta  occ. eigenvalues --   -0.35349  -0.34941  -0.34360  -0.34327  -0.34113
  Beta  occ. eigenvalues --   -0.32972  -0.32672  -0.32141  -0.31166  -0.31054
  Beta  occ. eigenvalues --   -0.30262  -0.29756  -0.28576  -0.28164  -0.27742
  Beta  occ. eigenvalues --   -0.26823  -0.26432  -0.26388  -0.25324  -0.24573
  Beta  occ. eigenvalues --   -0.24207  -0.23632  -0.21999  -0.19277  -0.17709
  Beta  occ. eigenvalues --   -0.17461  -0.16186  -0.15360  -0.13433  -0.13232
  Beta virt. eigenvalues --    0.05998   0.06323   0.07034   0.07336   0.08123
  Beta virt. eigenvalues --    0.08372   0.08510   0.09234   0.09816   0.09957
  Beta virt. eigenvalues --    0.10506   0.10725   0.10909   0.10954   0.11252

 Mulliken charges and spin densities:
               1          2
     1  C   -0.481401  -0.202062
     2  C   -0.027196  -0.225069
     3  C    0.826939  -0.196536
     4  C   -0.841924   0.627710
     5  C    0.857281  -1.457189
     6  C    0.570738  -0.464196
     7  N   -0.294081  -0.021242
     8  O   -0.106199   0.053868
     9  N   -0.473589   0.154779
    10  C   -0.520177   0.011024
    11  O   -0.270153   0.004989
    12  N   -0.095659   0.003913
    13  C    0.063567   0.203808
    14  C   -0.640680  -0.277180
    15  C   -0.742134   0.379654
    16  N    0.057292   0.015955
    17  C   -0.187215  -0.004707
    18  C   -0.195892   0.425617
    19  S    0.223088  -0.120217
    20  C    0.403337  -0.780147
    21  H    0.128819   0.003700
    22  H    0.081077   0.046534
    23  H    0.179377   0.011678
    24  H   -0.076993   0.240991
    25  H    0.232834  -0.018798
    26  H   -0.000349  -0.217027
    27  H    0.137409   0.113147
    28  H   -0.336205   0.482189
    29  H   -0.215115   0.387091
    30  H   -0.068682   0.236030
    31  H    0.046064   0.236120
    32  H    0.021009   0.247858
    33  H   -0.028361   0.324816
    34  H    0.309005   0.008756
    35  H    0.067591   0.088458
    36  H    0.119490   0.031689
    37  H    0.140468   0.010609
    38  H    0.085873   0.068710
    39  H    0.091430   0.051573
    40  H   -0.230685   0.403345
    41  H    0.147224   0.003984
    42  H    0.042776   0.105774
 Sum of Mulliken charges =  -1.00000   1.00000

 Dipole moment (field-independent basis, Debye):
    X=              1.9468    Y=              1.3533    Z=              1.4568  Tot=              2.7828
 Quadrupole moment (field-independent basis, Debye-Ang):
   XX=           -189.0843   YY=           -170.9857   ZZ=           -174.7605
   XY=              8.9855   XZ=             -3.8327   YZ=             -4.4104

 Summary of Natural Population Analysis:

                                       Natural Population
                Natural  -----------------------------------------------
    Atom  No    Charge         Core      Valence    Rydberg      Total
 -----------------------------------------------------------------------
      C    1   -0.29121      0.99965     2.28699    0.00457     3.29121
      C    2   -0.18783      0.99961     2.17731    0.01092     3.18783
      C    3   -0.08320      0.99947     2.07034    0.01339     3.08320
      C    4   -0.19663      0.99960     2.18697    0.01006     3.19663
      C    5   -0.29093      0.99965     2.28551    0.00576     3.29093
      C    6    0.20261      0.99958     1.77617    0.02164     2.79739
      N    7   -0.13236      0.99958     2.62066    0.01211     3.63236
      O    8   -0.30396      0.99990     3.29781    0.00625     4.30396
      N    9   -0.40399      0.99969     2.89422    0.01009     3.90399
      C   10    0.36580      0.99962     1.60968    0.02490     2.63420
      O   11   -0.32665      0.99987     3.32118    0.00560     4.32665
      N   12   -0.31138      0.99964     2.80171    0.01003     3.81138
      C   13   -0.04212      0.99952     2.03019    0.01241     3.04212
      C   14   -0.28238      0.99964     2.27674    0.00600     3.28238
      C   15    0.07489      0.99958     1.90710    0.01843     2.92511
      N   16   -0.24942      0.99964     2.73899    0.01079     3.74942
      C   17   -0.02989      0.99945     2.01543    0.01501     3.02989
      C   18   -0.09335      0.99952     2.08274    0.01109     3.09335
      S   19    0.19205      4.99939     2.79060    0.01796     7.80795
      C   20   -0.29929      0.99962     2.29336    0.00632     3.29929
      H   21    0.09354      0.00000     0.40555    0.00091     0.40646
      H   22    0.09678      0.00000     0.40254    0.00069     0.40322
      H   23    0.11127      0.00000     0.38772    0.00101     0.38873
      H   24    0.09617      0.00000     0.40275    0.00107     0.40383
      H   25    0.11182      0.00000     0.38698    0.00120     0.38818
      H   26    0.10701      0.00000     0.39047    0.00252     0.39299
      H   27    0.10437      0.00000     0.39429    0.00134     0.39563
      H   28    0.09629      0.00000     0.40224    0.00147     0.40371
      H   29    0.10582      0.00000     0.39329    0.00089     0.39418
      H   30    0.09917      0.00000     0.39968    0.00114     0.40083
      H   31    0.23790      0.00000     0.25785    0.00425     0.26210
      H   32    0.19545      0.00000     0.30164    0.00291     0.30455
      H   33    0.20225      0.00000     0.29523    0.00252     0.29775
      H   34    0.19605      0.00000     0.30158    0.00238     0.30395
      H   35    0.11357      0.00000     0.38372    0.00271     0.38643
      H   36    0.10039      0.00000     0.39868    0.00092     0.39961
      H   37    0.10050      0.00000     0.39885    0.00065     0.39950
      H   38    0.10998      0.00000     0.38878    0.00124     0.39002
      H   39    0.09469      0.00000     0.40426    0.00105     0.40531
      H   40    0.10906      0.00000     0.38910    0.00185     0.39094
      H   41    0.10243      0.00000     0.39664    0.00093     0.39757
      H   42    0.10472      0.00000     0.39447    0.00081     0.39528
 =======================================================================
   * Total *   -0.00000     23.99223    55.74001    0.26776    80.00000

 Normal termination of Gaussian 16 at Mon Dec 14 19:48:01 2020.
