 Gaussian 16, Revision A.03,

 -----------------------------------------------------------
 # opt freq B3LYP/6-31G(d) empiricaldispersion=gd3bj scf=xqc
 -----------------------------------------------------------

 ------------------------------
 CID_149368492_JID_326_neutraal
 ------------------------------
 Symbolic Z-matrix:
 Charge =  0 Multiplicity = 1

 SCF Done:  E(RB3LYP) =  -406.733194401     A.U. after   14 cycles
 SCF Done:  E(RB3LYP) =  -406.735449707     A.U. after   12 cycles
 SCF Done:  E(RB3LYP) =  -406.735873294     A.U. after   11 cycles
 SCF Done:  E(RB3LYP) =  -406.736174908     A.U. after   11 cycles
 SCF Done:  E(RB3LYP) =  -406.736212108     A.U. after   10 cycles
 SCF Done:  E(RB3LYP) =  -406.736215305     A.U. after    8 cycles
 Optimization completed.
    -- Stationary point found.

 1\1\GINC-NODE319\FOpt\RB3LYP\6-31G(d)\C9H15N1\VSC10255\14-Dec-2020\0\\
 # opt freq B3LYP/6-31G(d) empiricaldispersion=gd3bj scf=xqc\\CID_14936
 8492_JID_326_neutraal\\0,1\C,0.9636942259,-0.0782795503,0.0464405196\C
 ,0.4069599556,-0.8618451943,-1.1022360029\C,-0.3657005662,-1.954997151
 7,-0.9658921052\C,-0.919615754,-2.7347231736,-2.0698074264\C,-1.702886
 9,-3.8428183918,-1.9533197089\C,-2.2265745061,-4.5872270851,-0.7968702
 925\N,-2.9681856808,-5.6356429642,-0.9146104545\C,-3.3368310294,-6.152
 691121,-2.2239963405\C,-1.9339554948,-4.1780843797,0.6304541526\C,-0.5

 Normal termination of Gaussian 16 at Mon Dec 14 16:26:13 2020.

 --------------------------------------------------------------------
 #N Geom=AllCheck Guess=TCheck SCRF=Check GenChk RB3LYP/6-31G(d) Freq
 --------------------------------------------------------------------

 Structure from the checkpoint file:  "JID_326.chk"
 ------------------------------
 CID_149368492_JID_326_neutraal
 ------------------------------
 Charge =  0 Multiplicity = 1

 SCF Done:  E(RB3LYP) =  -406.736215305     A.U. after    1 cycles

  Exact polarizability: 198.026  -0.180  98.526   0.000   0.000  60.322
 Approx polarizability: 312.196 -13.625 132.458  -0.000   0.000  88.721

 ******    1 imaginary frequencies (negative Signs) ******

                      1                      2                      3
                      A                      A                      A
 Frequencies --    -21.7736                75.0851               125.6358
 Red. masses --      2.8305                 1.6875                 3.4146
 Frc consts  --      0.0008                 0.0056                 0.0318
 IR Inten    --      0.0013                 0.0137                 0.9815

                      4                      5                      6
                      A                      A                      A
 Frequencies --    133.7508               174.4465               182.8297
 Red. masses --      1.0492                 1.6879                 2.4029
 Frc consts  --      0.0111                 0.0303                 0.0473
 IR Inten    --      0.3750                 0.0011                 1.3565

                      7                      8                      9
                      A                      A                      A
 Frequencies --    216.1070               218.4912               234.2604
 Red. masses --      1.3794                 3.0843                 1.2383
 Frc consts  --      0.0380                 0.0868                 0.0400
 IR Inten    --      0.7631                 0.1367                 0.0109

                     10                     11                     12
                      A                      A                      A
 Frequencies --    258.2668               297.8840               332.6563
 Red. masses --      2.7652                 3.7163                 1.0994
 Frc consts  --      0.1087                 0.1943                 0.0717
 IR Inten    --      7.5820                 1.6462                 0.0026

                     13                     14                     15
                      A                      A                      A
 Frequencies --    340.8288               392.4485               483.0599
 Red. masses --      2.7905                 2.9204                 3.5348
 Frc consts  --      0.1910                 0.2650                 0.4860
 IR Inten    --      2.1267                 0.1145                 3.2634

                     16                     17                     18
                      A                      A                      A
 Frequencies --    526.3267               562.7811               604.2970
 Red. masses --      2.7692                 3.3008                 2.2837
 Frc consts  --      0.4520                 0.6160                 0.4913
 IR Inten    --      0.5414                10.9315                 0.6644

                     19                     20                     21
                      A                      A                      A
 Frequencies --    641.4265               800.8975               823.8365
 Red. masses --      3.6774                 3.3891                 1.6445
 Frc consts  --      0.8914                 1.2808                 0.6576
 IR Inten    --      5.3392                 0.2575                 0.1736

                     22                     23                     24
                      A                      A                      A
 Frequencies --    889.9383               901.6845               982.4613
 Red. masses --      2.7454                 1.3192                 2.0810
 Frc consts  --      1.2811                 0.6319                 1.1835
 IR Inten    --     10.8060                 8.5283                10.1097

                     25                     26                     27
                      A                      A                      A
 Frequencies --    989.5741              1007.9159              1054.5519
 Red. masses --      1.8969                 1.0950                 1.5569
 Frc consts  --      1.0944                 0.6554                 1.0201
 IR Inten    --     18.2159                23.7299                 4.2999

                     28                     29                     30
                      A                      A                      A
 Frequencies --   1059.5853              1074.3944              1079.3709
 Red. masses --      1.5307                 1.5400                 1.5219
 Frc consts  --      1.0125                 1.0474                 1.0447
 IR Inten    --      1.3731                 0.1002                 1.1720

                     31                     32                     33
                      A                      A                      A
 Frequencies --   1080.5741              1110.6835              1137.9877
 Red. masses --      2.3999                 1.3793                 2.2868
 Frc consts  --      1.6510                 1.0025                 1.7449
 IR Inten    --      1.2333                 0.0110                 1.9849

                     34                     35                     36
                      A                      A                      A
 Frequencies --   1180.1645              1244.7419              1330.2090
 Red. masses --      1.4775                 3.3600                 2.7753
 Frc consts  --      1.2125                 3.0673                 2.8934
 IR Inten    --      6.2747                 6.5367                52.8725

                     37                     38                     39
                      A                      A                      A
 Frequencies --   1340.1603              1366.3354              1426.8292
 Red. masses --      1.3268                 1.2978                 1.3757
 Frc consts  --      1.4040                 1.4275                 1.6501
 IR Inten    --      5.7418                 3.4268                13.7363

                     40                     41                     42
                      A                      A                      A
 Frequencies --   1439.8402              1442.0126              1443.7353
 Red. masses --      1.2768                 1.3181                 1.2993
 Frc consts  --      1.5595                 1.6149                 1.5957
 IR Inten    --      8.9038                12.7235                43.2071

                     43                     44                     45
                      A                      A                      A
 Frequencies --   1461.4182              1506.7073              1511.5099
 Red. masses --      1.2467                 1.0455                 1.0451
 Frc consts  --      1.5687                 1.3984                 1.4069
 IR Inten    --      6.3843                 6.3887                 6.8811

                     46                     47                     48
                      A                      A                      A
 Frequencies --   1514.2536              1519.1389              1519.9823
 Red. masses --      1.0905                 1.0625                 1.0651
 Frc consts  --      1.4733                 1.4446                 1.4499
 IR Inten    --     13.0113                 7.7208                13.8878

                     49                     50                     51
                      A                      A                      A
 Frequencies --   1522.6624              1534.3016              1539.8303
 Red. masses --      1.0472                 1.0795                 1.0460
 Frc consts  --      1.4305                 1.4973                 1.4612
 IR Inten    --      6.5633                 3.9683                 4.4957

                     52                     53                     54
                      A                      A                      A
 Frequencies --   1653.2984              1681.6761              1716.6254
 Red. masses --      5.8522                 5.7889                 5.1680
 Frc consts  --      9.4248                 9.6456                 8.9728
 IR Inten    --     12.6775               150.3141                13.9895

                     55                     56                     57
                      A                      A                      A
 Frequencies --   3003.9436              3030.1652              3044.1598
 Red. masses --      1.0393                 1.0378                 1.0386
 Frc consts  --      5.5254                 5.6145                 5.6704
 IR Inten    --     65.1950                40.4390                25.1398

                     58                     59                     60
                      A                      A                      A
 Frequencies --   3049.0922              3057.2862              3074.8067
 Red. masses --      1.0386                 1.1023                 1.0996
 Frc consts  --      5.6893                 6.0704                 6.1249
 IR Inten    --     14.6512                38.4023                21.2290

                     61                     62                     63
                      A                      A                      A
 Frequencies --   3094.4757              3107.3593              3113.9669
 Red. masses --      1.1001                 1.1009                 1.0960
 Frc consts  --      6.2064                 6.2628                 6.2618
 IR Inten    --     19.0001                18.5674                56.7476

                     64                     65                     66
                      A                      A                      A
 Frequencies --   3120.6607              3139.8809              3160.3263
 Red. masses --      1.0997                 1.0999                 1.0994
 Frc consts  --      6.3099                 6.3888                 6.4696
 IR Inten    --     13.4797                16.2446                12.8486

                     67                     68                     69
                      A                      A                      A
 Frequencies --   3178.7029              3196.8863              3254.4814
 Red. masses --      1.0886                 1.0853                 1.0859
 Frc consts  --      6.4805                 6.5349                 6.7767
 IR Inten    --     18.5286                12.9428                11.8425

 - Thermochemistry -
 -------------------
 Temperature   298.150 Kelvin.  Pressure   1.00000 Atm.
 Atom     1 has atomic number  6 and mass  12.00000

 Molecular mass:   137.12045 amu.
 Principal axes and moments of inertia in atomic units:
                           1         2         3
     Eigenvalues --   746.885702838.548703540.47677
           X            0.99986   0.01677   0.00000
           Y           -0.01677   0.99986   0.00000
           Z            0.00000  -0.00000   1.00000
 This molecule is an asymmetric top.
 Rotational symmetry number  1.
 Warning -- assumption of classical behavior for rotation
           may cause significant error
 Rotational temperatures (Kelvin)      0.11597     0.03051     0.02446
 Rotational constants (GHZ):           2.41636     0.63580     0.50975
    1 imaginary frequencies ignored.
 Zero-point vibrational energy     582076.9 (Joules/Mol)
                                  139.11973 (Kcal/Mol)
 Warning -- explicit consideration of  17 degrees of freedom as
           vibrations may cause significant error
 Vibrational temperatures:    108.03   180.76   192.44   250.99   263.05
          (Kelvin)            310.93   314.36   337.05   371.59   428.59
                              478.62   490.38   564.65   695.02   757.27
                              809.72   869.45   922.87  1152.31  1185.32
                             1280.42  1297.32  1413.54  1423.78  1450.17
                             1517.26  1524.51  1545.81  1552.97  1554.71
                             1598.03  1637.31  1697.99  1790.91  1913.87
                             1928.19  1965.85  2052.89  2071.61  2074.73
                             2077.21  2102.65  2167.82  2174.73  2178.67
                             2185.70  2186.92  2190.77  2207.52  2215.47
                             2378.73  2419.56  2469.84  4322.00  4359.73
                             4379.87  4386.96  4398.75  4423.96  4452.26
                             4470.80  4480.30  4489.93  4517.59  4547.00
                             4573.44  4599.61  4682.47

 Zero-point correction=                           0.221701 (Hartree/Particle)
 Thermal correction to Energy=                    0.233024
 Thermal correction to Enthalpy=                  0.233968
 Thermal correction to Gibbs Free Energy=         0.185306
 Sum of electronic and zero-point Energies=           -406.514514
 Sum of electronic and thermal Energies=              -406.503192
 Sum of electronic and thermal Enthalpies=            -406.502247
 Sum of electronic and thermal Free Energies=         -406.550910

                     E (Thermal)             CV                S
                      KCal/Mol        Cal/Mol-Kelvin    Cal/Mol-Kelvin
 Total                  146.225             41.999            102.418
 Electronic               0.000              0.000              0.000
 Translational            0.889              2.981             40.659
 Rotational               0.889              2.981             30.396
 Vibrational            144.447             36.037             31.363
 Vibration     1          0.599              1.966              4.015
 Vibration     2          0.611              1.927              3.012
 Vibration     3          0.613              1.920              2.891
 Vibration     4          0.627              1.874              2.387
 Vibration     5          0.630              1.863              2.299
 Vibration     6          0.645              1.816              1.991
 Vibration     7          0.646              1.813              1.972
 Vibration     8          0.654              1.788              1.846
 Vibration     9          0.667              1.749              1.673
 Vibration    10          0.691              1.678              1.429
 Vibration    11          0.715              1.610              1.247
 Vibration    12          0.720              1.594              1.208
 Vibration    13          0.760              1.486              0.991
 Vibration    14          0.839              1.288              0.702
 Vibration    15          0.881              1.192              0.595
 Vibration    16          0.919              1.112              0.518
 Vibration    17          0.963              1.023              0.442

 Optimization completed.
    -- Stationary point found.

 1\1\GINC-NODE319\Freq\RB3LYP\6-31G(d)\C9H15N1\VSC10255\14-Dec-2020\0\\
 #N Geom=AllCheck Guess=TCheck SCRF=Check GenChk RB3LYP/6-31G(d) Freq\\
 CID_149368492_JID_326_neutraal\\0,1\C,0.9636942259,-0.0782795503,0.046
 4405196\C,0.4069599556,-0.8618451943,-1.1022360029\C,-0.3657005662,-1.
 9549971517,-0.9658921052\C,-0.919615754,-2.7347231736,-2.0698074264\C,
 -1.7028869,-3.8428183918,-1.9533197089\C,-2.2265745061,-4.5872270851,-
 0.7968702925\N,-2.9681856808,-5.6356429642,-0.9146104545\C,-3.33683102
 94,-6.152691121,-2.2239963405\C,-1.9339554948,-4.1780843797,0.63045415

 Normal termination of Gaussian 16 at Mon Dec 14 16:30:02 2020.

 ----------------------------------------------------------------------
 # B3LYP/6-311++G(d,p) empiricaldispersion=gd3bj scf=xqc pop=npa geom=c
 heck
 ----------------------------------------------------------------------

 --------------------------------------
 CID_149368492_JID_326_Energie_neutraal
 --------------------------------------
 Structure from the checkpoint file:  "JID_326.chk"
 Charge =  0 Multiplicity = 1

 SCF Done:  E(RB3LYP) =  -406.848992495     A.U. after   14 cycles
 Normal termination of Gaussian 16 at Mon Dec 14 16:31:28 2020.

 ----------------------------------------------------------------------
 # B3LYP/6-311++G(d,p) empiricaldispersion=gd3bj scf=xqc pop=npa geom=c
 heck
 ----------------------------------------------------------------------

 ------------------------------------
 CID_149368492_JID_326_Energie_kation
 ------------------------------------
 Structure from the checkpoint file:  "JID_326.chk"
 Charge =  1 Multiplicity = 2

 SCF Done:  E(UB3LYP) =  -406.556351602     A.U. after   18 cycles
 Normal termination of Gaussian 16 at Mon Dec 14 16:33:51 2020.
 Gaussian 16:  ES64L-G16RevA.03 25-Dec-2016

 -----------------------------------
 CID_149368492_JID_326_Energie_anion
 -----------------------------------
 Structure from the checkpoint file:  "JID_326.chk"
 Charge = -1 Multiplicity = 2

                         Standard orientation:
 ---------------------------------------------------------------------
 Center     Atomic      Atomic             Coordinates (Angstroms)
 Number     Number       Type             X           Y           Z
 ---------------------------------------------------------------------
      1          6           0       -3.945173   -0.943042    0.000004
      2          6           0       -2.873201    0.103028    0.000002
      3          6           0       -1.555079   -0.167397   -0.000000
      4          6           0       -0.492352    0.834618   -0.000002
      5          6           0        0.846004    0.582105   -0.000003
      6          6           0        1.635108   -0.660104   -0.000001
      7          7           0        2.924634   -0.672253    0.000002
      8          6           0        3.688240    0.566552    0.000005
      9          6           0        0.990956   -2.029537   -0.000004
     10          6           0       -0.931867    2.283403   -0.000003
     11          1           0       -3.523857   -1.953525    0.000004
     12          1           0       -4.595512   -0.843290   -0.879797
     13          1           0       -4.595512   -0.843288    0.879804
     14          1           0       -3.218299    1.135094    0.000003
     15          1           0       -1.265132   -1.209656   -0.000001
     16          1           0        1.465946    1.472801   -0.000003
     17          1           0        3.490056    1.185276   -0.887521
     18          1           0        3.490058    1.185269    0.887536
     19          1           0        4.753399    0.317575    0.000003
     20          1           0        0.363026   -2.181423    0.885605
     21          1           0        0.363029   -2.181421   -0.885616
     22          1           0        1.786665   -2.776379   -0.000004
     23          1           0       -1.544196    2.510646   -0.881396
     24          1           0       -1.544191    2.510648    0.881394
     25          1           0       -0.073736    2.959692   -0.000006
 ---------------------------------------------------------------------

 SCF Done:  E(UB3LYP) =  -406.856002141     A.U. after   22 cycles

 The electronic state is 2-A.
 Alpha  occ. eigenvalues --  -14.10976 -10.03827 -10.03691 -10.03460 -10.02068
 Alpha  occ. eigenvalues --  -10.01404 -10.00498 -10.00324 -10.00248  -9.98636
 Alpha  occ. eigenvalues --   -0.74277  -0.66400  -0.62273  -0.59328  -0.54144
 Alpha  occ. eigenvalues --   -0.53186  -0.51673  -0.43523  -0.38765  -0.36013
 Alpha  occ. eigenvalues --   -0.32565  -0.30866  -0.28855  -0.28822  -0.28561
 Alpha  occ. eigenvalues --   -0.27215  -0.26359  -0.26356  -0.25171  -0.23493
 Alpha  occ. eigenvalues --   -0.22845  -0.21694  -0.19948  -0.17364  -0.15645
 Alpha  occ. eigenvalues --   -0.12997  -0.07603  -0.06825   0.05224
 Alpha virt. eigenvalues --    0.08593   0.09554   0.10359   0.11112   0.11580
 Alpha virt. eigenvalues --    0.12019   0.13209   0.13592   0.13794   0.14281
 Alpha virt. eigenvalues --    0.14831   0.14942   0.15944   0.17122   0.17156

  Beta  occ. eigenvalues --  -14.10515 -10.03860 -10.03713 -10.03371 -10.02095
  Beta  occ. eigenvalues --  -10.01414 -10.00326 -10.00123  -9.99858  -9.98471
  Beta  occ. eigenvalues --   -0.73585  -0.65821  -0.61804  -0.59150  -0.54035
  Beta  occ. eigenvalues --   -0.52909  -0.51558  -0.42644  -0.38356  -0.35721
  Beta  occ. eigenvalues --   -0.32348  -0.30682  -0.28687  -0.28365  -0.28124
  Beta  occ. eigenvalues --   -0.26882  -0.26234  -0.26189  -0.25076  -0.23382
  Beta  occ. eigenvalues --   -0.22673  -0.21523  -0.19807  -0.17163  -0.14250
  Beta  occ. eigenvalues --   -0.11413  -0.07061  -0.04496
  Beta virt. eigenvalues --    0.08541   0.09493   0.10306   0.11067   0.11106
  Beta virt. eigenvalues --    0.11634   0.11942   0.13355   0.13527   0.13727
  Beta virt. eigenvalues --    0.14565   0.14836   0.14923   0.15863   0.17068

 Mulliken charges and spin densities:
               1          2
     1  C   -0.653464  -0.016948
     2  C   -0.322031   0.331998
     3  C   -0.475894  -0.081582
     4  C    1.072486   0.226702
     5  C    0.181287   0.234740
     6  C   -0.490786   0.012844
     7  N   -0.113463   0.225049
     8  C   -0.400140  -0.037411
     9  C   -0.395142  -0.013217
    10  C   -0.754975  -0.035360
    11  H    0.126882   0.000869
    12  H    0.105330   0.015314
    13  H    0.105330   0.015314
    14  H    0.109236  -0.022098
    15  H   -0.116531   0.000292
    16  H    0.056140  -0.009804
    17  H    0.076795   0.038196
    18  H    0.076795   0.038197
    19  H    0.120976  -0.001857
    20  H    0.128427   0.005578
    21  H    0.128427   0.005578
    22  H    0.140641  -0.003971
    23  H    0.094616   0.035860
    24  H    0.094616   0.035860
    25  H    0.104443  -0.000142
 Sum of Mulliken charges =  -1.00000   1.00000

 Dipole moment (field-independent basis, Debye):
    X=             -2.4513    Y=              0.5750    Z=             -0.0000  Tot=              2.5178
 Quadrupole moment (field-independent basis, Debye-Ang):
   XX=           -105.6128   YY=            -76.9405   ZZ=            -74.0539
   XY=              5.8846   XZ=             -0.0000   YZ=              0.0000

 Summary of Natural Population Analysis:

                                       Natural Population
                Natural  -----------------------------------------------
    Atom  No    Charge         Core      Valence    Rydberg      Total
 -----------------------------------------------------------------------
      C    1   -0.29978      0.99967     2.29555    0.00456     3.29978
      C    2   -0.01144      0.99956     2.00294    0.00894     3.01144
      C    3   -0.13096      0.99949     2.12251    0.00896     3.13096
      C    4    0.05474      0.99952     1.93727    0.00846     2.94526
      C    5   -0.11140      0.99947     2.10276    0.00917     3.11140
      C    6    0.13080      0.99958     1.85523    0.01439     2.86920
      N    7   -0.20333      0.99964     2.68535    0.01834     3.70333
      C    8   -0.19668      0.99965     2.18898    0.00805     3.19668
      C    9   -0.30096      0.99964     2.29702    0.00430     3.30096
      C   10   -0.29631      0.99965     2.29132    0.00534     3.29631
      H   11    0.09319      0.00000     0.40574    0.00108     0.40681
      H   12    0.09370      0.00000     0.40501    0.00129     0.40630
      H   13    0.09370      0.00000     0.40501    0.00129     0.40630
      H   14    0.07885      0.00000     0.42000    0.00115     0.42115
      H   15    0.09032      0.00000     0.40805    0.00163     0.40968
      H   16    0.08587      0.00000     0.41293    0.00121     0.41413
      H   17    0.08499      0.00000     0.41306    0.00195     0.41501
      H   18    0.08499      0.00000     0.41306    0.00195     0.41501
      H   19    0.08145      0.00000     0.41713    0.00142     0.41855
      H   20    0.09561      0.00000     0.40330    0.00108     0.40439
      H   21    0.09561      0.00000     0.40330    0.00108     0.40439
      H   22    0.10008      0.00000     0.39615    0.00378     0.39992
      H   23    0.09648      0.00000     0.40222    0.00130     0.40352
      H   24    0.09648      0.00000     0.40222    0.00130     0.40352
      H   25    0.09402      0.00000     0.40519    0.00079     0.40598
 =======================================================================
   * Total *    0.00000      9.99588    27.89130    0.11283    38.00000

 Normal termination of Gaussian 16 at Mon Dec 14 16:36:48 2020.
