 Gaussian 16, Revision A.03,

 -----------------------------------------------------------
 # opt freq B3LYP/6-31G(d) empiricaldispersion=gd3bj scf=xqc
 -----------------------------------------------------------

 ------------------------------
 CID_87662668_JID_5953_neutraal
 ------------------------------
 Symbolic Z-matrix:
 Charge =  0 Multiplicity = 1

 SCF Done:  E(RB3LYP) =  -733.279747258     A.U. after   15 cycles
 SCF Done:  E(RB3LYP) =  -733.285234817     A.U. after   13 cycles
 SCF Done:  E(RB3LYP) =  -733.285197100     A.U. after   13 cycles
 SCF Done:  E(RB3LYP) =  -733.281712416     A.U. after   14 cycles
 SCF Done:  E(RB3LYP) =  -733.278524155     A.U. after   13 cycles
 SCF Done:  E(RB3LYP) =  -733.286040330     A.U. after   11 cycles
 SCF Done:  E(RB3LYP) =  -733.288352164     A.U. after   13 cycles
 SCF Done:  E(RB3LYP) =  -733.287973000     A.U. after   12 cycles
 SCF Done:  E(RB3LYP) =  -733.288229190     A.U. after   12 cycles
 SCF Done:  E(RB3LYP) =  -733.288740596     A.U. after    9 cycles
 SCF Done:  E(RB3LYP) =  -733.289313937     A.U. after    8 cycles
 SCF Done:  E(RB3LYP) =  -733.289314506     A.U. after    9 cycles
 SCF Done:  E(RB3LYP) =  -733.289314829     A.U. after    8 cycles
 SCF Done:  E(RB3LYP) =  -733.289314722     A.U. after    7 cycles
 SCF Done:  E(RB3LYP) =  -733.289314700     A.U. after    6 cycles
 Optimization completed.
    -- Stationary point found.
 Normal termination of Gaussian 16 at Thu Dec 10 17:56:17 2020.

 --------------------------------------------------------------------
 #N Geom=AllCheck Guess=TCheck SCRF=Check GenChk RB3LYP/6-31G(d) Freq
 --------------------------------------------------------------------

 Structure from the checkpoint file:  "JID_5953.chk"
 ------------------------------
 CID_87662668_JID_5953_neutraal
 ------------------------------
 Charge =  0 Multiplicity = 1

 SCF Done:  E(RB3LYP) =  -733.289314700     A.U. after    1 cycles

  Exact polarizability: 145.085   0.166 124.473  -0.955  -0.229 114.665
 Approx polarizability: 196.963   6.569 171.156   0.004  -7.617 182.845

                      1                      2                      3
                      A                      A                      A
 Frequencies --     35.8358                62.2149                83.3670
 Red. masses --      6.6264                 3.7387                 6.2003
 Frc consts  --      0.0050                 0.0085                 0.0254
 IR Inten    --      0.8427                 1.6521                 0.0452

                      4                      5                      6
                      A                      A                      A
 Frequencies --    109.1026               129.4494               157.4962
 Red. masses --      3.3630                 2.4673                 3.6104
 Frc consts  --      0.0236                 0.0244                 0.0528
 IR Inten    --      0.2415                 1.1153                 0.4103

                      7                      8                      9
                      A                      A                      A
 Frequencies --    165.0993               231.2089               233.2370
 Red. masses --      3.8749                 2.6627                 2.7377
 Frc consts  --      0.0622                 0.0839                 0.0877
 IR Inten    --      1.4001                 0.3508                 0.3974

                     10                     11                     12
                      A                      A                      A
 Frequencies --    239.8597               243.8173               251.7453
 Red. masses --      1.4248                 1.1499                 1.8029
 Frc consts  --      0.0483                 0.0403                 0.0673
 IR Inten    --      0.5034                 1.6274                 0.7933

                     13                     14                     15
                      A                      A                      A
 Frequencies --    259.9727               273.7079               283.9413
 Red. masses --      2.3886                 1.4610                 1.2886
 Frc consts  --      0.0951                 0.0645                 0.0612
 IR Inten    --      0.7549                 0.8170                10.3228

                     16                     17                     18
                      A                      A                      A
 Frequencies --    294.9784               321.2214               331.2658
 Red. masses --      1.6993                 1.7077                 1.4809
 Frc consts  --      0.0871                 0.1038                 0.0957
 IR Inten    --      1.1086                41.5935                46.3962

                     19                     20                     21
                      A                      A                      A
 Frequencies --    345.3734               352.6884               360.9098
 Red. masses --      2.1703                 2.4657                 1.9382
 Frc consts  --      0.1525                 0.1807                 0.1487
 IR Inten    --      9.5389                 8.6953                19.5281

                     22                     23                     24
                      A                      A                      A
 Frequencies --    381.9714               390.2562               426.1365
 Red. masses --      2.1914                 3.3793                 5.1743
 Frc consts  --      0.1884                 0.3032                 0.5536
 IR Inten    --      1.8819                16.0269                14.5462

                     25                     26                     27
                      A                      A                      A
 Frequencies --    447.0406               462.5227               484.2015
 Red. masses --      2.0493                 2.5630                 1.8897
 Frc consts  --      0.2413                 0.3230                 0.2610
 IR Inten    --     15.3598                21.6894                 5.6339

                     28                     29                     30
                      A                      A                      A
 Frequencies --    488.7629               514.9451               576.2564
 Red. masses --      1.3903                 2.8226                 3.4879
 Frc consts  --      0.1957                 0.4410                 0.6824
 IR Inten    --     60.1442                15.1676                 2.0561

                     31                     32                     33
                      A                      A                      A
 Frequencies --    627.5252               704.9277               778.2033
 Red. masses --      3.2583                 3.1588                 4.5942
 Frc consts  --      0.7560                 0.9248                 1.6392
 IR Inten    --      7.3719                 3.5026                19.9820

                     34                     35                     36
                      A                      A                      A
 Frequencies --    797.7916               828.7089               860.0142
 Red. masses --      1.3111                 2.0917                 2.3783
 Frc consts  --      0.4917                 0.8464                 1.0364
 IR Inten    --      4.3133                 1.0273                 8.0683

                     37                     38                     39
                      A                      A                      A
 Frequencies --    901.0766               923.5246               934.9024
 Red. masses --      3.2971                 3.9465                 3.7684
 Frc consts  --      1.5773                 1.9832                 1.9406
 IR Inten    --      5.1582                10.1522                15.5665

                     40                     41                     42
                      A                      A                      A
 Frequencies --    937.3353               966.3438               975.3337
 Red. masses --      1.7175                 2.1295                 1.7342
 Frc consts  --      0.8891                 1.1716                 0.9720
 IR Inten    --      4.5881                 3.1563                 3.4071

                     43                     44                     45
                      A                      A                      A
 Frequencies --    992.3122              1004.3406              1043.7017
 Red. masses --      1.7973                 1.7004                 1.6645
 Frc consts  --      1.0427                 1.0105                 1.0683
 IR Inten    --      1.0442                 5.2376                 3.1934

                     46                     47                     48
                      A                      A                      A
 Frequencies --   1046.9013              1066.0854              1079.6992
 Red. masses --      1.4415                 1.8341                 1.7776
 Frc consts  --      0.9308                 1.2282                 1.2209
 IR Inten    --      4.8982                58.8637                 0.8192

                     49                     50                     51
                      A                      A                      A
 Frequencies --   1095.6574              1143.9891              1158.1038
 Red. masses --      2.0077                 2.4478                 2.5330
 Frc consts  --      1.4200                 1.8875                 2.0016
 IR Inten    --     10.2801                56.7059                72.8366

                     52                     53                     54
                      A                      A                      A
 Frequencies --   1167.2963              1192.3991              1202.9843
 Red. masses --      2.0878                 1.9959                 2.2892
 Frc consts  --      1.6761                 1.6719                 1.9519
 IR Inten    --     60.5266                 4.9472                15.2039

                     55                     56                     57
                      A                      A                      A
 Frequencies --   1216.7324              1234.3823              1273.4856
 Red. masses --      2.4147                 3.1551                 2.1281
 Frc consts  --      2.1062                 2.8324                 2.0335
 IR Inten    --      5.4818                15.2674                28.7642

                     58                     59                     60
                      A                      A                      A
 Frequencies --   1288.0499              1341.9090              1365.4610
 Red. masses --      2.5129                 1.2150                 1.2858
 Frc consts  --      2.4564                 1.2890                 1.4124
 IR Inten    --     18.7807                 4.3296                 1.2562

                     61                     62                     63
                      A                      A                      A
 Frequencies --   1378.3242              1396.8262              1421.8273
 Red. masses --      1.3101                 1.3761                 1.4181
 Frc consts  --      1.4665                 1.5819                 1.6890
 IR Inten    --      6.4550                 2.2080                 6.3985

                     64                     65                     66
                      A                      A                      A
 Frequencies --   1431.7228              1432.4792              1441.2001
 Red. masses --      1.2009                 1.2388                 1.2550
 Frc consts  --      1.4504                 1.4977                 1.5358
 IR Inten    --      4.7892                 4.2332                 4.8282

                     67                     68                     69
                      A                      A                      A
 Frequencies --   1448.4926              1455.1442              1466.0554
 Red. masses --      1.2081                 1.1854                 1.1962
 Frc consts  --      1.4934                 1.4789                 1.5148
 IR Inten    --      5.2555                37.4089                10.7346

                     70                     71                     72
                      A                      A                      A
 Frequencies --   1509.4507              1519.7484              1520.6512
 Red. masses --      1.0727                 1.0537                 1.0499
 Frc consts  --      1.4400                 1.4339                 1.4305
 IR Inten    --      1.8171                14.3454                 1.9610

                     73                     74                     75
                      A                      A                      A
 Frequencies --   1522.9102              1524.3527              1525.9396
 Red. masses --      1.0692                 1.1245                 1.0593
 Frc consts  --      1.4610                 1.5395                 1.4533
 IR Inten    --      6.7505                82.2762                36.1460

                     76                     77                     78
                      A                      A                      A
 Frequencies --   1527.4718              1530.8023              1540.5900
 Red. masses --      1.0668                 1.0590                 1.0589
 Frc consts  --      1.4666                 1.4622                 1.4807
 IR Inten    --      9.5068                31.3963                11.9331

                     79                     80                     81
                      A                      A                      A
 Frequencies --   1542.4202              1550.8075              1552.4180
 Red. masses --      1.0440                 1.0615                 1.0501
 Frc consts  --      1.4633                 1.5041                 1.4911
 IR Inten    --      4.5694                 3.2491                11.5327

                     82                     83                     84
                      A                      A                      A
 Frequencies --   1560.9326              1779.2065              3011.0125
 Red. masses --      1.0548                 8.3070                 1.0699
 Frc consts  --      1.5142                15.4934                 5.7150
 IR Inten    --      2.3639               117.1294                 6.9161

                     85                     86                     87
                      A                      A                      A
 Frequencies --   3025.8199              3038.5254              3057.9727
 Red. masses --      1.0729                 1.0417                 1.0372
 Frc consts  --      5.7874                 5.6667                 5.7147
 IR Inten    --     37.2997                29.9169                22.9840

                     88                     89                     90
                      A                      A                      A
 Frequencies --   3063.3555              3071.5410              3072.9645
 Red. masses --      1.0426                 1.0470                 1.0909
 Frc consts  --      5.7645                 5.8200                 6.0692
 IR Inten    --     36.7695                16.0035                13.6900

                     91                     92                     93
                      A                      A                      A
 Frequencies --   3086.6395              3104.8077              3113.5989
 Red. masses --      1.0399                 1.0940                 1.1004
 Frc consts  --      5.8372                 6.2133                 6.2851
 IR Inten    --     19.4586                19.9840                29.6064

                     94                     95                     96
                      A                      A                      A
 Frequencies --   3125.9246              3132.2475              3136.3897
 Red. masses --      1.0976                 1.0940                 1.1017
 Frc consts  --      6.3192                 6.3237                 6.3854
 IR Inten    --     44.9133                16.9083                21.7569

                     97                     98                     99
                      A                      A                      A
 Frequencies --   3144.3146              3147.8690              3149.0770
 Red. masses --      1.0981                 1.0884                 1.0919
 Frc consts  --      6.3963                 6.3545                 6.3796
 IR Inten    --     18.3122                17.4551                23.7087

                    100                    101                    102
                      A                      A                      A
 Frequencies --   3152.1228              3158.7380              3187.7116
 Red. masses --      1.0931                 1.1006                 1.1027
 Frc consts  --      6.3993                 6.4702                 6.6021
 IR Inten    --      6.1535                24.4439                10.3247

                    103                    104                    105
                      A                      A                      A
 Frequencies --   3189.3708              3409.3341              3722.1481
 Red. masses --      1.0988                 1.0653                 1.0658
 Frc consts  --      6.5856                 7.2956                 8.7001
 IR Inten    --      5.2521                58.4309                 6.7173

 - Thermochemistry -
 -------------------
 Temperature   298.150 Kelvin.  Pressure   1.00000 Atm.
 Atom     1 has atomic number  6 and mass  12.00000

 Molecular mass:   218.15181 amu.
 Principal axes and moments of inertia in atomic units:
                           1         2         3
     Eigenvalues --  2795.617813191.757904533.90535
           X            0.98004  -0.19853  -0.01048
           Y            0.19873   0.97977   0.02377
           Z            0.00554  -0.02538   0.99966
 This molecule is an asymmetric top.
 Rotational symmetry number  1.
 Warning -- assumption of classical behavior for rotation
           may cause significant error
 Rotational temperatures (Kelvin)      0.03098     0.02714     0.01910
 Rotational constants (GHZ):           0.64556     0.56544     0.39805
 Zero-point vibrational energy     861126.0 (Joules/Mol)
                                  205.81405 (Kcal/Mol)
 Warning -- explicit consideration of  30 degrees of freedom as
           vibrations may cause significant error
 Vibrational temperatures:     51.56    89.51   119.95   156.97   186.25
          (Kelvin)            226.60   237.54   332.66   335.58   345.10
                              350.80   362.21   374.04   393.80   408.53
                              424.41   462.17   476.62   496.92   507.44
                              519.27   549.57   561.49   613.12   643.19
                              665.47   696.66   703.22   740.89   829.10
                              902.87  1014.23  1119.66  1147.84  1192.33
                             1237.37  1296.45  1328.75  1345.12  1348.62
                             1390.35  1403.29  1427.72  1445.02  1501.65
                             1506.26  1533.86  1553.45  1576.41  1645.95
                             1666.25  1679.48  1715.60  1730.83  1750.61
                             1776.00  1832.26  1853.22  1930.71  1964.59
                             1983.10  2009.72  2045.69  2059.93  2061.02
                             2073.57  2084.06  2093.63  2109.33  2171.76
                             2186.58  2187.88  2191.13  2193.20  2195.49
                             2197.69  2202.48  2216.57  2219.20  2231.27
                             2233.58  2245.83  2559.88  4332.18  4353.48
                             4371.76  4399.74  4407.49  4419.26  4421.31
                             4440.99  4467.13  4479.77  4497.51  4506.61
                             4512.57  4523.97  4529.08  4530.82  4535.20
                             4544.72  4586.41  4588.79  4905.27  5355.34

 Zero-point correction=                           0.327986 (Hartree/Particle)
 Thermal correction to Energy=                    0.345692
 Thermal correction to Enthalpy=                  0.346637
 Thermal correction to Gibbs Free Energy=         0.284522
 Sum of electronic and zero-point Energies=           -732.961329
 Sum of electronic and thermal Energies=              -732.943622
 Sum of electronic and thermal Enthalpies=            -732.942678
 Sum of electronic and thermal Free Energies=         -733.004793

                     E (Thermal)             CV                S
                      KCal/Mol        Cal/Mol-Kelvin    Cal/Mol-Kelvin
 Total                  216.925             68.319            130.731
 Electronic               0.000              0.000              0.000
 Translational            0.889              2.981             42.043
 Rotational               0.889              2.981             32.070
 Vibrational            215.148             62.357             56.618
 Vibration     1          0.594              1.982              5.477
 Vibration     2          0.597              1.972              4.386
 Vibration     3          0.600              1.961              3.810
 Vibration     4          0.606              1.942              3.285
 Vibration     5          0.612              1.924              2.954
 Vibration     6          0.621              1.894              2.580
 Vibration     7          0.623              1.885              2.491
 Vibration     8          0.653              1.793              1.870
 Vibration     9          0.654              1.790              1.854
 Vibration    10          0.657              1.779              1.804
 Vibration    11          0.659              1.773              1.775
 Vibration    12          0.664              1.760              1.718
 Vibration    13          0.668              1.746              1.662
 Vibration    14          0.676              1.722              1.573
 Vibration    15          0.682              1.703              1.510
 Vibration    16          0.689              1.683              1.445
 Vibration    17          0.707              1.633              1.304
 Vibration    18          0.714              1.613              1.254
 Vibration    19          0.724              1.585              1.187
 Vibration    20          0.729              1.570              1.154
 Vibration    21          0.735              1.553              1.118
 Vibration    22          0.751              1.509              1.031
 Vibration    23          0.758              1.491              0.999
 Vibration    24          0.788              1.413              0.871
 Vibration    25          0.806              1.367              0.805
 Vibration    26          0.820              1.333              0.759
 Vibration    27          0.840              1.285              0.699
 Vibration    28          0.845              1.275              0.687
 Vibration    29          0.870              1.217              0.622
 Vibration    30          0.933              1.083              0.492

 Optimization completed.
    -- Stationary point found.
 Normal termination of Gaussian 16 at Thu Dec 10 18:12:28 2020.

 ----------------------------------------------------------------------
 # B3LYP/6-311++G(d,p) empiricaldispersion=gd3bj scf=xqc pop=npa geom=c
 heck
 ----------------------------------------------------------------------

 --------------------------------------
 CID_87662668_JID_5953_Energie_neutraal
 --------------------------------------
 Structure from the checkpoint file:  "JID_5953.chk"
 Charge =  0 Multiplicity = 1

 SCF Done:  E(RB3LYP) =  -733.518100765     A.U. after   15 cycles
 Normal termination of Gaussian 16 at Thu Dec 10 18:20:31 2020.

 ----------------------------------------------------------------------
 # B3LYP/6-311++G(d,p) empiricaldispersion=gd3bj scf=xqc pop=npa geom=c
 heck
 ----------------------------------------------------------------------

 ------------------------------------
 CID_87662668_JID_5953_Energie_kation
 ------------------------------------
 Structure from the checkpoint file:  "JID_5953.chk"
 Charge =  1 Multiplicity = 2

 SCF Done:  E(UB3LYP) =  -733.172240738     A.U. after   28 cycles
 Normal termination of Gaussian 16 at Thu Dec 10 18:41:39 2020.
 Gaussian 16:  ES64L-G16RevA.03 25-Dec-2016

 ----------------------------------------------------------------------
 # B3LYP/6-311++G(d,p) empiricaldispersion=gd3bj scf=xqc pop=npa geom=c
 heck
 ----------------------------------------------------------------------

 -----------------------------------
 CID_87662668_JID_5953_Energie_anion
 -----------------------------------
 Structure from the checkpoint file:  "JID_5953.chk"
 Charge = -1 Multiplicity = 2

                         Standard orientation:
 ---------------------------------------------------------------------
 Center     Atomic      Atomic             Coordinates (Angstroms)
 Number     Number       Type             X           Y           Z
 ---------------------------------------------------------------------
      1          6           0        3.490133    0.021204   -0.376248
      2          6           0        2.214294    0.817891   -0.077594
      3          6           0        0.996384    0.087381    0.559773
      4          6           0        1.432860   -0.520882    1.910289
      5          6           0       -0.073499    1.164425    0.936001
      6          6           0       -0.844270    1.966181   -0.126864
      7          6           0       -1.848357    2.905843    0.544106
      8          8           0        0.005580    2.699236   -1.017711
      9          6           0        0.392979   -1.042587   -0.397318
     10          6           0        0.401473   -0.622551   -1.882356
     11          6           0        1.137618   -2.398009   -0.282433
     12          6           0       -1.020378   -1.355406    0.089559
     13          8           0       -1.319949   -1.878859    1.150086
     14          8           0       -1.984469   -0.999328   -0.794061
     15          8           0       -3.301744   -1.281192   -0.272514
     16          1           0        3.844202   -0.548049    0.489048
     17          1           0        4.291309    0.713264   -0.659522
     18          1           0        3.365757   -0.676817   -1.209186
     19          1           0        2.482760    1.610507    0.635533
     20          1           0        1.890766    1.334525   -0.982254
     21          1           0        1.783090    0.278397    2.573577
     22          1           0        0.602296   -1.032772    2.402088
     23          1           0        2.251359   -1.235270    1.800762
     24          1           0       -0.823674    0.688066    1.579192
     25          1           0        0.434212    1.893055    1.586406
     26          1           0       -1.397691    1.292561   -0.781791
     27          1           0       -1.339761    3.596922    1.230138
     28          1           0       -2.369763    3.496341   -0.214899
     29          1           0       -2.592028    2.345427    1.121321
     30          1           0        0.547163    3.295401   -0.475411
     31          1           0        1.429916   -0.621879   -2.250564
     32          1           0       -0.164230   -1.338411   -2.484924
     33          1           0       -0.009427    0.371824   -2.053217
     34          1           0        1.025707   -2.839067    0.708375
     35          1           0        0.725722   -3.102641   -1.013624
     36          1           0        2.199594   -2.277432   -0.497633
     37          1           0       -3.048040   -1.703741    0.588687
 ---------------------------------------------------------------------

 SCF Done:  E(UB3LYP) =  -733.506547774     A.U. after   33 cycles
 SCF Done:  E(UB3LYP) =  -733.506547774     a.u. after    1 cycles

 The electronic state is 2-A.
 Alpha  occ. eigenvalues --  -19.12419 -19.08936 -19.03332 -19.01858 -10.21335
 Alpha  occ. eigenvalues --  -10.11932 -10.11500 -10.09820 -10.07208 -10.06770
 Alpha  occ. eigenvalues --  -10.06763 -10.06091 -10.06032 -10.05909 -10.05402
 Alpha  occ. eigenvalues --   -1.07748  -0.95953  -0.92102  -0.84550  -0.74879
 Alpha  occ. eigenvalues --   -0.68837  -0.66583  -0.63230  -0.60358  -0.57781
 Alpha  occ. eigenvalues --   -0.55687  -0.53723  -0.51074  -0.50453  -0.45747
 Alpha  occ. eigenvalues --   -0.40804  -0.40659  -0.40481  -0.37421  -0.36735
 Alpha  occ. eigenvalues --   -0.36327  -0.34996  -0.34407  -0.33734  -0.31979
 Alpha  occ. eigenvalues --   -0.31561  -0.31163  -0.30698  -0.30115  -0.29530
 Alpha  occ. eigenvalues --   -0.29209  -0.27972  -0.27733  -0.27235  -0.26988
 Alpha  occ. eigenvalues --   -0.26328  -0.25179  -0.24748  -0.23004  -0.22652
 Alpha  occ. eigenvalues --   -0.22172  -0.21164  -0.19579  -0.18958  -0.16911
 Alpha  occ. eigenvalues --    0.04403
 Alpha virt. eigenvalues --    0.06230   0.06651   0.07928   0.08078   0.08379
 Alpha virt. eigenvalues --    0.08968   0.09601   0.10100   0.10375   0.10745
 Alpha virt. eigenvalues --    0.11527   0.11997   0.12337   0.12700   0.13014

  Beta  occ. eigenvalues --  -19.12288 -19.08815 -19.03301 -19.01829 -10.21283
  Beta  occ. eigenvalues --  -10.11929 -10.11499 -10.09817 -10.07184 -10.06759
  Beta  occ. eigenvalues --  -10.06753 -10.06069 -10.06006 -10.05878 -10.05382
  Beta  occ. eigenvalues --   -1.07469  -0.95838  -0.92040  -0.84323  -0.74848
  Beta  occ. eigenvalues --   -0.68795  -0.66546  -0.63193  -0.60324  -0.57739
  Beta  occ. eigenvalues --   -0.55563  -0.53647  -0.50951  -0.50391  -0.45672
  Beta  occ. eigenvalues --   -0.40683  -0.40603  -0.40355  -0.37324  -0.36651
  Beta  occ. eigenvalues --   -0.36286  -0.34925  -0.34324  -0.33692  -0.31914
  Beta  occ. eigenvalues --   -0.31505  -0.31105  -0.30603  -0.30081  -0.29484
  Beta  occ. eigenvalues --   -0.29172  -0.27933  -0.27672  -0.27195  -0.26947
  Beta  occ. eigenvalues --   -0.26221  -0.25146  -0.24711  -0.22968  -0.22616
  Beta  occ. eigenvalues --   -0.22139  -0.21117  -0.19531  -0.18776  -0.16880
  Beta virt. eigenvalues --    0.06642   0.07100   0.07541   0.08313   0.08436
  Beta virt. eigenvalues --    0.08868   0.09362   0.10016   0.10403   0.10678
  Beta virt. eigenvalues --    0.10999   0.12004   0.12302   0.12656   0.12989

 Mulliken charges and spin densities:
               1          2
     1  C    1.150409  -1.775307
     2  C   -1.415834   0.873738
     3  C    0.652774   0.187588
     4  C    0.231603  -0.976013
     5  C    0.080107  -0.221733
     6  C   -0.639459   0.205613
     7  C    0.423180  -1.005795
     8  O   -0.160160   0.005246
     9  C    0.080983   0.293488
    10  C   -0.131385  -0.233625
    11  C    0.216722  -0.718527
    12  C   -0.837472  -0.057255
    13  O   -0.268841   0.044879
    14  O    0.147558   0.039758
    15  O   -0.115989   0.043625
    16  H   -0.092880   0.240968
    17  H   -0.404760   0.562914
    18  H   -0.128407   0.253210
    19  H   -0.462314   0.636403
    20  H    0.280488  -0.108127
    21  H   -0.158973   0.321972
    22  H    0.118010   0.086198
    23  H   -0.038710   0.155130
    24  H    0.035362   0.152657
    25  H    0.006720   0.219355
    26  H    0.231578  -0.029656
    27  H   -0.326511   0.467641
    28  H    0.035325   0.121569
    29  H    0.001147   0.147690
    30  H   -0.077025   0.327198
    31  H    0.157243  -0.004270
    32  H    0.180883  -0.010392
    33  H    0.113177   0.102897
    34  H    0.047950   0.123833
    35  H    0.032591   0.127208
    36  H    0.092766   0.073706
    37  H   -0.057854   0.326218
 Sum of Mulliken charges =  -1.00000   1.00000

 Dipole moment (field-independent basis, Debye):
    X=             -1.7884    Y=             -3.6993    Z=             -2.2010  Tot=              4.6613
 Quadrupole moment (field-independent basis, Debye-Ang):
   XX=           -160.2381   YY=           -147.7903   ZZ=           -127.6429
   XY=             -8.2927   XZ=             -2.2082   YZ=             -0.4998

 Summary of Natural Population Analysis:

                                       Natural Population
                Natural  -----------------------------------------------
    Atom  No    Charge         Core      Valence    Rydberg      Total
 -----------------------------------------------------------------------
      C    1   -0.28508      0.99965     2.28025    0.00518     3.28508
      C    2   -0.20099      0.99958     2.18939    0.01203     3.20099
      C    3   -0.02506      0.99954     2.00795    0.01756     3.02506
      C    4   -0.29345      0.99962     2.28621    0.00762     3.29345
      C    5   -0.20860      0.99956     2.19676    0.01228     3.20860
      C    6    0.05463      0.99955     1.93324    0.01258     2.94537
      C    7   -0.29322      0.99965     2.28808    0.00549     3.29322
      O    8   -0.37474      0.99990     3.36849    0.00635     4.37474
      C    9   -0.07205      0.99949     2.05956    0.01300     3.07205
      C   10   -0.28965      0.99963     2.28377    0.00626     3.28965
      C   11   -0.28404      0.99963     2.27717    0.00724     3.28404
      C   12    0.41854      0.99961     1.55506    0.02679     2.58146
      O   13   -0.32245      0.99986     3.31600    0.00659     4.32245
      O   14   -0.13294      0.99984     3.12419    0.00891     4.13294
      O   15   -0.20704      0.99991     3.20114    0.00599     4.20704
      H   16    0.09729      0.00000     0.40160    0.00111     0.40271
      H   17    0.10227      0.00000     0.39678    0.00095     0.39773
      H   18    0.09146      0.00000     0.40751    0.00102     0.40854
      H   19    0.10077      0.00000     0.39716    0.00207     0.39923
      H   20    0.11128      0.00000     0.38717    0.00155     0.38872
      H   21    0.10278      0.00000     0.39613    0.00109     0.39722
      H   22    0.11040      0.00000     0.38855    0.00105     0.38960
      H   23    0.10091      0.00000     0.39805    0.00104     0.39909
      H   24    0.10718      0.00000     0.39126    0.00156     0.39282
      H   25    0.10262      0.00000     0.39548    0.00190     0.39738
      H   26    0.09187      0.00000     0.40555    0.00258     0.40813
      H   27    0.09712      0.00000     0.40158    0.00130     0.40288
      H   28    0.10191      0.00000     0.39724    0.00085     0.39809
      H   29    0.10177      0.00000     0.39728    0.00094     0.39823
      H   30    0.22867      0.00000     0.26730    0.00403     0.27133
      H   31    0.10206      0.00000     0.39717    0.00077     0.39794
      H   32    0.10261      0.00000     0.39646    0.00093     0.39739
      H   33    0.11310      0.00000     0.38548    0.00142     0.38690
      H   34    0.10972      0.00000     0.38935    0.00093     0.39028
      H   35    0.09922      0.00000     0.39997    0.00081     0.40078
      H   36    0.10621      0.00000     0.39282    0.00097     0.39379
      H   37    0.23490      0.00000     0.26065    0.00445     0.26510
 =======================================================================
   * Total *   -0.00000     14.99501    44.81778    0.18721    60.00000

 Normal termination of Gaussian 16 at Thu Dec 10 19:07:05 2020.
