 Gaussian 16, Revision A.03,

 -----------------------------------------------------------
 # opt freq B3LYP/6-31G(d) empiricaldispersion=gd3bj scf=xqc
 -----------------------------------------------------------

 ------------------------------
 CID_64286046_JID_7665_neutraal
 ------------------------------
 Symbolic Z-matrix:
 Charge =  0 Multiplicity = 1

 SCF Done:  E(RB3LYP) =  -785.837745921     A.U. after   14 cycles
 SCF Done:  E(RB3LYP) =  -785.843302894     A.U. after   11 cycles
 SCF Done:  E(RB3LYP) =  -785.844792985     A.U. after   11 cycles
 SCF Done:  E(RB3LYP) =  -785.846134710     A.U. after   12 cycles
 SCF Done:  E(RB3LYP) =  -785.847050741     A.U. after   14 cycles
 SCF Done:  E(RB3LYP) =  -785.847551142     A.U. after   11 cycles
 SCF Done:  E(RB3LYP) =  -785.847775625     A.U. after   11 cycles
 SCF Done:  E(RB3LYP) =  -785.847941601     A.U. after   11 cycles
 SCF Done:  E(RB3LYP) =  -785.847931227     A.U. after   10 cycles
 SCF Done:  E(RB3LYP) =  -785.848048342     A.U. after   11 cycles
 SCF Done:  E(RB3LYP) =  -785.848163887     A.U. after    9 cycles
 SCF Done:  E(RB3LYP) =  -785.848164016     A.U. after    7 cycles
 SCF Done:  E(RB3LYP) =  -785.848164279     A.U. after    8 cycles
 SCF Done:  E(RB3LYP) =  -785.848164345     A.U. after    7 cycles
 SCF Done:  E(RB3LYP) =  -785.848164364     A.U. after    6 cycles
 SCF Done:  E(RB3LYP) =  -785.848164363     A.U. after    6 cycles
 Optimization completed.
    -- Stationary point found.
 Normal termination of Gaussian 16 at Mon Dec 14 13:28:01 2020.

 --------------------------------------------------------------------
 #N Geom=AllCheck Guess=TCheck SCRF=Check GenChk RB3LYP/6-31G(d) Freq
 --------------------------------------------------------------------

 Structure from the checkpoint file:  "JID_7665.chk"
 ------------------------------
 CID_64286046_JID_7665_neutraal
 ------------------------------
 Charge =  0 Multiplicity = 1

 SCF Done:  E(RB3LYP) =  -785.848164363     A.U. after    1 cycles

  Exact polarizability: 190.625  12.659 133.204   2.411   4.566 132.640
 Approx polarizability: 234.311  20.800 186.468  -0.579  13.290 211.259

                      1                      2                      3
                      A                      A                      A
 Frequencies --     13.6938                19.5192                32.4581
 Red. masses --      4.1649                 3.1756                 4.0764
 Frc consts  --      0.0005                 0.0007                 0.0025
 IR Inten    --      0.1808                 0.3120                 1.0081

                      4                      5                      6
                      A                      A                      A
 Frequencies --     40.0016                77.9124                90.6463
 Red. masses --      4.0962                 4.1541                 3.1751
 Frc consts  --      0.0039                 0.0149                 0.0154
 IR Inten    --      0.2297                 0.9086                 1.2486

                      7                      8                      9
                      A                      A                      A
 Frequencies --    104.6916               127.8049               140.5369
 Red. masses --      2.3446                 3.5368                 3.6678
 Frc consts  --      0.0151                 0.0340                 0.0427
 IR Inten    --      3.4338                 1.9058                 2.0847

                     10                     11                     12
                      A                      A                      A
 Frequencies --    183.3732               201.3291               228.3928
 Red. masses --      3.3397                 2.9930                 1.2563
 Frc consts  --      0.0662                 0.0715                 0.0386
 IR Inten    --      1.2159                 0.5377                 3.5783

                     13                     14                     15
                      A                      A                      A
 Frequencies --    229.4252               268.0320               275.4639
 Red. masses --      1.1302                 2.4775                 1.5151
 Frc consts  --      0.0351                 0.1049                 0.0677
 IR Inten    --      1.6665                 0.3657                 1.6739

                     16                     17                     18
                      A                      A                      A
 Frequencies --    276.3481               297.5570               316.9119
 Red. masses --      1.6765                 2.7682                 1.0854
 Frc consts  --      0.0754                 0.1444                 0.0642
 IR Inten    --      1.2990                 0.5318                 0.0033

                     19                     20                     21
                      A                      A                      A
 Frequencies --    327.2850               351.8977               356.4252
 Red. masses --      2.3775                 2.5075                 2.6253
 Frc consts  --      0.1500                 0.1829                 0.1965
 IR Inten    --      0.3380                 0.7392                 0.8866

                     22                     23                     24
                      A                      A                      A
 Frequencies --    377.6786               397.5912               425.4850
 Red. masses --      3.0022                 2.5517                 1.8124
 Frc consts  --      0.2523                 0.2377                 0.1933
 IR Inten    --      4.6252                 3.3321                19.7280

                     25                     26                     27
                      A                      A                      A
 Frequencies --    449.3554               456.3254               503.5198
 Red. masses --      1.5373                 3.0575                 3.3716
 Frc consts  --      0.1829                 0.3751                 0.5036
 IR Inten    --    113.8398                 2.1761                 4.7319

                     28                     29                     30
                      A                      A                      A
 Frequencies --    534.3784               604.8303               634.7280
 Red. masses --      3.5707                 3.0658                 2.6301
 Frc consts  --      0.6008                 0.6608                 0.6243
 IR Inten    --      3.1123                 3.2283                 5.5013

                     31                     32                     33
                      A                      A                      A
 Frequencies --    649.9204               684.2722               752.9998
 Red. masses --      3.2243                 6.5744                 1.8672
 Frc consts  --      0.8024                 1.8137                 0.6238
 IR Inten    --     14.6701                 5.1559                66.5638

                     34                     35                     36
                      A                      A                      A
 Frequencies --    771.4272               794.3868               835.2124
 Red. masses --      1.8173                 1.4823                 2.6661
 Frc consts  --      0.6372                 0.5511                 1.0958
 IR Inten    --     37.2007                10.9247                 1.7236

                     37                     38                     39
                      A                      A                      A
 Frequencies --    854.3250               878.0344               919.1526
 Red. masses --      2.6917                 1.3298                 2.0735
 Frc consts  --      1.1575                 0.6041                 1.0321
 IR Inten    --     16.9521                11.9827                22.3713

                     40                     41                     42
                      A                      A                      A
 Frequencies --    939.2628               951.3249               964.6919
 Red. masses --      1.7197                 1.6037                 2.1916
 Frc consts  --      0.8939                 0.8551                 1.2017
 IR Inten    --      0.0999                 1.4463                29.3699

                     43                     44                     45
                      A                      A                      A
 Frequencies --    982.3492               988.9826              1003.5726
 Red. masses --      1.1998                 2.2407                 4.1407
 Frc consts  --      0.6822                 1.2913                 2.4571
 IR Inten    --      0.0610                 2.2866                50.6374

                     46                     47                     48
                      A                      A                      A
 Frequencies --   1015.8064              1052.0712              1064.8800
 Red. masses --      2.1633                 3.3654                 1.5052
 Frc consts  --      1.3152                 2.1947                 1.0057
 IR Inten    --     31.4706                11.9189                 5.6607

                     49                     50                     51
                      A                      A                      A
 Frequencies --   1067.7532              1092.6035              1102.4774
 Red. masses --      1.3912                 1.9598                 2.9736
 Frc consts  --      0.9345                 1.3784                 2.1295
 IR Inten    --      0.1596                24.5414                81.4199

                     52                     53                     54
                      A                      A                      A
 Frequencies --   1142.7836              1144.6457              1171.6680
 Red. masses --      2.2748                 1.9904                 3.7892
 Frc consts  --      1.7504                 1.5365                 3.0648
 IR Inten    --     25.5414                23.6642                35.9003

                     55                     56                     57
                      A                      A                      A
 Frequencies --   1173.1169              1194.5523              1208.6341
 Red. masses --      3.7102                 1.2957                 1.4164
 Frc consts  --      3.0084                 1.0893                 1.2191
 IR Inten    --    113.2641                 3.2629                 5.3255

                     58                     59                     60
                      A                      A                      A
 Frequencies --   1222.2975              1236.6683              1258.7019
 Red. masses --      1.5210                 1.3224                 2.6896
 Frc consts  --      1.3389                 1.1916                 2.5106
 IR Inten    --     21.8552                20.1305                 3.5387

                     61                     62                     63
                      A                      A                      A
 Frequencies --   1262.1494              1269.9096              1276.3182
 Red. masses --      2.1543                 2.7500                 1.2109
 Frc consts  --      2.0220                 2.6130                 1.1622
 IR Inten    --     57.4670                 9.6375                39.3269

                     64                     65                     66
                      A                      A                      A
 Frequencies --   1302.1357              1310.3309              1328.5549
 Red. masses --      1.3183                 1.5172                 2.4704
 Frc consts  --      1.3170                 1.5348                 2.5691
 IR Inten    --      9.5893                12.0566                15.3765

                     67                     68                     69
                      A                      A                      A
 Frequencies --   1372.1850              1390.7422              1412.8554
 Red. masses --      1.4843                 1.7460                 1.4398
 Frc consts  --      1.6466                 1.9897                 1.6933
 IR Inten    --     55.0936                30.1450                 7.9587

                     70                     71                     72
                      A                      A                      A
 Frequencies --   1420.6188              1422.6775              1424.2945
 Red. masses --      2.5487                 1.2474                 1.5226
 Frc consts  --      3.0306                 1.4876                 1.8199
 IR Inten    --     31.1763                 9.3530                12.4482

                     73                     74                     75
                      A                      A                      A
 Frequencies --   1426.8289              1448.7606              1454.9574
 Red. masses --      1.3283                 3.2750                 1.3807
 Frc consts  --      1.5932                 4.0500                 1.7221
 IR Inten    --     15.0404                43.1185                 0.0976

                     76                     77                     78
                      A                      A                      A
 Frequencies --   1459.2764              1464.6864              1499.2529
 Red. masses --      1.3852                 2.5799                 1.1226
 Frc consts  --      1.7379                 3.2610                 1.4867
 IR Inten    --     43.6554                 9.4060                14.7054

                     79                     80                     81
                      A                      A                      A
 Frequencies --   1502.9342              1503.6525              1510.5077
 Red. masses --      1.0473                 1.1300                 1.2524
 Frc consts  --      1.3938                 1.5053                 1.6836
 IR Inten    --      0.0358                 1.5930                27.0168

                     82                     83                     84
                      A                      A                      A
 Frequencies --   1515.2457              1521.1060              1522.2460
 Red. masses --      1.0487                 1.0453                 1.0466
 Frc consts  --      1.4186                 1.4250                 1.4288
 IR Inten    --      4.8082                 0.0220                 1.7475

                     85                     86                     87
                      A                      A                      A
 Frequencies --   1527.3709              1529.4769              1533.5915
 Red. masses --      1.0655                 1.0644                 1.0517
 Frc consts  --      1.4645                 1.4670                 1.4574
 IR Inten    --      6.2898                17.0569                 5.0305

                     88                     89                     90
                      A                      A                      A
 Frequencies --   1545.1078              1551.3036              1554.3205
 Red. masses --      1.0831                 1.0877                 1.0662
 Frc consts  --      1.5235                 1.5422                 1.5177
 IR Inten    --      1.8129                 3.6786                 4.1684

                     91                     92                     93
                      A                      A                      A
 Frequencies --   1622.4320              2933.7226              2988.5688
 Red. masses --      5.3567                 1.0740                 1.0504
 Frc consts  --      8.3077                 5.4464                 5.5274
 IR Inten    --     17.9846                67.4016                37.8832

                     94                     95                     96
                      A                      A                      A
 Frequencies --   3000.8074              3024.0887              3029.4337
 Red. masses --      1.0428                 1.0850                 1.1047
 Frc consts  --      5.5327                 5.8462                 5.9733
 IR Inten    --     66.2657                34.2265                83.4323

                     97                     98                     99
                      A                      A                      A
 Frequencies --   3044.3833              3055.9042              3056.6069
 Red. masses --      1.1055                 1.0356                 1.0604
 Frc consts  --      6.0371                 5.6979                 5.8369
 IR Inten    --     51.1204                14.9508                42.3056

                    100                    101                    102
                      A                      A                      A
 Frequencies --   3057.2398              3064.1868              3077.9671
 Red. masses --      1.0360                 1.0372                 1.0869
 Frc consts  --      5.7054                 5.7376                 6.0670
 IR Inten    --     24.5385                17.2082                19.5829

                    103                    104                    105
                      A                      A                      A
 Frequencies --   3107.0531              3122.8489              3126.4166
 Red. masses --      1.1039                 1.1036                 1.1028
 Frc consts  --      6.2788                 6.3412                 6.3513
 IR Inten    --     45.3688                 1.8014                21.6511

                    106                    107                    108
                      A                      A                      A
 Frequencies --   3128.4017              3137.2188              3140.7412
 Red. masses --      1.1030                 1.1014                 1.0976
 Frc consts  --      6.3604                 6.3865                 6.3789
 IR Inten    --     36.9677                53.4238                28.8344

                    109                    110                    111
                      A                      A                      A
 Frequencies --   3155.7694              3159.6338              3266.8318
 Red. masses --      1.1015                 1.1009                 1.0961
 Frc consts  --      6.4635                 6.4755                 6.8920
 IR Inten    --      2.0258                19.9320                 4.0680

                    112                    113                    114
                      A                      A                      A
 Frequencies --   3291.9106              3509.6057              3711.0175
 Red. masses --      1.0964                 1.0741                 1.0652
 Frc consts  --      7.0005                 7.7948                 8.6433
 IR Inten    --      0.8620                 0.2675                25.0511

 - Thermochemistry -
 -------------------
 Temperature   298.150 Kelvin.  Pressure   1.00000 Atm.
 Atom     1 has atomic number  6 and mass  12.00000

 Molecular mass:   241.17903 amu.
 Principal axes and moments of inertia in atomic units:
                           1         2         3
     Eigenvalues --  1881.12566********************
           X            0.99999  -0.00017   0.00495
           Y            0.00017   1.00000  -0.00120
           Z           -0.00495   0.00120   0.99999
 This molecule is an asymmetric top.
 Rotational symmetry number  1.
 Warning -- assumption of classical behavior for rotation
           may cause significant error
 Rotational temperatures (Kelvin)      0.04604     0.00775     0.00731
 Rotational constants (GHZ):           0.95939     0.16143     0.15235
 Zero-point vibrational energy     930326.0 (Joules/Mol)
                                  222.35325 (Kcal/Mol)
 Warning -- explicit consideration of  29 degrees of freedom as
           vibrations may cause significant error
 Vibrational temperatures:     19.70    28.08    46.70    57.55   112.10
          (Kelvin)            130.42   150.63   183.88   202.20   263.83
                              289.67   328.61   330.09   385.64   396.33
                              397.60   428.12   455.97   470.89   506.30
                              512.82   543.40   572.05   612.18   646.52
                              656.55   724.45   768.85   870.22   913.23
                              935.09   984.52  1083.40  1109.91  1142.95
                             1201.68  1229.18  1263.30  1322.46  1351.39
                             1368.74  1387.98  1413.38  1422.93  1443.92
                             1461.52  1513.70  1532.12  1536.26  1572.01
                             1586.22  1644.21  1646.89  1685.77  1687.85
                             1718.69  1738.95  1758.61  1779.29  1810.99
                             1815.95  1827.12  1836.34  1873.48  1885.27
                             1911.49  1974.27  2000.97  2032.78  2043.95
                             2046.92  2049.24  2052.89  2084.44  2093.36
                             2099.57  2107.36  2157.09  2162.39  2163.42
                             2173.28  2180.10  2188.53  2190.17  2197.55
                             2200.58  2206.50  2223.07  2231.98  2236.32
                             2334.32  4220.97  4299.88  4317.49  4350.99
                             4358.68  4380.19  4396.76  4397.78  4398.69
                             4408.68  4428.51  4470.36  4493.08  4498.22
                             4501.07  4513.76  4518.83  4540.45  4546.01
                             4700.24  4736.33  5049.54  5339.33

 Zero-point correction=                           0.354342 (Hartree/Particle)
 Thermal correction to Energy=                    0.373490
 Thermal correction to Enthalpy=                  0.374434
 Thermal correction to Gibbs Free Energy=         0.304265
 Sum of electronic and zero-point Energies=           -785.493822
 Sum of electronic and thermal Energies=              -785.474675
 Sum of electronic and thermal Enthalpies=            -785.473730
 Sum of electronic and thermal Free Energies=         -785.543899

                     E (Thermal)             CV                S
                      KCal/Mol        Cal/Mol-Kelvin    Cal/Mol-Kelvin
 Total                  234.368             70.837            147.682
 Electronic               0.000              0.000              0.000
 Translational            0.889              2.981             42.342
 Rotational               0.889              2.981             33.876
 Vibrational            232.591             64.876             71.464
 Vibration     1          0.593              1.986              7.387
 Vibration     2          0.593              1.986              6.683
 Vibration     3          0.594              1.983              5.673
 Vibration     4          0.594              1.981              5.259
 Vibration     5          0.599              1.964              3.943
 Vibration     6          0.602              1.956              3.646
 Vibration     7          0.605              1.945              3.365
 Vibration     8          0.611              1.925              2.979
 Vibration     9          0.615              1.913              2.797
 Vibration    10          0.631              1.862              2.294
 Vibration    11          0.638              1.838              2.121
 Vibration    12          0.651              1.798              1.892
 Vibration    13          0.652              1.796              1.883
 Vibration    14          0.673              1.732              1.609
 Vibration    15          0.677              1.719              1.562
 Vibration    16          0.678              1.717              1.556
 Vibration    17          0.691              1.678              1.431
 Vibration    18          0.704              1.641              1.326
 Vibration    19          0.711              1.621              1.273
 Vibration    20          0.728              1.571              1.158
 Vibration    21          0.732              1.562              1.138
 Vibration    22          0.748              1.518              1.048
 Vibration    23          0.764              1.475              0.972
 Vibration    24          0.787              1.415              0.874
 Vibration    25          0.808              1.362              0.798
 Vibration    26          0.815              1.347              0.777
 Vibration    27          0.859              1.242              0.649
 Vibration    28          0.889              1.174              0.578
 Vibration    29          0.963              1.022              0.441

 Optimization completed.
    -- Stationary point found.
 Normal termination of Gaussian 16 at Mon Dec 14 13:41:14 2020.

 ----------------------------------------------------------------------
 # B3LYP/6-311++G(d,p) empiricaldispersion=gd3bj scf=xqc pop=npa geom=c
 heck
 ----------------------------------------------------------------------

 --------------------------------------
 CID_64286046_JID_7665_Energie_neutraal
 --------------------------------------
 Structure from the checkpoint file:  "JID_7665.chk"
 Charge =  0 Multiplicity = 1

 SCF Done:  E(RB3LYP) =  -786.082475988     A.U. after   14 cycles
 Normal termination of Gaussian 16 at Mon Dec 14 13:48:20 2020.

 ----------------------------------------------------------------------
 # B3LYP/6-311++G(d,p) empiricaldispersion=gd3bj scf=xqc pop=npa geom=c
 heck
 ----------------------------------------------------------------------

 ------------------------------------
 CID_64286046_JID_7665_Energie_kation
 ------------------------------------
 Structure from the checkpoint file:  "JID_7665.chk"
 Charge =  1 Multiplicity = 2

 SCF Done:  E(UB3LYP) =  -785.795292108     A.U. after   24 cycles
 Normal termination of Gaussian 16 at Mon Dec 14 14:06:11 2020.
 Gaussian 16:  ES64L-G16RevA.03 25-Dec-2016

 ----------------------------------------------------------------------
 # B3LYP/6-311++G(d,p) empiricaldispersion=gd3bj scf=xqc pop=npa geom=c
 heck
 ----------------------------------------------------------------------

 -----------------------------------
 CID_64286046_JID_7665_Energie_anion
 -----------------------------------
 Structure from the checkpoint file:  "JID_7665.chk"
 Charge = -1 Multiplicity = 2

                         Standard orientation:
 ---------------------------------------------------------------------
 Center     Atomic      Atomic             Coordinates (Angstroms)
 Number     Number       Type             X           Y           Z
 ---------------------------------------------------------------------
      1          6           0        4.374898    1.581158   -0.858047
      2          6           0        4.130115    0.514207    0.219792
      3          6           0        5.218992   -0.568253    0.166877
      4          6           0        4.093855    1.161226    1.607086
      5          7           0        2.828168   -0.130676   -0.059157
      6          6           0        1.706749   -0.200199    0.710516
      7          6           0        0.760418   -0.917026   -0.003019
      8          6           0        1.416149   -1.233928   -1.215549
      9          7           0        2.660551   -0.759537   -1.247026
     10          6           0       -0.636530   -1.268090    0.409294
     11          7           0       -1.569191   -1.026405   -0.690578
     12          6           0       -2.958569   -1.372555   -0.425188
     13          6           0       -3.656173   -0.659335    0.755086
     14          6           0       -3.561414    0.858852    0.663414
     15          8           0       -4.203513    1.242682   -0.543489
     16          6           0       -4.302717    2.642520   -0.697390
     17          8           0       -5.020969   -1.060461    0.823745
     18          1           0        5.348781    2.057716   -0.702896
     19          1           0        3.598922    2.353067   -0.817166
     20          1           0        4.355350    1.124695   -1.850066
     21          1           0        6.204348   -0.120714    0.335522
     22          1           0        5.044040   -1.326509    0.937503
     23          1           0        5.213068   -1.060009   -0.808342
     24          1           0        3.323261    1.936709    1.670728
     25          1           0        3.916181    0.420052    2.393306
     26          1           0        5.061063    1.633058    1.803384
     27          1           0        1.651493    0.248299    1.690006
     28          1           0        1.018645   -1.778293   -2.061274
     29          1           0       -0.712028   -2.336593    0.659246
     30          1           0       -0.879994   -0.723398    1.341077
     31          1           0       -1.492738   -0.061507   -1.003827
     32          1           0       -3.533321   -1.160695   -1.333350
     33          1           0       -3.024975   -2.452667   -0.246400
     34          1           0       -3.206354   -0.971975    1.703905
     35          1           0       -4.069581    1.313420    1.528043
     36          1           0       -2.511936    1.196375    0.667653
     37          1           0       -4.881738    3.098846    0.120510
     38          1           0       -3.308754    3.115823   -0.725116
     39          1           0       -4.812648    2.829326   -1.645708
     40          1           0       -5.456563   -0.607928    0.081311
 ---------------------------------------------------------------------

 SCF Done:  E(UB3LYP) =  -786.073500854     A.U. after   32 cycles

 The electronic state is 2-A.
 Alpha  occ. eigenvalues --  -19.05038 -19.04003 -14.29162 -14.23237 -14.21222
 Alpha  occ. eigenvalues --  -10.14124 -10.13638 -10.13213 -10.12789 -10.11388
 Alpha  occ. eigenvalues --  -10.10969 -10.10589 -10.09248 -10.07718 -10.07675
 Alpha  occ. eigenvalues --  -10.07460 -10.07201  -0.96727  -0.95474  -0.93846
 Alpha  occ. eigenvalues --   -0.82273  -0.76986  -0.70551  -0.68761  -0.67169
 Alpha  occ. eigenvalues --   -0.62454  -0.60795  -0.60613  -0.58974  -0.55916
 Alpha  occ. eigenvalues --   -0.52404  -0.50619  -0.48838  -0.45968  -0.43467
 Alpha  occ. eigenvalues --   -0.42267  -0.41367  -0.40617  -0.38925  -0.37985
 Alpha  occ. eigenvalues --   -0.37220  -0.37111  -0.36138  -0.34649  -0.34121
 Alpha  occ. eigenvalues --   -0.33513  -0.32871  -0.32665  -0.31012  -0.30537
 Alpha  occ. eigenvalues --   -0.29951  -0.29077  -0.28924  -0.28364  -0.28251
 Alpha  occ. eigenvalues --   -0.27530  -0.25656  -0.25599  -0.25110  -0.24879
 Alpha  occ. eigenvalues --   -0.20865  -0.19805  -0.18720  -0.16283  -0.15037
 Alpha  occ. eigenvalues --   -0.13550   0.03774
 Alpha virt. eigenvalues --    0.05409   0.06611   0.07300   0.07815   0.08017
 Alpha virt. eigenvalues --    0.08070   0.08800   0.09026   0.09298   0.09812
 Alpha virt. eigenvalues --    0.09910   0.10753   0.10942   0.11231   0.11433

  Beta  occ. eigenvalues --  -19.05029 -19.03999 -14.29161 -14.23235 -14.21216
  Beta  occ. eigenvalues --  -10.14122 -10.13634 -10.13188 -10.12745 -10.11379
  Beta  occ. eigenvalues --  -10.10952 -10.10588 -10.09246 -10.07676 -10.07675
  Beta  occ. eigenvalues --  -10.07440 -10.07180  -0.96714  -0.95469  -0.93836
  Beta  occ. eigenvalues --   -0.82262  -0.76977  -0.70537  -0.68742  -0.67143
  Beta  occ. eigenvalues --   -0.62421  -0.60742  -0.60573  -0.58927  -0.55865
  Beta  occ. eigenvalues --   -0.52376  -0.50588  -0.48816  -0.45935  -0.43430
  Beta  occ. eigenvalues --   -0.42234  -0.41322  -0.40594  -0.38894  -0.37964
  Beta  occ. eigenvalues --   -0.37201  -0.37084  -0.36113  -0.34618  -0.34098
  Beta  occ. eigenvalues --   -0.33482  -0.32852  -0.32640  -0.30981  -0.30513
  Beta  occ. eigenvalues --   -0.29928  -0.29056  -0.28896  -0.28333  -0.28231
  Beta  occ. eigenvalues --   -0.27518  -0.25629  -0.25567  -0.25059  -0.24858
  Beta  occ. eigenvalues --   -0.20850  -0.19796  -0.18696  -0.16275  -0.15030
  Beta  occ. eigenvalues --   -0.13540
  Beta virt. eigenvalues --    0.05951   0.06276   0.07096   0.07565   0.08211
  Beta virt. eigenvalues --    0.08314   0.08490   0.09010   0.09189   0.09657
  Beta virt. eigenvalues --    0.09990   0.10152   0.10909   0.11156   0.11443

 Mulliken charges and spin densities:
               1          2
     1  C    0.503644  -0.975636
     2  C   -1.950243   1.656254
     3  C    0.542540  -1.012852
     4  C    0.556613  -0.930574
     5  N    0.629812  -0.104335
     6  C   -1.224050   0.830206
     7  C    2.229827  -0.810351
     8  C   -0.191614   0.048704
     9  N   -0.187968   0.081032
    10  C   -0.644749  -1.336701
    11  N   -0.053443   0.054292
    12  C   -0.316918  -0.117580
    13  C   -0.178948  -0.073845
    14  C   -0.128325  -0.235034
    15  O   -0.215409   0.068233
    16  C    0.788617  -1.016848
    17  O   -0.193352   0.006348
    18  H   -0.014052   0.152364
    19  H   -0.099401   0.263967
    20  H    0.114492   0.051355
    21  H   -0.069655   0.210746
    22  H   -0.020020   0.174106
    23  H    0.127215   0.039284
    24  H   -0.270560   0.428150
    25  H   -0.147945   0.292851
    26  H   -0.448940   0.639032
    27  H   -0.494107   0.677788
    28  H    0.124699   0.023628
    29  H    0.104735   0.049790
    30  H    0.110011   0.027513
    31  H    0.241189  -0.001877
    32  H    0.184618   0.019641
    33  H    0.127801   0.012127
    34  H    0.064740   0.165924
    35  H   -0.136253   0.309591
    36  H    0.146506   0.056811
    37  H   -0.275968   0.410398
    38  H   -0.368687   0.511611
    39  H   -0.203286   0.339378
    40  H    0.236835   0.014509
 Sum of Mulliken charges =  -1.00000   1.00000

 Dipole moment (field-independent basis, Debye):
    X=             -1.2497    Y=             -5.3092    Z=             -2.4261  Tot=              5.9695
 Quadrupole moment (field-independent basis, Debye-Ang):
   XX=           -215.2510   YY=           -155.0628   ZZ=           -144.4281
   XY=              2.3664   XZ=             -3.4612   YZ=             -4.0738

 Summary of Natural Population Analysis:

                                       Natural Population
                Natural  -----------------------------------------------
    Atom  No    Charge         Core      Valence    Rydberg      Total
 -----------------------------------------------------------------------
      C    1   -0.28770      0.99961     2.28131    0.00677     3.28770
      C    2    0.06846      0.99958     1.91826    0.01370     2.93154
      C    3   -0.28739      0.99961     2.28107    0.00671     3.28739
      C    4   -0.29313      0.99962     2.28617    0.00734     3.29313
      N    5   -0.11393      0.99963     2.59835    0.01596     3.61393
      C    6   -0.00208      0.99949     1.99090    0.01169     3.00208
      C    7   -0.08231      0.99952     2.07219    0.01059     3.08231
      C    8   -0.00608      0.99957     1.99307    0.01344     3.00608
      N    9   -0.15710      0.99973     2.64676    0.01061     3.65710
      C   10   -0.09255      0.99959     2.08234    0.01062     3.09255
      N   11   -0.33742      0.99975     2.82695    0.01072     3.83742
      C   12   -0.09769      0.99961     2.08582    0.01226     3.09769
      C   13    0.04364      0.99956     1.94216    0.01463     2.95636
      C   14   -0.02418      0.99957     2.01155    0.01307     3.02418
      O   15   -0.31023      0.99988     3.29993    0.01042     4.31023
      C   16   -0.09583      0.99962     2.08700    0.00920     3.09583
      O   17   -0.37125      0.99990     3.36476    0.00659     4.37125
      H   18    0.09993      0.00000     0.39924    0.00083     0.40007
      H   19    0.10468      0.00000     0.39434    0.00099     0.39532
      H   20    0.10947      0.00000     0.38936    0.00117     0.39053
      H   21    0.10050      0.00000     0.39871    0.00079     0.39950
      H   22    0.10178      0.00000     0.39740    0.00082     0.39822
      H   23    0.10961      0.00000     0.38929    0.00110     0.39039
      H   24    0.10721      0.00000     0.39090    0.00189     0.39279
      H   25    0.10374      0.00000     0.39481    0.00145     0.39626
      H   26    0.10782      0.00000     0.39084    0.00134     0.39218
      H   27    0.11039      0.00000     0.38799    0.00162     0.38961
      H   28    0.10011      0.00000     0.39891    0.00098     0.39989
      H   29    0.09341      0.00000     0.40544    0.00115     0.40659
      H   30    0.08278      0.00000     0.41481    0.00241     0.41722
      H   31    0.17575      0.00000     0.32110    0.00315     0.32425
      H   32    0.09847      0.00000     0.40036    0.00117     0.40153
      H   33    0.09279      0.00000     0.40610    0.00111     0.40721
      H   34    0.08940      0.00000     0.40938    0.00122     0.41060
      H   35    0.08681      0.00000     0.41174    0.00145     0.41319
      H   36    0.08731      0.00000     0.41069    0.00200     0.41269
      H   37    0.08032      0.00000     0.41778    0.00190     0.41968
      H   38    0.08375      0.00000     0.41425    0.00200     0.41625
      H   39    0.08995      0.00000     0.40889    0.00116     0.41005
      H   40    0.23075      0.00000     0.26642    0.00283     0.26925
 =======================================================================
   * Total *   -0.00000     16.99385    48.78733    0.21882    66.00000

 Normal termination of Gaussian 16 at Mon Dec 14 14:29:49 2020.
