 Gaussian 16, Revision A.03,

 -----------------------------------------------------------
 # opt freq B3LYP/6-31G(d) empiricaldispersion=gd3bj scf=xqc
 -----------------------------------------------------------

 ------------------------------
 CID_63040950_JID_1783_neutraal
 ------------------------------
 Symbolic Z-matrix:
 Charge =  0 Multiplicity = 1

 SCF Done:  E(RB3LYP) =  -913.819612638     A.U. after   15 cycles
 SCF Done:  E(RB3LYP) =  -913.825820286     A.U. after   14 cycles
 SCF Done:  E(RB3LYP) =  -913.826847478     A.U. after   13 cycles
 SCF Done:  E(RB3LYP) =  -913.827062980     A.U. after   14 cycles
 SCF Done:  E(RB3LYP) =  -913.827499336     A.U. after   13 cycles
 SCF Done:  E(RB3LYP) =  -913.828185633     A.U. after   12 cycles
 SCF Done:  E(RB3LYP) =  -913.828152239     A.U. after   12 cycles
 SCF Done:  E(RB3LYP) =  -913.828289268     A.U. after   11 cycles
 SCF Done:  E(RB3LYP) =  -913.828317628     A.U. after   11 cycles
 SCF Done:  E(RB3LYP) =  -913.828353947     A.U. after   12 cycles
 SCF Done:  E(RB3LYP) =  -913.828375161     A.U. after   11 cycles
 SCF Done:  E(RB3LYP) =  -913.828389608     A.U. after   11 cycles
 SCF Done:  E(RB3LYP) =  -913.828397484     A.U. after   11 cycles
 SCF Done:  E(RB3LYP) =  -913.828399820     A.U. after   10 cycles
 SCF Done:  E(RB3LYP) =  -913.828399991     A.U. after    8 cycles
 Optimization completed.
    -- Stationary point found.
 Normal termination of Gaussian 16 at Tue Dec  8 21:18:31 2020.

 --------------------------------------------------------------------
 #N Geom=AllCheck Guess=TCheck SCRF=Check GenChk RB3LYP/6-31G(d) Freq
 --------------------------------------------------------------------

 Structure from the checkpoint file:  "JID_1783.chk"
 ------------------------------
 CID_63040950_JID_1783_neutraal
 ------------------------------
 Charge =  0 Multiplicity = 1

 SCF Done:  E(RB3LYP) =  -913.828399991     A.U. after    1 cycles

  Exact polarizability:  97.515  -1.299  91.985   2.585  -1.912  77.661
 Approx polarizability: 136.342   2.764 139.383  -2.947  -2.931 127.492

                      1                      2                      3
                      A                      A                      A
 Frequencies --     30.8800                73.2436                97.5224
 Red. masses --      5.1288                 4.3715                 5.1281
 Frc consts  --      0.0029                 0.0138                 0.0287
 IR Inten    --      5.8514                 3.6261                 8.0865

                      4                      5                      6
                      A                      A                      A
 Frequencies --    132.2899               138.1912               223.5550
 Red. masses --      3.2422                 3.8708                 2.9922
 Frc consts  --      0.0334                 0.0436                 0.0881
 IR Inten    --      2.8847                 2.4182                 6.7440

                      7                      8                      9
                      A                      A                      A
 Frequencies --    257.3696               305.8907               322.2604
 Red. masses --      4.2445                 2.2823                 2.4830
 Frc consts  --      0.1656                 0.1258                 0.1519
 IR Inten    --      0.0971                 0.9696                 0.5444

                     10                     11                     12
                      A                      A                      A
 Frequencies --    372.0915               379.8135               457.2699
 Red. masses --      5.0100                 3.2510                 3.8028
 Frc consts  --      0.4087                 0.2763                 0.4685
 IR Inten    --      8.3758                 1.1985                25.1452

                     13                     14                     15
                      A                      A                      A
 Frequencies --    486.8579               517.7179               532.7531
 Red. masses --      3.0309                 3.7047                 3.7537
 Frc consts  --      0.4233                 0.5850                 0.6277
 IR Inten    --     14.5896                15.0029                 7.8404

                     16                     17                     18
                      A                      A                      A
 Frequencies --    558.8811               643.0668               720.0773
 Red. masses --      3.9916                 4.6677                 3.4963
 Frc consts  --      0.7346                 1.1373                 1.0681
 IR Inten    --     10.1562                48.0626                71.2061

                     19                     20                     21
                      A                      A                      A
 Frequencies --    782.6675               846.1262               863.0459
 Red. masses --      2.1521                 1.8186                 1.4977
 Frc consts  --      0.7767                 0.7671                 0.6573
 IR Inten    --     28.8313                24.8063                14.0291

                     22                     23                     24
                      A                      A                      A
 Frequencies --    891.0255               913.9468               981.5589
 Red. masses --      1.9568                 2.3309                 2.3384
 Frc consts  --      0.9153                 1.1471                 1.3274
 IR Inten    --      5.0567                 3.5654                 7.1874

                     25                     26                     27
                      A                      A                      A
 Frequencies --   1022.7688              1027.6330              1038.6460
 Red. masses --      2.7879                 1.9775                 1.7738
 Frc consts  --      1.7182                 1.2304                 1.1274
 IR Inten    --     33.2226                 6.5653                 3.8713

                     28                     29                     30
                      A                      A                      A
 Frequencies --   1056.8560              1117.9088              1122.2292
 Red. masses --      1.5493                 1.9753                 7.7878
 Frc consts  --      1.0196                 1.4544                 5.7787
 IR Inten    --     14.1628                29.7732               143.7610

                     31                     32                     33
                      A                      A                      A
 Frequencies --   1162.4289              1209.6975              1213.4766
 Red. masses --      2.3449                 1.4771                 1.5434
 Frc consts  --      1.8668                 1.2735                 1.3390
 IR Inten    --     41.4753                 1.8127                10.5284

                     34                     35                     36
                      A                      A                      A
 Frequencies --   1235.2376              1288.6473              1311.5483
 Red. masses --      1.3863                 1.4870                 1.5709
 Frc consts  --      1.2463                 1.4549                 1.5920
 IR Inten    --     18.7579                14.3009                50.3114

                     37                     38                     39
                      A                      A                      A
 Frequencies --   1317.7667              1328.1037              1367.2902
 Red. masses --      1.6380                 4.9949                 1.3141
 Frc consts  --      1.6759                 5.1909                 1.4474
 IR Inten    --     72.7717               156.1245                20.8320

                     40                     41                     42
                      A                      A                      A
 Frequencies --   1379.5407              1402.4807              1412.8811
 Red. masses --      1.2132                 1.2313                 1.2214
 Frc consts  --      1.3604                 1.4270                 1.4365
 IR Inten    --      4.5817                 1.8707                26.4394

                     43                     44                     45
                      A                      A                      A
 Frequencies --   1442.9347              1490.7316              1495.9940
 Red. masses --      1.2185                 1.0884                 1.1033
 Frc consts  --      1.4948                 1.4251                 1.4548
 IR Inten    --      2.2749                 5.3720                 8.5060

                     46                     47                     48
                      A                      A                      A
 Frequencies --   1510.2324              1529.5541              1539.6837
 Red. masses --      1.0774                 1.0878                 1.0886
 Frc consts  --      1.4478                 1.4994                 1.5205
 IR Inten    --      7.4297                 8.1676                 2.1461

                     49                     50                     51
                      A                      A                      A
 Frequencies --   1822.6099              2883.8053              3038.5479
 Red. masses --      9.5456                 1.0830                 1.0696
 Frc consts  --     18.6828                 5.3063                 5.8185
 IR Inten    --    145.6488               114.4394                 9.5927

                     52                     53                     54
                      A                      A                      A
 Frequencies --   3054.6201              3065.5887              3090.2143
 Red. masses --      1.0695                 1.0704                 1.0608
 Frc consts  --      5.8795                 5.9270                 5.9682
 IR Inten    --     33.3278                34.1652                15.8773

                     55                     56                     57
                      A                      A                      A
 Frequencies --   3111.1926              3132.7345              3142.7601
 Red. masses --      1.0590                 1.0964                 1.1056
 Frc consts  --      6.0393                 6.3399                 6.4336
 IR Inten    --      3.4857                14.8328                 8.5359

                     58                     59                     60
                      A                      A                      A
 Frequencies --   3145.6664              3157.4009              3177.4004
 Red. masses --      1.0962                 1.0942                 1.1095
 Frc consts  --      6.3910                 6.4268                 6.5996
 IR Inten    --      3.1535                 3.0242                 0.9199

 - Thermochemistry -
 -------------------
 Temperature   298.150 Kelvin.  Pressure   1.00000 Atm.
 Atom     1 has atomic number  6 and mass  12.00000

 Molecular mass:   177.04597 amu.
 Principal axes and moments of inertia in atomic units:
                           1         2         3
     Eigenvalues --  1068.965632386.806622744.93648
           X            0.99919  -0.03780   0.01388
           Y            0.03806   0.99909  -0.01903
           Z           -0.01315   0.01955   0.99972
 This molecule is an asymmetric top.
 Rotational symmetry number  1.
 Warning -- assumption of classical behavior for rotation
           may cause significant error
 Rotational temperatures (Kelvin)      0.08103     0.03629     0.03155
 Rotational constants (GHZ):           1.68831     0.75613     0.65748
 Zero-point vibrational energy     468786.1 (Joules/Mol)
                                  112.04257 (Kcal/Mol)
 Warning -- explicit consideration of  16 degrees of freedom as
           vibrations may cause significant error
 Vibrational temperatures:     44.43   105.38   140.31   190.34   198.83
          (Kelvin)            321.65   370.30   440.11   463.66   535.36
                              546.47   657.91   700.48   744.88   766.51
                              804.11   925.23  1036.03  1126.08  1217.39
                             1241.73  1281.99  1314.97  1412.24  1471.54
                             1478.53  1494.38  1520.58  1608.42  1614.64
                             1672.48  1740.48  1745.92  1777.23  1854.08
                             1887.03  1895.97  1910.85  1967.23  1984.85
                             2017.86  2032.82  2076.06  2144.83  2152.40
                             2172.89  2200.69  2215.26  2622.33  4149.15
                             4371.79  4394.92  4410.70  4446.13  4476.31
                             4507.31  4521.73  4525.91  4542.80  4571.57

 Zero-point correction=                           0.178551 (Hartree/Particle)
 Thermal correction to Energy=                    0.189632
 Thermal correction to Enthalpy=                  0.190576
 Thermal correction to Gibbs Free Energy=         0.140748
 Sum of electronic and zero-point Energies=           -913.649849
 Sum of electronic and thermal Energies=              -913.638768
 Sum of electronic and thermal Enthalpies=            -913.637824
 Sum of electronic and thermal Free Energies=         -913.687652

                     E (Thermal)             CV                S
                      KCal/Mol        Cal/Mol-Kelvin    Cal/Mol-Kelvin
 Total                  118.996             40.833            104.874
 Electronic               0.000              0.000              0.000
 Translational            0.889              2.981             41.421
 Rotational               0.889              2.981             30.328
 Vibrational            117.219             34.871             33.125
 Vibration     1          0.594              1.984              5.772
 Vibration     2          0.599              1.967              4.064
 Vibration     3          0.603              1.951              3.503
 Vibration     4          0.612              1.921              2.912
 Vibration     5          0.614              1.915              2.829
 Vibration     6          0.649              1.805              1.930
 Vibration     7          0.667              1.750              1.680
 Vibration     8          0.696              1.663              1.384
 Vibration     9          0.707              1.631              1.299
 Vibration    10          0.744              1.529              1.071
 Vibration    11          0.750              1.513              1.040
 Vibration    12          0.815              1.345              0.774
 Vibration    13          0.843              1.279              0.692
 Vibration    14          0.873              1.211              0.615
 Vibration    15          0.888              1.178              0.581
 Vibration    16          0.914              1.120              0.526

                           ! Non-Optimized Parameters !
 Normal termination of Gaussian 16 at Tue Dec  8 21:23:56 2020.

 ----------------------------------------------------------------------
 # B3LYP/6-311++G(d,p) empiricaldispersion=gd3bj scf=xqc pop=npa geom=c
 heck
 ----------------------------------------------------------------------

 --------------------------------------
 CID_63040950_JID_1783_Energie_neutraal
 --------------------------------------
 Structure from the checkpoint file:  "JID_1783.chk"
 Charge =  0 Multiplicity = 1

 SCF Done:  E(RB3LYP) =  -914.007510859     A.U. after   14 cycles
 Normal termination of Gaussian 16 at Tue Dec  8 21:27:38 2020.

 ----------------------------------------------------------------------
 # B3LYP/6-311++G(d,p) empiricaldispersion=gd3bj scf=xqc pop=npa geom=c
 heck
 ----------------------------------------------------------------------

 ------------------------------------
 CID_63040950_JID_1783_Energie_kation
 ------------------------------------
 Structure from the checkpoint file:  "JID_1783.chk"
 Charge =  1 Multiplicity = 2

 SCF Done:  E(UB3LYP) =  -913.674587861     A.U. after   23 cycles
 Normal termination of Gaussian 16 at Tue Dec  8 21:32:18 2020.
 Gaussian 16:  ES64L-G16RevA.03 25-Dec-2016

 ----------------------------------------------------------------------
 # B3LYP/6-311++G(d,p) empiricaldispersion=gd3bj scf=xqc pop=npa geom=c
 heck
 ----------------------------------------------------------------------

 -----------------------------------
 CID_63040950_JID_1783_Energie_anion
 -----------------------------------
 Structure from the checkpoint file:  "JID_1783.chk"
 Charge = -1 Multiplicity = 2

                         Standard orientation:
 ---------------------------------------------------------------------
 Center     Atomic      Atomic             Coordinates (Angstroms)
 Number     Number       Type             X           Y           Z
 ---------------------------------------------------------------------
      1          6           0        0.037978    1.904462   -0.094511
      2          6           0        0.203703    1.089872    1.204571
      3          7           0       -0.223237   -0.289051    0.935404
      4         16           0       -1.514053   -0.279335   -0.184618
      5          8           0       -2.791332   -0.417211    0.517898
      6          8           0       -1.188409   -1.209958   -1.275740
      7          6           0       -1.303628    1.475070   -0.688929
      8          6           0        0.754670   -1.368833    0.811690
      9          6           0        1.802691   -1.236563   -0.320498
     10          6           0        2.873767   -0.220370   -0.024905
     11          8           0        3.076774    0.789783   -0.665932
     12          1           0        0.857630    1.668825   -0.778132
     13          1           0        0.055677    2.980335    0.103505
     14          1           0        1.238249    1.085498    1.554868
     15          1           0       -0.416766    1.510260    2.005631
     16          1           0       -2.154202    2.013027   -0.264825
     17          1           0       -1.349019    1.502149   -1.778909
     18          1           0        1.254694   -1.459785    1.783263
     19          1           0        0.196789   -2.293559    0.656197
     20          1           0        2.300592   -2.213384   -0.409046
     21          1           0        1.311909   -1.011894   -1.269089
     22          1           0        3.500604   -0.451495    0.868275
 ---------------------------------------------------------------------

 SCF Done:  E(UB3LYP) =  -914.003383871     A.U. after   32 cycles

 The electronic state is 2-A.
 Alpha  occ. eigenvalues --  -88.94943 -19.01073 -19.00864 -18.96840 -14.22940
 Alpha  occ. eigenvalues --  -10.10754 -10.10358 -10.09954 -10.09946 -10.07838
 Alpha  occ. eigenvalues --  -10.05283  -8.01242  -5.97512  -5.97455  -5.97329
 Alpha  occ. eigenvalues --   -1.00897  -0.90355  -0.89927  -0.83536  -0.71051
 Alpha  occ. eigenvalues --   -0.65058  -0.62514  -0.56011  -0.51573  -0.46873
 Alpha  occ. eigenvalues --   -0.44445  -0.41685  -0.39855  -0.37233  -0.36337
 Alpha  occ. eigenvalues --   -0.34503  -0.33480  -0.33074  -0.32511  -0.30636
 Alpha  occ. eigenvalues --   -0.29902  -0.28237  -0.27170  -0.25465  -0.24720
 Alpha  occ. eigenvalues --   -0.24058  -0.22557  -0.21780  -0.20157  -0.19454
 Alpha  occ. eigenvalues --   -0.13757  -0.11792   0.04844
 Alpha virt. eigenvalues --    0.07046   0.08376   0.08878   0.10046   0.10239
 Alpha virt. eigenvalues --    0.11157   0.11251   0.12723   0.13516   0.13959
 Alpha virt. eigenvalues --    0.14383   0.15026   0.15616   0.16371   0.16957

  Beta  occ. eigenvalues --  -88.94942 -19.01068 -19.00860 -18.96449 -14.22944
  Beta  occ. eigenvalues --  -10.10730 -10.10316 -10.09865 -10.09616 -10.07828
  Beta  occ. eigenvalues --  -10.05314  -8.01242  -5.97509  -5.97455  -5.97329
  Beta  occ. eigenvalues --   -1.00889  -0.89923  -0.89614  -0.83519  -0.70999
  Beta  occ. eigenvalues --   -0.64875  -0.62457  -0.55784  -0.51528  -0.46666
  Beta  occ. eigenvalues --   -0.43921  -0.41606  -0.39774  -0.37169  -0.36248
  Beta  occ. eigenvalues --   -0.34473  -0.33344  -0.32784  -0.32290  -0.30405
  Beta  occ. eigenvalues --   -0.29665  -0.28124  -0.26952  -0.25364  -0.24423
  Beta  occ. eigenvalues --   -0.23311  -0.22074  -0.21391  -0.20141  -0.19419
  Beta  occ. eigenvalues --   -0.13671  -0.11501
  Beta virt. eigenvalues --    0.07725   0.08430   0.09224   0.10086   0.10753
  Beta virt. eigenvalues --    0.11144   0.11606   0.11992   0.13003   0.13636
  Beta virt. eigenvalues --    0.14091   0.14621   0.15092   0.15517   0.16351

 Mulliken charges and spin densities:
               1          2
     1  C   -0.253887  -0.024539
     2  C    0.089428  -0.406051
     3  N   -0.155404   0.117718
     4  S    0.816613  -0.416333
     5  O   -0.198787   0.008373
     6  O   -0.249540   0.030276
     7  C    0.034956  -0.699117
     8  C    0.367686  -0.781504
     9  C   -0.106179   0.009439
    10  C    0.072549  -0.078394
    11  O   -0.305657   0.112396
    12  H    0.310248  -0.096499
    13  H   -0.317095   0.489675
    14  H   -0.064870   0.272509
    15  H   -0.551179   0.765067
    16  H   -0.038340   0.268998
    17  H    0.030837   0.175095
    18  H   -0.219027   0.406900
    19  H   -0.262739   0.475018
    20  H   -0.023139   0.163226
    21  H    0.153489   0.043034
    22  H   -0.129963   0.164715
 Sum of Mulliken charges =  -1.00000   1.00000

 Dipole moment (field-independent basis, Debye):
    X=             -0.8633    Y=             -0.1520    Z=             -2.1914  Tot=              2.3602
 Quadrupole moment (field-independent basis, Debye-Ang):
   XX=           -120.8785   YY=           -107.6706   ZZ=           -100.5420
   XY=             -4.2109   XZ=              4.2997   YZ=             -3.8281

 Summary of Natural Population Analysis:

                                       Natural Population
                Natural  -----------------------------------------------
    Atom  No    Charge         Core      Valence    Rydberg      Total
 -----------------------------------------------------------------------
      C    1   -0.21262      0.99962     2.20341    0.00959     3.21262
      C    2   -0.08691      0.99961     2.07463    0.01268     3.08691
      N    3   -0.36869      0.99973     2.85384    0.01511     3.86869
      S    4    1.08413      4.99928     1.81843    0.09816     6.91587
      O    5   -0.45910      0.99990     3.45365    0.00555     4.45910
      O    6   -0.46488      0.99991     3.45947    0.00550     4.46488
      C    7   -0.28340      0.99959     2.27372    0.01008     3.28340
      C    8   -0.08048      0.99959     2.06635    0.01454     3.08048
      C    9   -0.25452      0.99960     2.24568    0.00924     3.25452
      C   10    0.25664      0.99973     1.72206    0.02157     2.74336
      O   11   -0.25806      0.99988     3.25140    0.00678     4.25806
      H   12    0.11859      0.00000     0.37936    0.00204     0.38141
      H   13    0.10704      0.00000     0.39142    0.00154     0.39296
      H   14    0.11284      0.00000     0.38590    0.00126     0.38716
      H   15    0.09738      0.00000     0.39994    0.00268     0.40262
      H   16    0.11569      0.00000     0.38275    0.00156     0.38431
      H   17    0.11504      0.00000     0.38395    0.00101     0.38496
      H   18    0.10053      0.00000     0.39783    0.00163     0.39947
      H   19    0.10833      0.00000     0.38996    0.00171     0.39167
      H   20    0.10854      0.00000     0.38987    0.00159     0.39146
      H   21    0.11123      0.00000     0.38758    0.00119     0.38877
      H   22    0.03270      0.00000     0.46451    0.00279     0.46730
 =======================================================================
   * Total *   -0.00000     14.99644    31.77573    0.22783    47.00000

 Normal termination of Gaussian 16 at Tue Dec  8 21:40:16 2020.
