 Gaussian 16, Revision A.03,

 -----------------------------------------------------------
 # opt freq B3LYP/6-31G(d) empiricaldispersion=gd3bj scf=xqc
 -----------------------------------------------------------

 ---------------------------
 CID_231324_JID_431_neutraal
 ---------------------------
 Symbolic Z-matrix:
 Charge =  0 Multiplicity = 1

 SCF Done:  E(RB3LYP) =  -461.325392283     A.U. after   15 cycles
 SCF Done:  E(RB3LYP) =  -461.326853533     A.U. after   12 cycles
 SCF Done:  E(RB3LYP) =  -461.327036206     A.U. after   11 cycles
 SCF Done:  E(RB3LYP) =  -461.327057588     A.U. after   11 cycles
 SCF Done:  E(RB3LYP) =  -461.326985140     A.U. after   11 cycles
 SCF Done:  E(RB3LYP) =  -461.327085131     A.U. after   11 cycles
 SCF Done:  E(RB3LYP) =  -461.327085861     A.U. after    8 cycles
 SCF Done:  E(RB3LYP) =  -461.327086107     A.U. after    8 cycles
 Optimization completed.
    -- Stationary point found.

 1\1\GINC-NODE104\FOpt\RB3LYP\6-31G(d)\C8H10O2\VSC10255\08-Dec-2020\0\\
 # opt freq B3LYP/6-31G(d) empiricaldispersion=gd3bj scf=xqc\\CID_23132
 4_JID_431_neutraal\\0,1\C,0.9503612906,-0.0811176975,-0.0139553808\C,0
 .4312106915,-1.525816404,0.085916397\C,1.0546945489,-2.2895224475,1.26
 68125724\C,-1.0980892391,-1.597405622,0.0860628214\O,-1.6971977111,-2.
 1525168934,-0.8237462421\C,-1.8460360376,-0.9882253052,1.1992832621\C,
 -1.5109882889,-0.3063643936,2.3467814328\C,-2.7292677295,0.0198562973,
 3.009373131\C,-3.7250785274,-0.485508903,2.2212776403\O,-3.2139613107,

 Normal termination of Gaussian 16 at Tue Dec  8 10:37:03 2020.

 --------------------------------------------------------------------
 #N Geom=AllCheck Guess=TCheck SCRF=Check GenChk RB3LYP/6-31G(d) Freq
 --------------------------------------------------------------------

 Structure from the checkpoint file:  "JID_431.chk"
 ---------------------------
 CID_231324_JID_431_neutraal
 ---------------------------
 Charge =  0 Multiplicity = 1

 SCF Done:  E(RB3LYP) =  -461.327086107     A.U. after    1 cycles

  Exact polarizability: 113.100  -6.240  88.466   0.004   0.013  54.952
 Approx polarizability: 155.518 -16.429 163.660   0.008   0.033  76.347

                      1                      2                      3
                      A                      A                      A
 Frequencies --     63.3443                83.0285               150.0592
 Red. masses --      3.9181                 2.9375                 4.3459
 Frc consts  --      0.0093                 0.0119                 0.0577
 IR Inten    --      0.8774                 0.7445                 0.0627

                      4                      5                      6
                      A                      A                      A
 Frequencies --    169.0158               203.3311               217.4051
 Red. masses --      3.7945                 1.1925                 1.1029
 Frc consts  --      0.0639                 0.0290                 0.0307
 IR Inten    --      1.4525                 0.1869                 0.2056

                      7                      8                      9
                      A                      A                      A
 Frequencies --    264.7324               267.2957               332.4556
 Red. masses --      3.0340                 3.3226                 2.9846
 Frc consts  --      0.1253                 0.1399                 0.1944
 IR Inten    --      2.1495                 0.7956                 2.1937

                     10                     11                     12
                      A                      A                      A
 Frequencies --    449.6384               562.0167               596.1358
 Red. masses --      4.4066                 3.2460                 4.9078
 Frc consts  --      0.5249                 0.6041                 1.0276
 IR Inten    --      1.9230                14.9127                 0.7951

                     13                     14                     15
                      A                      A                      A
 Frequencies --    610.4697               630.3578               770.7882
 Red. masses --      3.0417                 6.6065                 1.8095
 Frc consts  --      0.6679                 1.5467                 0.6334
 IR Inten    --      7.8209                 4.0072                19.4098

                     16                     17                     18
                      A                      A                      A
 Frequencies --    773.1223               837.7612               882.5123
 Red. masses --      2.2709                 1.3307                 2.7041
 Frc consts  --      0.7997                 0.5503                 1.2408
 IR Inten    --     29.1440                 4.6524                25.7553

                     19                     20                     21
                      A                      A                      A
 Frequencies --    886.8061               908.6851               934.9082
 Red. masses --      1.3287                 6.0845                 3.4193
 Frc consts  --      0.6157                 2.9600                 1.7609
 IR Inten    --      1.5226                 8.7228                12.4003

                     22                     23                     24
                      A                      A                      A
 Frequencies --    949.7366               983.4773               989.5275
 Red. masses --      1.1832                 1.4519                 2.2690
 Frc consts  --      0.6288                 0.8274                 1.3090
 IR Inten    --      0.8642                 0.1547                84.9275

                     25                     26                     27
                      A                      A                      A
 Frequencies --   1058.9630              1124.3723              1126.6099
 Red. masses --      1.3051                 1.9330                 2.5355
 Frc consts  --      0.8623                 1.4398                 1.8961
 IR Inten    --     45.1176                11.1082                 0.3704

                     28                     29                     30
                      A                      A                      A
 Frequencies --   1176.3632              1203.4601              1213.1387
 Red. masses --      2.7132                 1.8350                 2.3491
 Frc consts  --      2.2121                 1.5659                 2.0369
 IR Inten    --      8.5738                 1.9894                 1.6234

                     31                     32                     33
                      A                      A                      A
 Frequencies --   1267.0867              1326.1031              1356.2954
 Red. masses --      1.7246                 5.7974                 1.4119
 Frc consts  --      1.6313                 6.0067                 1.5302
 IR Inten    --      0.5953                85.9387                 5.0398

                     34                     35                     36
                      A                      A                      A
 Frequencies --   1372.9421              1429.1285              1438.9855
 Red. masses --      1.3055                 1.2152                 2.4106
 Frc consts  --      1.4499                 1.4624                 2.9410
 IR Inten    --      1.4192                 2.5842                20.4114

                     37                     38                     39
                      A                      A                      A
 Frequencies --   1452.5922              1509.7897              1517.8004
 Red. masses --      1.3502                 4.6939                 1.0478
 Frc consts  --      1.6786                 6.3041                 1.4222
 IR Inten    --      8.8562                75.3308                 0.5263

                     40                     41                     42
                      A                      A                      A
 Frequencies --   1523.0415              1532.7050              1539.9269
 Red. masses --      1.0441                 1.0508                 1.0540
 Frc consts  --      1.4269                 1.4544                 1.4727
 IR Inten    --      1.6682                 6.0417                19.3492

                     43                     44                     45
                      A                      A                      A
 Frequencies --   1615.6993              1760.8159              3055.5051
 Red. masses --      5.2391                11.5767                 1.0356
 Frc consts  --      8.0580                21.1477                 5.6963
 IR Inten    --     14.0063               199.6294                26.8347

                     46                     47                     48
                      A                      A                      A
 Frequencies --   3058.5194              3073.4944              3120.2795
 Red. masses --      1.0365                 1.0852                 1.1025
 Frc consts  --      5.7128                 6.0399                 6.3243
 IR Inten    --     19.6782                 4.8715                10.7231

                     49                     50                     51
                      A                      A                      A
 Frequencies --   3122.0020              3133.6340              3138.9317
 Red. masses --      1.1024                 1.1017                 1.1000
 Frc consts  --      6.3305                 6.3739                 6.3857
 IR Inten    --     39.1657                 4.8218                58.2045

                     52                     53                     54
                      A                      A                      A
 Frequencies --   3271.9906              3293.0404              3301.6468
 Red. masses --      1.0908                 1.0959                 1.1061
 Frc consts  --      6.8804                 7.0022                 7.1038
 IR Inten    --      2.8708                 2.1604                 0.4176

 - Thermochemistry -
 -------------------
 Temperature   298.150 Kelvin.  Pressure   1.00000 Atm.
 Atom     1 has atomic number  6 and mass  12.00000

 Molecular mass:   138.06808 amu.
 Principal axes and moments of inertia in atomic units:
                           1         2         3
     Eigenvalues --   765.571321857.174712224.87927
           X            0.99982   0.01889  -0.00001
           Y           -0.01889   0.99982   0.00003
           Z            0.00001  -0.00003   1.00000
 This molecule is an asymmetric top.
 Rotational symmetry number  1.
 Warning -- assumption of classical behavior for rotation
           may cause significant error
 Rotational temperatures (Kelvin)      0.11314     0.04664     0.03893
 Rotational constants (GHZ):           2.35738     0.97177     0.81116
 Zero-point vibrational energy     434432.7 (Joules/Mol)
                                  103.83191 (Kcal/Mol)
 Warning -- explicit consideration of  13 degrees of freedom as
           vibrations may cause significant error
 Vibrational temperatures:     91.14   119.46   215.90   243.18   292.55
          (Kelvin)            312.80   380.89   384.58   478.33   646.93
                              808.62   857.71   878.33   906.94  1108.99
                             1112.35  1205.35  1269.74  1275.92  1307.40
                             1345.12  1366.46  1415.00  1423.71  1523.61
                             1617.72  1620.94  1692.52  1731.51  1745.44
                             1823.06  1907.97  1951.41  1975.36  2056.20
                             2070.38  2089.96  2172.25  2183.78  2191.32
                             2205.22  2215.61  2324.63  2533.42  4396.19
                             4400.53  4422.07  4489.39  4491.86  4508.60
                             4516.22  4707.66  4737.95  4750.33

 Zero-point correction=                           0.165467 (Hartree/Particle)
 Thermal correction to Energy=                    0.175224
 Thermal correction to Enthalpy=                  0.176168
 Thermal correction to Gibbs Free Energy=         0.130218
 Sum of electronic and zero-point Energies=           -461.161619
 Sum of electronic and thermal Energies=              -461.151863
 Sum of electronic and thermal Enthalpies=            -461.150918
 Sum of electronic and thermal Free Energies=         -461.196868

                     E (Thermal)             CV                S
                      KCal/Mol        Cal/Mol-Kelvin    Cal/Mol-Kelvin
 Total                  109.954             35.788             96.710
 Electronic               0.000              0.000              0.000
 Translational            0.889              2.981             40.680
 Rotational               0.889              2.981             29.538
 Vibrational            108.177             29.826             26.492
 Vibration     1          0.597              1.972              4.350
 Vibration     2          0.600              1.961              3.818
 Vibration     3          0.618              1.903              2.671
 Vibration     4          0.625              1.881              2.446
 Vibration     5          0.639              1.835              2.103
 Vibration     6          0.646              1.815              1.981
 Vibration     7          0.671              1.738              1.630
 Vibration     8          0.672              1.733              1.614
 Vibration     9          0.714              1.611              1.248
 Vibration    10          0.809              1.362              0.797
 Vibration    11          0.918              1.113              0.520
 Vibration    12          0.954              1.040              0.456
 Vibration    13          0.970              1.010              0.432

                           ! Non-Optimized Parameters !

 1\1\GINC-NODE104\Freq\RB3LYP\6-31G(d)\C8H10O2\VSC10255\08-Dec-2020\0\\
 #N Geom=AllCheck Guess=TCheck SCRF=Check GenChk RB3LYP/6-31G(d) Freq\\
 CID_231324_JID_431_neutraal\\0,1\C,0.9503612906,-0.0811176975,-0.01395
 53808\C,0.4312106915,-1.525816404,0.085916397\C,1.0546945489,-2.289522
 4475,1.2668125724\C,-1.0980892391,-1.597405622,0.0860628214\O,-1.69719
 77111,-2.1525168934,-0.8237462421\C,-1.8460360376,-0.9882253052,1.1992
 832621\C,-1.5109882889,-0.3063643936,2.3467814328\C,-2.7292677295,0.01
 98562973,3.009373131\C,-3.7250785274,-0.485508903,2.2212776403\O,-3.21

 Normal termination of Gaussian 16 at Tue Dec  8 10:41:20 2020.

 ----------------------------------------------------------------------
 # B3LYP/6-311++G(d,p) empiricaldispersion=gd3bj scf=xqc pop=npa geom=c
 heck
 ----------------------------------------------------------------------

 -----------------------------------
 CID_231324_JID_431_Energie_neutraal
 -----------------------------------
 Structure from the checkpoint file:  "JID_431.chk"
 Charge =  0 Multiplicity = 1

 SCF Done:  E(RB3LYP) =  -461.458252542     A.U. after   15 cycles
 Normal termination of Gaussian 16 at Tue Dec  8 10:44:36 2020.

 ----------------------------------------------------------------------
 # B3LYP/6-311++G(d,p) empiricaldispersion=gd3bj scf=xqc pop=npa geom=c
 heck
 ----------------------------------------------------------------------

 ---------------------------------
 CID_231324_JID_431_Energie_kation
 ---------------------------------
 Structure from the checkpoint file:  "JID_431.chk"
 Charge =  1 Multiplicity = 2

 SCF Done:  E(UB3LYP) =  -461.131055643     A.U. after   28 cycles
 Normal termination of Gaussian 16 at Tue Dec  8 10:53:55 2020.
 Gaussian 16:  ES64L-G16RevA.03 25-Dec-2016

 --------------------------------
 CID_231324_JID_431_Energie_anion
 --------------------------------
 Structure from the checkpoint file:  "JID_431.chk"
 Charge = -1 Multiplicity = 2

                         Standard orientation:
 ---------------------------------------------------------------------
 Center     Atomic      Atomic             Coordinates (Angstroms)
 Number     Number       Type             X           Y           Z
 ---------------------------------------------------------------------
      1          6           0       -2.139579   -0.752292   -1.277234
      2          6           0       -1.962057    0.085964    0.000443
      3          6           0       -2.138778   -0.752827    1.277821
      4          6           0       -0.653381    0.880476   -0.000299
      5          8           0       -0.665247    2.103052   -0.000763
      6          6           0        0.628263    0.154409    0.000096
      7          6           0        1.003425   -1.169674   -0.000764
      8          6           0        2.427760   -1.200051   -0.000790
      9          6           0        2.825037    0.107732    0.000450
     10          8           0        1.758318    0.935614    0.000898
     11          1           0       -1.420022   -1.574279   -1.336932
     12          1           0       -2.018235   -0.134799   -2.173566
     13          1           0       -3.145201   -1.186793   -1.299867
     14          1           0       -2.727620    0.869416    0.000823
     15          1           0       -1.420178   -1.575732    1.336150
     16          1           0       -2.015580   -0.136085    2.174424
     17          1           0       -3.144877   -1.186167    1.301502
     18          1           0        0.343937   -2.023772   -0.001504
     19          1           0        3.066967   -2.071320   -0.001520
     20          1           0        3.792095    0.587777    0.001075
 ---------------------------------------------------------------------

 SCF Done:  E(UB3LYP) =  -461.458490619     A.U. after   33 cycles
 SCF Done:  E(UB3LYP) =  -461.458490619     a.u. after    1 cycles

 The electronic state is 2-A.
 Alpha  occ. eigenvalues --  -19.00304 -18.88972 -10.05008 -10.03833 -10.03628
 Alpha  occ. eigenvalues --  -10.02891 -10.02889 -10.02753 -10.01404  -9.99614
 Alpha  occ. eigenvalues --   -0.93830  -0.83290  -0.65561  -0.63367  -0.58318
 Alpha  occ. eigenvalues --   -0.55494  -0.48182  -0.43705  -0.42809  -0.38771
 Alpha  occ. eigenvalues --   -0.33815  -0.31220  -0.29324  -0.29282  -0.27707
 Alpha  occ. eigenvalues --   -0.26743  -0.25848  -0.24688  -0.24051  -0.21860
 Alpha  occ. eigenvalues --   -0.21328  -0.19774  -0.18816  -0.18096  -0.12496
 Alpha  occ. eigenvalues --   -0.07368  -0.05873   0.06675
 Alpha virt. eigenvalues --    0.08942   0.09822   0.10882   0.11286   0.12381
 Alpha virt. eigenvalues --    0.13014   0.14169   0.14743   0.14987   0.17060
 Alpha virt. eigenvalues --    0.17381   0.17971   0.18478   0.18827   0.19116

  Beta  occ. eigenvalues --  -18.99983 -18.88304 -10.04719 -10.03763 -10.03232
  Beta  occ. eigenvalues --  -10.02866 -10.02862 -10.02784 -10.01524  -9.99342
  Beta  occ. eigenvalues --   -0.93306  -0.82089  -0.65363  -0.63061  -0.57767
  Beta  occ. eigenvalues --   -0.55428  -0.47594  -0.43424  -0.42281  -0.38523
  Beta  occ. eigenvalues --   -0.33491  -0.31151  -0.28989  -0.28222  -0.27124
  Beta  occ. eigenvalues --   -0.26443  -0.25715  -0.24371  -0.23862  -0.21454
  Beta  occ. eigenvalues --   -0.20957  -0.19441  -0.18626  -0.15294  -0.11306
  Beta  occ. eigenvalues --   -0.05375  -0.05288
  Beta virt. eigenvalues --    0.08863   0.09770   0.10834   0.11239   0.12276
  Beta virt. eigenvalues --    0.12923   0.13686   0.14116   0.14752   0.15055
  Beta virt. eigenvalues --    0.16946   0.17927   0.18382   0.18687   0.18769

 Mulliken charges and spin densities:
               1          2
     1  C   -0.552109   0.012037
     2  C    0.509690  -0.031162
     3  C   -0.550537   0.010159
     4  C   -0.567076   0.198394
     5  O   -0.436683   0.237203
     6  C   -0.404290   0.084809
     7  C    0.421719   0.235440
     8  C   -0.625785  -0.088987
     9  C    0.099385   0.267553
    10  O   -0.040651   0.054045
    11  H    0.123965  -0.007315
    12  H    0.135708  -0.000804
    13  H    0.067148   0.030454
    14  H    0.172834  -0.002553
    15  H    0.124978  -0.008217
    16  H    0.135415  -0.000515
    17  H    0.063661   0.033979
    18  H    0.101261  -0.012693
    19  H    0.092919   0.006211
    20  H    0.128449  -0.018037
 Sum of Mulliken charges =  -1.00000   1.00000

 Dipole moment (field-independent basis, Debye):
    X=             -1.1568    Y=             -4.3518    Z=             -0.0057  Tot=              4.5030
 Quadrupole moment (field-independent basis, Debye-Ang):
   XX=            -77.6681   YY=            -81.2201   ZZ=            -69.8102
   XY=              2.1693   XZ=              0.0215   YZ=              0.0108

 Summary of Natural Population Analysis:

                                       Natural Population
                Natural  -----------------------------------------------
    Atom  No    Charge         Core      Valence    Rydberg      Total
 -----------------------------------------------------------------------
      C    1   -0.27833      0.99966     2.27393    0.00474     3.27833
      C    2   -0.14540      0.99959     2.13702    0.00878     3.14540
      C    3   -0.27835      0.99966     2.27395    0.00475     3.27835
      C    4    0.29400      0.99958     1.68435    0.02206     2.70600
      O    5   -0.23975      0.99988     3.23261    0.00726     4.23975
      C    6    0.11741      0.99944     1.86772    0.01544     2.88259
      C    7   -0.10399      0.99953     2.09645    0.00800     3.10399
      C    8   -0.19965      0.99958     2.19063    0.00944     3.19965
      C    9    0.10981      0.99954     1.87505    0.01560     2.89019
      O   10   -0.19863      0.99986     3.18903    0.00974     4.19863
      H   11    0.09651      0.00000     0.40241    0.00109     0.40349
      H   12    0.09892      0.00000     0.40023    0.00084     0.40108
      H   13    0.08544      0.00000     0.41339    0.00117     0.41456
      H   14    0.09399      0.00000     0.40298    0.00303     0.40601
      H   15    0.09649      0.00000     0.40242    0.00109     0.40351
      H   16    0.09894      0.00000     0.40021    0.00084     0.40106
      H   17    0.08548      0.00000     0.41336    0.00117     0.41452
      H   18    0.09319      0.00000     0.40585    0.00095     0.40681
      H   19    0.09493      0.00000     0.40405    0.00103     0.40507
      H   20    0.07898      0.00000     0.42002    0.00100     0.42102
 =======================================================================
   * Total *   -0.00000      9.99631    26.88567    0.11802    37.00000

 Normal termination of Gaussian 16 at Tue Dec  8 11:05:16 2020.
