 Gaussian 16, Revision A.03,

 -----------------------------------------------------------
 # opt freq B3LYP/6-31G(d) empiricaldispersion=gd3bj scf=xqc
 -----------------------------------------------------------

 ------------------------------
 CID_65245097_JID_4187_neutraal
 ------------------------------
 Symbolic Z-matrix:
 Charge =  0 Multiplicity = 1

 SCF Done:  E(RB3LYP) =  -661.644538166     A.U. after   15 cycles
 SCF Done:  E(RB3LYP) =  -661.657958843     A.U. after   12 cycles
 SCF Done:  E(RB3LYP) =  -661.658918374     A.U. after   12 cycles
 SCF Done:  E(RB3LYP) =  -661.659290472     A.U. after   12 cycles
 SCF Done:  E(RB3LYP) =  -661.659466208     A.U. after   12 cycles
 SCF Done:  E(RB3LYP) =  -661.659600642     A.U. after   12 cycles
 SCF Done:  E(RB3LYP) =  -661.659761365     A.U. after   12 cycles
 SCF Done:  E(RB3LYP) =  -661.659757567     A.U. after   12 cycles
 SCF Done:  E(RB3LYP) =  -661.660513469     A.U. after   13 cycles
 SCF Done:  E(RB3LYP) =  -661.640976718     A.U. after   14 cycles
 SCF Done:  E(RB3LYP) =  -661.664970432     A.U. after   11 cycles
 SCF Done:  E(RB3LYP) =  -661.664972824     A.U. after   10 cycles
 SCF Done:  E(RB3LYP) =  -661.664973375     A.U. after   10 cycles
 SCF Done:  E(RB3LYP) =  -661.664973458     A.U. after    8 cycles
 Optimization completed.
    -- Stationary point found.
 Normal termination of Gaussian 16 at Thu Dec 10 09:28:38 2020.

 --------------------------------------------------------------------
 #N Geom=AllCheck Guess=TCheck SCRF=Check GenChk RB3LYP/6-31G(d) Freq
 --------------------------------------------------------------------

 Structure from the checkpoint file:  "JID_4187.chk"
 ------------------------------
 CID_65245097_JID_4187_neutraal
 ------------------------------
 Charge =  0 Multiplicity = 1

 SCF Done:  E(RB3LYP) =  -661.664973458     A.U. after    1 cycles

  Exact polarizability: 127.941   1.618 111.253  -9.328  -2.896  94.629
 Approx polarizability: 167.217   4.506 177.626 -26.398 -14.209 149.628

                      1                      2                      3
                      A                      A                      A
 Frequencies --     20.4832                47.9263                57.4853
 Red. masses --      5.7038                 4.0155                 5.2470
 Frc consts  --      0.0014                 0.0054                 0.0102
 IR Inten    --      0.5844                 0.5657                 0.9264

                      4                      5                      6
                      A                      A                      A
 Frequencies --     75.0918               126.2917               145.5388
 Red. masses --      4.7488                 3.0765                 3.8790
 Frc consts  --      0.0158                 0.0289                 0.0484
 IR Inten    --      2.8429                 1.2908                 6.7908

                      7                      8                      9
                      A                      A                      A
 Frequencies --    157.1533               213.6442               227.8505
 Red. masses --      3.3703                 1.5407                 2.7729
 Frc consts  --      0.0490                 0.0414                 0.0848
 IR Inten    --      7.9594                 4.8740                 1.1269

                     10                     11                     12
                      A                      A                      A
 Frequencies --    251.7436               290.0921               295.3895
 Red. masses --      2.1308                 5.1745                 1.1152
 Frc consts  --      0.0796                 0.2566                 0.0573
 IR Inten    --      2.3850                 1.9317                53.6766

                     13                     14                     15
                      A                      A                      A
 Frequencies --    361.8326               396.3641               440.4914
 Red. masses --      5.0451                 2.7777                 2.3492
 Frc consts  --      0.3892                 0.2571                 0.2686
 IR Inten    --      3.8448                 6.7688                 1.5267

                     16                     17                     18
                      A                      A                      A
 Frequencies --    483.9267               561.8990               640.8184
 Red. masses --      4.0272                 4.0634                 3.5963
 Frc consts  --      0.5557                 0.7559                 0.8701
 IR Inten    --     14.0753                 1.2453                16.3872

                     19                     20                     21
                      A                      A                      A
 Frequencies --    655.5131               691.5432               705.1024
 Red. masses --      4.9513                 3.3474                 4.2919
 Frc consts  --      1.2535                 0.9432                 1.2572
 IR Inten    --      7.0599                38.5904                10.9128

                     22                     23                     24
                      A                      A                      A
 Frequencies --    775.9317               797.7361               841.5472
 Red. masses --      3.0114                 4.2062                 1.4440
 Frc consts  --      1.0682                 1.5771                 0.6025
 IR Inten    --     10.5870                 2.3383                 9.4991

                     25                     26                     27
                      A                      A                      A
 Frequencies --    857.8758               888.3816               891.3893
 Red. masses --      1.4302                 1.5354                 1.3846
 Frc consts  --      0.6202                 0.7139                 0.6482
 IR Inten    --    154.0153                10.1249                 4.3264

                     28                     29                     30
                      A                      A                      A
 Frequencies --    911.5675               974.4079               984.0329
 Red. masses --      2.3837                 6.4594                 2.2633
 Frc consts  --      1.1670                 3.6135                 1.2912
 IR Inten    --      9.0636                14.7517                13.2887

                     31                     32                     33
                      A                      A                      A
 Frequencies --   1005.9411              1025.3881              1034.7594
 Red. masses --      1.7697                 3.3024                 2.6552
 Frc consts  --      1.0551                 2.0458                 1.6751
 IR Inten    --     23.3339                51.4030                 3.0151

                     34                     35                     36
                      A                      A                      A
 Frequencies --   1048.7528              1129.8844              1134.6315
 Red. masses --      2.0429                 1.7794                 2.7078
 Frc consts  --      1.3239                 1.3384                 2.0539
 IR Inten    --     20.3991                 7.8167                 6.4897

                     37                     38                     39
                      A                      A                      A
 Frequencies --   1143.6803              1170.2448              1174.0694
 Red. masses --      1.1483                 2.1927                 1.8354
 Frc consts  --      0.8849                 1.7692                 1.4906
 IR Inten    --      2.2861                17.9502                43.7924

                     40                     41                     42
                      A                      A                      A
 Frequencies --   1177.6989              1192.3069              1231.3728
 Red. masses --      1.5407                 2.4553                 1.4794
 Frc consts  --      1.2590                 2.0565                 1.3216
 IR Inten    --      2.2430                18.8968                10.1176

                     43                     44                     45
                      A                      A                      A
 Frequencies --   1278.8394              1282.6690              1293.2279
 Red. masses --      4.0774                 1.4191                 1.5823
 Frc consts  --      3.9288                 1.3756                 1.5592
 IR Inten    --      8.4126                 1.9655                 2.0912

                     46                     47                     48
                      A                      A                      A
 Frequencies --   1303.2940              1316.9856              1335.9191
 Red. masses --      1.5746                 3.1288                 1.4509
 Frc consts  --      1.5758                 3.1973                 1.5256
 IR Inten    --      1.7990                31.6117                 3.9021

                     49                     50                     51
                      A                      A                      A
 Frequencies --   1340.5803              1375.6218              1414.0788
 Red. masses --      1.4070                 3.3526                 2.1261
 Frc consts  --      1.4898                 3.7380                 2.5048
 IR Inten    --      3.8818                11.0798                 2.5436

                     52                     53                     54
                      A                      A                      A
 Frequencies --   1437.7370              1445.6332              1467.5691
 Red. masses --      1.4746                 1.3974                 3.0960
 Frc consts  --      1.7959                 1.7206                 3.9287
 IR Inten    --     17.7824                 3.7870                36.4168

                     55                     56                     57
                      A                      A                      A
 Frequencies --   1482.6687              1516.0106              1528.0325
 Red. masses --      4.3575                 1.0615                 1.0818
 Frc consts  --      5.6439                 1.4374                 1.4883
 IR Inten    --    232.9503                20.9526                 1.0544

                     58                     59                     60
                      A                      A                      A
 Frequencies --   1536.4106              1551.1150              1556.5991
 Red. masses --      1.0733                 1.1095                 3.9431
 Frc consts  --      1.4927                 1.5728                 5.6291
 IR Inten    --     14.6883                 8.3694                50.9058

                     61                     62                     63
                      A                      A                      A
 Frequencies --   1699.6140              1757.2191              3044.5667
 Red. masses --      1.0959                10.4988                 1.0620
 Frc consts  --      1.8653                19.1003                 5.8000
 IR Inten    --     31.5402               310.3358                48.0047

                     64                     65                     66
                      A                      A                      A
 Frequencies --   3053.8840              3076.3612              3100.5678
 Red. masses --      1.0676                 1.0388                 1.0923
 Frc consts  --      5.8664                 5.7921                 6.1869
 IR Inten    --     44.0976                15.6920                 4.3433

                     67                     68                     69
                      A                      A                      A
 Frequencies --   3114.2360              3114.6610              3140.7936
 Red. masses --      1.0869                 1.0974                 1.1035
 Frc consts  --      6.2109                 6.2723                 6.4135
 IR Inten    --      9.5807                29.1298                18.8689

                     70                     71                     72
                      A                      A                      A
 Frequencies --   3149.9125              3184.5372              3276.1153
 Red. masses --      1.1009                 1.0985                 1.0956
 Frc consts  --      6.4356                 6.5634                 6.9285
 IR Inten    --      4.2400                 8.6884                 5.7069

                     73                     74                     75
                      A                      A                      A
 Frequencies --   3281.8805              3467.3814              3556.4096
 Red. masses --      1.0998                 1.0498                 1.0925
 Frc consts  --      6.9792                 7.4361                 8.1414
 IR Inten    --      0.5234                 0.4341                 0.0604

 - Thermochemistry -
 -------------------
 Temperature   298.150 Kelvin.  Pressure   1.00000 Atm.
 Atom     1 has atomic number  6 and mass  12.00000

 Molecular mass:   195.11201 amu.
 Principal axes and moments of inertia in atomic units:
                           1         2         3
     Eigenvalues --  1560.266974008.467384427.36982
           X            0.99984   0.01583   0.00847
           Y           -0.01628   0.99831   0.05587
           Z           -0.00757  -0.05600   0.99840
 This molecule is an asymmetric top.
 Rotational symmetry number  1.
 Warning -- assumption of classical behavior for rotation
           may cause significant error
 Rotational temperatures (Kelvin)      0.05551     0.02161     0.01956
 Rotational constants (GHZ):           1.15669     0.45023     0.40763
 Zero-point vibrational energy     590470.2 (Joules/Mol)
                                  141.12577 (Kcal/Mol)
 Warning -- explicit consideration of  17 degrees of freedom as
           vibrations may cause significant error
 Vibrational temperatures:     29.47    68.96    82.71   108.04   181.71
          (Kelvin)            209.40   226.11   307.39   327.83   362.20
                              417.38   425.00   520.60   570.28   633.77
                              696.26   808.45   921.99   943.14   994.98
                             1014.49  1116.39  1147.76  1210.80  1234.29
                             1278.18  1282.51  1311.54  1401.96  1415.80
                             1447.32  1475.30  1488.79  1508.92  1625.65
                             1632.48  1645.50  1683.72  1689.22  1694.45
                             1715.46  1771.67  1839.96  1845.47  1860.67
                             1875.15  1894.85  1922.09  1928.80  1979.21
                             2034.54  2068.58  2079.94  2111.50  2133.23
                             2181.20  2198.50  2210.55  2231.71  2239.60
                             2445.37  2528.25  4380.45  4393.86  4426.20
                             4461.03  4480.69  4481.30  4518.90  4532.02
                             4581.84  4713.60  4721.89  4988.79  5116.88

 Zero-point correction=                           0.224898 (Hartree/Particle)
 Thermal correction to Energy=                    0.238252
 Thermal correction to Enthalpy=                  0.239196
 Thermal correction to Gibbs Free Energy=         0.183006
 Sum of electronic and zero-point Energies=           -661.440075
 Sum of electronic and thermal Energies=              -661.426721
 Sum of electronic and thermal Enthalpies=            -661.425777
 Sum of electronic and thermal Free Energies=         -661.481968

                     E (Thermal)             CV                S
                      KCal/Mol        Cal/Mol-Kelvin    Cal/Mol-Kelvin
 Total                  149.505             48.666            118.263
 Electronic               0.000              0.000              0.000
 Translational            0.889              2.981             41.710
 Rotational               0.889              2.981             31.693
 Vibrational            147.728             42.704             44.859
 Vibration     1          0.593              1.986              6.587
 Vibration     2          0.595              1.978              4.901
 Vibration     3          0.596              1.975              4.542
 Vibration     4          0.599              1.966              4.015
 Vibration     5          0.611              1.927              3.002
 Vibration     6          0.617              1.907              2.730
 Vibration     7          0.621              1.895              2.584
 Vibration     8          0.644              1.820              2.012
 Vibration     9          0.651              1.799              1.896
 Vibration    10          0.664              1.760              1.718
 Vibration    11          0.686              1.692              1.473
 Vibration    12          0.690              1.682              1.443
 Vibration    13          0.736              1.551              1.114
 Vibration    14          0.763              1.478              0.976
 Vibration    15          0.800              1.382              0.825
 Vibration    16          0.840              1.286              0.700
 Vibration    17          0.918              1.114              0.520

 Optimization completed.
    -- Stationary point found.
 Normal termination of Gaussian 16 at Thu Dec 10 09:35:41 2020.

 ----------------------------------------------------------------------
 # B3LYP/6-311++G(d,p) empiricaldispersion=gd3bj scf=xqc pop=npa geom=c
 heck
 ----------------------------------------------------------------------

 --------------------------------------
 CID_65245097_JID_4187_Energie_neutraal
 --------------------------------------
 Structure from the checkpoint file:  "JID_4187.chk"
 Charge =  0 Multiplicity = 1

 SCF Done:  E(RB3LYP) =  -661.856095003     A.U. after   14 cycles
 Normal termination of Gaussian 16 at Thu Dec 10 09:38:05 2020.

 ----------------------------------------------------------------------
 # B3LYP/6-311++G(d,p) empiricaldispersion=gd3bj scf=xqc pop=npa geom=c
 heck
 ----------------------------------------------------------------------

 ------------------------------------
 CID_65245097_JID_4187_Energie_kation
 ------------------------------------
 Structure from the checkpoint file:  "JID_4187.chk"
 Charge =  1 Multiplicity = 2

 SCF Done:  E(UB3LYP) =  -661.532905653     A.U. after   33 cycles
 SCF Done:  E(UB3LYP) =  -661.532905653     a.u. after    1 cycles
 Normal termination of Gaussian 16 at Thu Dec 10 09:45:36 2020.
 Gaussian 16:  ES64L-G16RevA.03 25-Dec-2016

 ----------------------------------------------------------------------
 # B3LYP/6-311++G(d,p) empiricaldispersion=gd3bj scf=xqc pop=npa geom=c
 heck
 ----------------------------------------------------------------------

 -----------------------------------
 CID_65245097_JID_4187_Energie_anion
 -----------------------------------
 Structure from the checkpoint file:  "JID_4187.chk"
 Charge = -1 Multiplicity = 2

                         Standard orientation:
 ---------------------------------------------------------------------
 Center     Atomic      Atomic             Coordinates (Angstroms)
 Number     Number       Type             X           Y           Z
 ---------------------------------------------------------------------
      1          6           0       -0.709993   -1.070165   -2.128408
      2          6           0       -1.014113   -1.183816   -0.637138
      3          6           0        0.199864   -1.333868    0.307107
      4          8           0        0.137468   -2.126912    1.243242
      5          7           0        1.296620   -0.577468    0.080960
      6          6           0        2.408308   -0.415463    1.022078
      7          6           0        2.726455    0.962353    0.345039
      8          6           0        1.606872    0.649370   -0.683613
      9          7           0        4.023430    1.237248   -0.232768
     10          7           0       -1.853408   -0.077924   -0.172577
     11          6           0       -2.865901   -0.117617    0.722828
     12          7           0       -3.323265    1.101939    0.960722
     13          6           0       -2.523964    1.874404    0.173918
     14          7           0       -1.613709    1.214118   -0.530254
     15          1           0       -0.236191   -0.119830   -2.373789
     16          1           0       -1.638090   -1.141910   -2.703325
     17          1           0       -0.047467   -1.887060   -2.430124
     18          1           0       -1.595530   -2.088964   -0.447750
     19          1           0        2.087254   -0.403974    2.068563
     20          1           0        3.193084   -1.172800    0.896552
     21          1           0        2.456327    1.798639    0.995295
     22          1           0        1.999834    0.438797   -1.685926
     23          1           0        0.778463    1.356658   -0.752012
     24          1           0        4.709669    1.420273    0.496580
     25          1           0        4.358001    0.428531   -0.755450
     26          1           0       -3.221605   -1.039726    1.160837
     27          1           0       -2.616341    2.950078    0.111173
 ---------------------------------------------------------------------

 SCF Done:  E(UB3LYP) =  -661.845433265     A.U. after   33 cycles
 SCF Done:  E(UB3LYP) =  -661.845433265     a.u. after    1 cycles

 The electronic state is 2-A.
 Alpha  occ. eigenvalues --  -18.99830 -14.32228 -14.25974 -14.24925 -14.22793
 Alpha  occ. eigenvalues --  -14.19787 -10.18206 -10.15929 -10.14858 -10.14066
 Alpha  occ. eigenvalues --  -10.11397 -10.11138 -10.10569 -10.08290  -1.00244
 Alpha  occ. eigenvalues --   -0.94985  -0.86615  -0.82977  -0.78583  -0.76804
 Alpha  occ. eigenvalues --   -0.69431  -0.65296  -0.60255  -0.58443  -0.55092
 Alpha  occ. eigenvalues --   -0.52550  -0.50348  -0.47090  -0.45127  -0.42070
 Alpha  occ. eigenvalues --   -0.41585  -0.38945  -0.37882  -0.37071  -0.35883
 Alpha  occ. eigenvalues --   -0.34820  -0.33252  -0.32493  -0.31431  -0.31331
 Alpha  occ. eigenvalues --   -0.30205  -0.29414  -0.28301  -0.26643  -0.25155
 Alpha  occ. eigenvalues --   -0.24896  -0.21916  -0.20472  -0.19388  -0.16421
 Alpha  occ. eigenvalues --   -0.15581  -0.14717   0.04222
 Alpha virt. eigenvalues --    0.05858   0.06669   0.07342   0.07877   0.08717
 Alpha virt. eigenvalues --    0.09047   0.09675   0.09895   0.10278   0.11130
 Alpha virt. eigenvalues --    0.11445   0.11659   0.12313   0.13310   0.13836

  Beta  occ. eigenvalues --  -18.99828 -14.32227 -14.25965 -14.24923 -14.22792
  Beta  occ. eigenvalues --  -14.19719 -10.18207 -10.15923 -10.14847 -10.14063
  Beta  occ. eigenvalues --  -10.11382 -10.11117 -10.10544 -10.08252  -1.00236
  Beta  occ. eigenvalues --   -0.94981  -0.86598  -0.82967  -0.78482  -0.76789
  Beta  occ. eigenvalues --   -0.69404  -0.65248  -0.60201  -0.58392  -0.55078
  Beta  occ. eigenvalues --   -0.52511  -0.50284  -0.47067  -0.45063  -0.42036
  Beta  occ. eigenvalues --   -0.41524  -0.38921  -0.37839  -0.37043  -0.35855
  Beta  occ. eigenvalues --   -0.34808  -0.33202  -0.32451  -0.31384  -0.31278
  Beta  occ. eigenvalues --   -0.30167  -0.29381  -0.28268  -0.26603  -0.25119
  Beta  occ. eigenvalues --   -0.24877  -0.21907  -0.20463  -0.19379  -0.16412
  Beta  occ. eigenvalues --   -0.15556  -0.14660
  Beta virt. eigenvalues --    0.06491   0.06808   0.07275   0.07781   0.08227
  Beta virt. eigenvalues --    0.09367   0.09690   0.09991   0.10163   0.10632
  Beta virt. eigenvalues --    0.11452   0.11787   0.12079   0.12642   0.13595

 Mulliken charges and spin densities:
               1          2
     1  C    1.179752  -1.846795
     2  C   -2.060963   1.988553
     3  C    0.831720  -1.123771
     4  O   -0.342197   0.029603
     5  N   -0.092496   0.218844
     6  C    0.147143  -0.283101
     7  C    1.525812  -1.995036
     8  C   -0.245889   0.015251
     9  N   -0.339754   0.067323
    10  N    0.272543  -0.105108
    11  C    0.195685  -0.085953
    12  N   -0.164087   0.000768
    13  C    0.118353  -0.242861
    14  N   -0.155387   0.027604
    15  H   -0.015023   0.201808
    16  H   -0.544970   0.720614
    17  H   -0.230305   0.402192
    18  H   -0.233668   0.474515
    19  H    0.019858   0.138997
    20  H   -0.221748   0.409850
    21  H   -0.130836   0.310495
    22  H   -0.135916   0.314280
    23  H    0.143201   0.039593
    24  H   -0.333897   0.578793
    25  H   -0.245534   0.473776
    26  H   -0.002485   0.173742
    27  H    0.061087   0.096027
 Sum of Mulliken charges =  -1.00000   1.00000

 Dipole moment (field-independent basis, Debye):
    X=             -6.2617    Y=              1.4878    Z=              1.2644  Tot=              6.5590
 Quadrupole moment (field-independent basis, Debye-Ang):
   XX=           -169.6906   YY=           -121.2297   ZZ=           -124.7157
   XY=             -5.7731   XZ=             -0.7191   YZ=             -2.6754

 Summary of Natural Population Analysis:

                                       Natural Population
                Natural  -----------------------------------------------
    Atom  No    Charge         Core      Valence    Rydberg      Total
 -----------------------------------------------------------------------
      C    1   -0.29010      0.99965     2.28429    0.00616     3.29010
      C    2   -0.03667      0.99955     2.02297    0.01415     3.03667
      C    3    0.33932      0.99960     1.63808    0.02301     2.66068
      O    4   -0.32229      0.99988     3.31709    0.00532     4.32229
      N    5   -0.25213      0.99964     2.74108    0.01141     3.75213
      C    6   -0.08176      0.99963     2.07134    0.01079     3.08176
      C    7   -0.01626      0.99960     2.00303    0.01362     3.01626
      C    8   -0.08288      0.99962     2.07315    0.01011     3.08288
      N    9   -0.41744      0.99976     2.90684    0.01084     3.91744
      N   10   -0.11298      0.99964     2.59859    0.01475     3.61298
      C   11    0.11580      0.99963     1.86978    0.01480     2.88420
      N   12   -0.26535      0.99973     2.75461    0.01100     3.76535
      C   13    0.08914      0.99970     1.89310    0.01806     2.91086
      N   14   -0.16139      0.99973     2.64978    0.01188     3.66139
      H   15    0.10949      0.00000     0.38850    0.00201     0.39051
      H   16    0.10636      0.00000     0.39203    0.00161     0.39364
      H   17    0.10939      0.00000     0.38896    0.00165     0.39061
      H   18    0.11344      0.00000     0.38451    0.00205     0.38656
      H   19    0.10103      0.00000     0.39780    0.00117     0.39897
      H   20    0.09822      0.00000     0.39988    0.00191     0.40178
      H   21    0.09422      0.00000     0.40460    0.00118     0.40578
      H   22    0.09763      0.00000     0.40094    0.00143     0.40237
      H   23    0.11062      0.00000     0.38735    0.00203     0.38938
      H   24    0.18185      0.00000     0.31217    0.00599     0.31815
      H   25    0.17705      0.00000     0.31743    0.00552     0.32295
      H   26    0.10257      0.00000     0.39619    0.00124     0.39743
      H   27    0.09312      0.00000     0.40601    0.00087     0.40688
 =======================================================================
   * Total *   -0.00000     13.99535    37.80011    0.20454    52.00000

 Normal termination of Gaussian 16 at Thu Dec 10 09:53:13 2020.
