 Gaussian 16, Revision A.03,

 -----------------------------------------------------------
 # opt freq B3LYP/6-31G(d) empiricaldispersion=gd3bj scf=xqc
 -----------------------------------------------------------

 ------------------------------
 CID_43673493_JID_6860_neutraal
 ------------------------------
 Symbolic Z-matrix:
 Charge =  0 Multiplicity = 1

 SCF Done:  E(RB3LYP) =  -669.921081493     A.U. after   14 cycles
 SCF Done:  E(RB3LYP) =  -669.925040880     A.U. after   13 cycles
 SCF Done:  E(RB3LYP) =  -669.927559851     A.U. after   14 cycles
 SCF Done:  E(RB3LYP) =  -669.929247511     A.U. after   12 cycles
 SCF Done:  E(RB3LYP) =  -669.930251995     A.U. after   12 cycles
 SCF Done:  E(RB3LYP) =  -669.930899344     A.U. after   12 cycles
 SCF Done:  E(RB3LYP) =  -669.931587914     A.U. after   13 cycles
 SCF Done:  E(RB3LYP) =  -669.932307999     A.U. after   15 cycles
 SCF Done:  E(RB3LYP) =  -669.934264398     A.U. after   11 cycles
 SCF Done:  E(RB3LYP) =  -669.933414040     A.U. after   12 cycles
 SCF Done:  E(RB3LYP) =  -669.935702364     A.U. after   10 cycles
 SCF Done:  E(RB3LYP) =  -669.935710620     A.U. after    9 cycles
 SCF Done:  E(RB3LYP) =  -669.935713278     A.U. after    8 cycles
 SCF Done:  E(RB3LYP) =  -669.935714602     A.U. after    8 cycles
 SCF Done:  E(RB3LYP) =  -669.935715038     A.U. after    8 cycles
 Optimization completed.
    -- Stationary point found.
 Normal termination of Gaussian 16 at Fri Dec 11 01:01:56 2020.

 --------------------------------------------------------------------
 #N Geom=AllCheck Guess=TCheck SCRF=Check GenChk RB3LYP/6-31G(d) Freq
 --------------------------------------------------------------------

 Structure from the checkpoint file:  "JID_6860.chk"
 ------------------------------
 CID_43673493_JID_6860_neutraal
 ------------------------------
 Charge =  0 Multiplicity = 1

 SCF Done:  E(RB3LYP) =  -669.935715038     A.U. after    1 cycles

  Exact polarizability: 182.430  12.823 141.553  12.432 -12.329 117.772
 Approx polarizability: 273.056  26.742 208.735  23.535 -32.259 204.481

                      1                      2                      3
                      A                      A                      A
 Frequencies --     42.2108                65.8644                70.0641
 Red. masses --      4.1749                 2.9934                 3.4818
 Frc consts  --      0.0044                 0.0077                 0.0101
 IR Inten    --      0.7217                 0.1634                 0.8123

                      4                      5                      6
                      A                      A                      A
 Frequencies --     77.1301                97.2122               112.5582
 Red. masses --      4.2339                 4.1535                 3.8717
 Frc consts  --      0.0148                 0.0231                 0.0289
 IR Inten    --      1.2916                 0.7944                 0.1070

                      7                      8                      9
                      A                      A                      A
 Frequencies --    183.1748               216.8187               239.3314
 Red. masses --      4.0723                 1.6324                 1.2743
 Frc consts  --      0.0805                 0.0452                 0.0430
 IR Inten    --      0.3544                 0.7846                 0.3986

                     10                     11                     12
                      A                      A                      A
 Frequencies --    245.6948               295.0929               310.7269
 Red. masses --      1.4926                 4.0006                 2.2258
 Frc consts  --      0.0531                 0.2053                 0.1266
 IR Inten    --      1.0300                 0.9423                 0.2688

                     13                     14                     15
                      A                      A                      A
 Frequencies --    343.3144               364.0660               378.3239
 Red. masses --      3.8463                 3.2797                 2.9937
 Frc consts  --      0.2671                 0.2561                 0.2525
 IR Inten    --      2.4431                 0.4244                 2.6468

                     16                     17                     18
                      A                      A                      A
 Frequencies --    436.3630               457.5651               494.1014
 Red. masses --      1.9070                 3.2701                 3.0274
 Frc consts  --      0.2139                 0.4034                 0.4355
 IR Inten    --      0.6577                 0.5935                16.2844

                     19                     20                     21
                      A                      A                      A
 Frequencies --    546.4688               565.0216               593.9210
 Red. masses --      4.6054                 3.8887                 3.6039
 Frc consts  --      0.8103                 0.7314                 0.7490
 IR Inten    --      3.1390                 4.1285                16.7075

                     22                     23                     24
                      A                      A                      A
 Frequencies --    649.6472               676.7522               684.9290
 Red. masses --      3.4856                 3.2141                 5.9848
 Frc consts  --      0.8667                 0.8673                 1.6542
 IR Inten    --     18.6341                37.2373                 4.0494

                     25                     26                     27
                      A                      A                      A
 Frequencies --    694.8841               733.2261               751.3785
 Red. masses --      1.9003                 1.2502                 3.6614
 Frc consts  --      0.5406                 0.3960                 1.2179
 IR Inten    --     45.7974                16.8476                 2.0777

                     28                     29                     30
                      A                      A                      A
 Frequencies --    767.1632               807.5246               818.2045
 Red. masses --      1.2969                 1.3239                 2.9996
 Frc consts  --      0.4497                 0.5086                 1.1832
 IR Inten    --     61.4572                21.3526                15.6712

                     31                     32                     33
                      A                      A                      A
 Frequencies --    832.6610               848.3766               861.2088
 Red. masses --      2.5639                 1.3205                 1.5147
 Frc consts  --      1.0473                 0.5600                 0.6619
 IR Inten    --     13.9843                 1.6902                 5.8404

                     34                     35                     36
                      A                      A                      A
 Frequencies --    923.8615               927.9782               937.7388
 Red. masses --      6.2726                 1.6049                 1.3406
 Frc consts  --      3.1544                 0.8143                 0.6946
 IR Inten    --     14.1634                 0.5634                 1.6648

                     37                     38                     39
                      A                      A                      A
 Frequencies --    942.9605               967.0220               969.8452
 Red. masses --      1.2674                 1.6204                 1.2509
 Frc consts  --      0.6640                 0.8928                 0.6932
 IR Inten    --      0.9575                 3.3315                 0.2765

                     40                     41                     42
                      A                      A                      A
 Frequencies --    981.8426               988.1242              1063.2366
 Red. masses --      1.4955                 6.0220                 3.2626
 Frc consts  --      0.8494                 3.4643                 2.1731
 IR Inten    --      0.7662                 9.0319                 9.1289

                     43                     44                     45
                      A                      A                      A
 Frequencies --   1079.3980              1095.5822              1119.7505
 Red. masses --      1.9859                 2.0950                 1.6471
 Frc consts  --      1.3632                 1.4816                 1.2168
 IR Inten    --     26.2599                39.1806                 6.7551

                     46                     47                     48
                      A                      A                      A
 Frequencies --   1142.1794              1160.2169              1164.1107
 Red. masses --      1.6803                 2.6138                 2.4834
 Frc consts  --      1.2916                 2.0730                 1.9828
 IR Inten    --     12.0625                 8.1914                 2.9072

                     49                     50                     51
                      A                      A                      A
 Frequencies --   1188.7526              1198.7367              1211.4609
 Red. masses --      1.4368                 1.2488                 1.7531
 Frc consts  --      1.1962                 1.0572                 1.5159
 IR Inten    --      0.1796                 5.0917                 7.4322

                     52                     53                     54
                      A                      A                      A
 Frequencies --   1268.2112              1272.8613              1299.4830
 Red. masses --      1.6093                 1.3930                 2.8248
 Frc consts  --      1.5250                 1.3297                 2.8104
 IR Inten    --      8.7395                 8.3720                39.7133

                     55                     56                     57
                      A                      A                      A
 Frequencies --   1311.1822              1333.0051              1340.4687
 Red. masses --      2.3732                 1.8037                 2.4056
 Frc consts  --      2.4039                 1.8884                 2.5468
 IR Inten    --     42.2449                 0.6381                14.7373

                     58                     59                     60
                      A                      A                      A
 Frequencies --   1352.0534              1371.1812              1395.1126
 Red. masses --      1.4691                 3.5809                 1.3458
 Frc consts  --      1.5823                 3.9667                 1.5433
 IR Inten    --     15.9208                36.2344                 0.5408

                     61                     62                     63
                      A                      A                      A
 Frequencies --   1413.3327              1416.2053              1431.3857
 Red. masses --      4.8941                 1.3639                 1.2961
 Frc consts  --      5.7598                 1.6117                 1.5646
 IR Inten    --      3.4659                 2.3471                 4.7840

                     64                     65                     66
                      A                      A                      A
 Frequencies --   1451.8327              1488.2807              1517.5055
 Red. masses --      1.2385                 1.9563                 1.1085
 Frc consts  --      1.5380                 2.5531                 1.5040
 IR Inten    --      7.7433                 0.5857                12.2971

                     67                     68                     69
                      A                      A                      A
 Frequencies --   1523.3990              1525.2055              1531.3956
 Red. masses --      2.1998                 1.1133                 1.3731
 Frc consts  --      3.0078                 1.5259                 1.8972
 IR Inten    --     33.4932                 0.3136                41.3134

                     70                     71                     72
                      A                      A                      A
 Frequencies --   1535.4127              1542.4526              1546.3471
 Red. masses --      1.0618                 1.2478                 1.4053
 Frc consts  --      1.4749                 1.7491                 1.9798
 IR Inten    --      2.9260                41.2103                86.7710

                     73                     74                     75
                      A                      A                      A
 Frequencies --   1551.5450              1566.9960              1645.1960
 Red. masses --      3.3337                 2.2321                 4.5276
 Frc consts  --      4.7283                 3.2293                 7.2203
 IR Inten    --     15.1377                54.0302                 5.5118

                     76                     77                     78
                      A                      A                      A
 Frequencies --   1666.1609              3035.4587              3036.7846
 Red. masses --      5.8326                 1.0495                 1.0590
 Frc consts  --      9.5399                 5.6977                 5.7542
 IR Inten    --     37.1778                12.7534                11.4788

                     79                     80                     81
                      A                      A                      A
 Frequencies --   3041.6021              3065.7102              3100.0845
 Red. masses --      1.0472                 1.0715                 1.0997
 Frc consts  --      5.7083                 5.9336                 6.2266
 IR Inten    --     31.0211                57.9722                 9.3315

                     82                     83                     84
                      A                      A                      A
 Frequencies --   3105.7210              3114.5169              3120.0038
 Red. masses --      1.0995                 1.1016                 1.1029
 Frc consts  --      6.2483                 6.2956                 6.3253
 IR Inten    --     64.0036                29.4342                27.2118

                     85                     86                     87
                      A                      A                      A
 Frequencies --   3146.9339              3171.5352              3196.2672
 Red. masses --      1.0935                 1.0879                 1.0885
 Frc consts  --      6.3803                 6.4473                 6.5519
 IR Inten    --      7.1126                12.9361                 5.5406

                     88                     89                     90
                      A                      A                      A
 Frequencies --   3204.2958              3220.5590              3261.2097
 Red. masses --      1.0915                 1.0971                 1.0931
 Frc consts  --      6.6030                 6.7044                 6.8494
 IR Inten    --     17.2025                15.8447                 9.6640

                     91                     92                     93
                      A                      A                      A
 Frequencies --   3268.6921              3302.9790              3567.6957
 Red. masses --      1.0968                 1.1025                 1.0750
 Frc consts  --      6.9043                 7.0868                 8.0619
 IR Inten    --      0.1891                 1.7741                 5.6238

 - Thermochemistry -
 -------------------
 Temperature   298.150 Kelvin.  Pressure   1.00000 Atm.
 Atom     1 has atomic number  6 and mass  12.00000

 Molecular mass:   215.14225 amu.
 Principal axes and moments of inertia in atomic units:
                           1         2         3
     Eigenvalues --  2821.394993410.367545157.88464
           X            0.99475  -0.10230   0.00161
           Y            0.10228   0.99472   0.00851
           Z           -0.00248  -0.00830   0.99996
 This molecule is an asymmetric top.
 Rotational symmetry number  1.
 Warning -- assumption of classical behavior for rotation
           may cause significant error
 Rotational temperatures (Kelvin)      0.03070     0.02540     0.01679
 Rotational constants (GHZ):           0.63966     0.52919     0.34990
 Zero-point vibrational energy     745154.1 (Joules/Mol)
                                  178.09611 (Kcal/Mol)
 Warning -- explicit consideration of  21 degrees of freedom as
           vibrations may cause significant error
 Vibrational temperatures:     60.73    94.76   100.81   110.97   139.87
          (Kelvin)            161.95   263.55   311.95   344.34   353.50
                              424.57   447.07   493.95   523.81   544.32
                              627.83   658.33   710.90   786.25   812.94
                              854.52   934.70   973.70   985.46   999.78
                             1054.95  1081.07  1103.78  1161.85  1177.21
                             1198.01  1220.62  1239.09  1329.23  1335.15
                             1349.20  1356.71  1391.33  1395.39  1412.65
                             1421.69  1529.76  1553.01  1576.30  1611.07
                             1643.34  1669.29  1674.90  1710.35  1724.71
                             1743.02  1824.67  1831.36  1869.67  1886.50
                             1917.90  1928.64  1945.30  1972.82  2007.26
                             2033.47  2037.60  2059.44  2088.86  2141.30
                             2183.35  2191.83  2194.43  2203.34  2209.12
                             2219.25  2224.85  2232.33  2254.56  2367.07
                             2397.23  4367.35  4369.26  4376.19  4410.87
                             4460.33  4468.44  4481.10  4488.99  4527.74
                             4563.13  4598.72  4610.27  4633.67  4692.15
                             4702.92  4752.25  5133.12

 Zero-point correction=                           0.283814 (Hartree/Particle)
 Thermal correction to Energy=                    0.298469
 Thermal correction to Enthalpy=                  0.299413
 Thermal correction to Gibbs Free Energy=         0.241824
 Sum of electronic and zero-point Energies=           -669.651901
 Sum of electronic and thermal Energies=              -669.637246
 Sum of electronic and thermal Enthalpies=            -669.636302
 Sum of electronic and thermal Free Energies=         -669.693891

                     E (Thermal)             CV                S
                      KCal/Mol        Cal/Mol-Kelvin    Cal/Mol-Kelvin
 Total                  187.292             57.235            121.206
 Electronic               0.000              0.000              0.000
 Translational            0.889              2.981             42.002
 Rotational               0.889              2.981             32.273
 Vibrational            185.515             51.274             46.931
 Vibration     1          0.595              1.980              5.153
 Vibration     2          0.597              1.971              4.273
 Vibration     3          0.598              1.968              4.152
 Vibration     4          0.599              1.964              3.963
 Vibration     5          0.603              1.951              3.509
 Vibration     6          0.607              1.939              3.224
 Vibration     7          0.631              1.863              2.296
 Vibration     8          0.646              1.815              1.986
 Vibration     9          0.657              1.780              1.808
 Vibration    10          0.660              1.770              1.761
 Vibration    11          0.689              1.683              1.445
 Vibration    12          0.700              1.653              1.358
 Vibration    13          0.722              1.589              1.197
 Vibration    14          0.738              1.546              1.105
 Vibration    15          0.749              1.516              1.046
 Vibration    16          0.797              1.391              0.838
 Vibration    17          0.816              1.344              0.773
 Vibration    18          0.850              1.263              0.673
 Vibration    19          0.902              1.147              0.552
 Vibration    20          0.921              1.107              0.514
 Vibration    21          0.952              1.045              0.460

                           ! Non-Optimized Parameters !
 Normal termination of Gaussian 16 at Fri Dec 11 01:13:58 2020.

 ----------------------------------------------------------------------
 # B3LYP/6-311++G(d,p) empiricaldispersion=gd3bj scf=xqc pop=npa geom=c
 heck
 ----------------------------------------------------------------------

 --------------------------------------
 CID_43673493_JID_6860_Energie_neutraal
 --------------------------------------
 Structure from the checkpoint file:  "JID_6860.chk"
 Charge =  0 Multiplicity = 1

 SCF Done:  E(RB3LYP) =  -670.115319876     A.U. after   15 cycles
 Normal termination of Gaussian 16 at Fri Dec 11 01:19:32 2020.

 ----------------------------------------------------------------------
 # B3LYP/6-311++G(d,p) empiricaldispersion=gd3bj scf=xqc pop=npa geom=c
 heck
 ----------------------------------------------------------------------

 ------------------------------------
 CID_43673493_JID_6860_Energie_kation
 ------------------------------------
 Structure from the checkpoint file:  "JID_6860.chk"
 Charge =  1 Multiplicity = 2

 SCF Done:  E(UB3LYP) =  -669.833423822     A.U. after   24 cycles
 Normal termination of Gaussian 16 at Fri Dec 11 01:32:09 2020.
 Gaussian 16:  ES64L-G16RevA.03 25-Dec-2016

 ----------------------------------------------------------------------
 # B3LYP/6-311++G(d,p) empiricaldispersion=gd3bj scf=xqc pop=npa geom=c
 heck
 ----------------------------------------------------------------------

 -----------------------------------
 CID_43673493_JID_6860_Energie_anion
 -----------------------------------
 Structure from the checkpoint file:  "JID_6860.chk"
 Charge = -1 Multiplicity = 2

                         Standard orientation:
 ---------------------------------------------------------------------
 Center     Atomic      Atomic             Coordinates (Angstroms)
 Number     Number       Type             X           Y           Z
 ---------------------------------------------------------------------
      1          6           0       -0.760482    3.249949    0.459096
      2          6           0       -1.319505    1.823896    0.442629
      3          6           0       -2.782877    1.774996    0.893246
      4          6           0       -1.186703    1.177714   -0.946527
      5          7           0        0.192817    1.014631   -1.434717
      6          6           0        1.191939    0.429266   -0.654439
      7          6           0        2.464503    1.028724   -0.589247
      8          6           0        3.499153    0.471430    0.152606
      9          6           0        3.298124   -0.707031    0.873998
     10          6           0        2.054502   -1.328241    0.808125
     11          6           0        1.016988   -0.783528    0.049865
     12          7           0       -0.222969   -1.485209   -0.007055
     13          6           0       -0.785274   -2.084585   -1.121688
     14          6           0       -1.998613   -2.571644   -0.703219
     15          7           0       -2.201870   -2.292377    0.633995
     16          6           0       -1.122176   -1.646265    1.018805
     17          1           0       -1.308099    3.893119   -0.242761
     18          1           0        0.299975    3.269385    0.182726
     19          1           0       -0.848312    3.696232    1.455784
     20          1           0       -0.727770    1.220425    1.144228
     21          1           0       -3.425052    2.340469    0.205296
     22          1           0       -3.147694    0.742366    0.926569
     23          1           0       -2.902591    2.211403    1.891247
     24          1           0       -1.693903    0.211813   -0.958391
     25          1           0       -1.695517    1.803439   -1.689875
     26          1           0        0.533479    1.867961   -1.861011
     27          1           0        2.625543    1.961940   -1.124513
     28          1           0        4.463202    0.971350    0.179843
     29          1           0        4.098002   -1.142064    1.464031
     30          1           0        1.868524   -2.263502    1.327378
     31          1           0       -0.274150   -2.083162   -2.071544
     32          1           0       -2.735585   -3.111771   -1.281781
     33          1           0       -0.923377   -1.256812    2.007718
 ---------------------------------------------------------------------

 SCF Done:  E(UB3LYP) =  -670.103460996     A.U. after   33 cycles
 SCF Done:  E(UB3LYP) =  -670.103460996     a.u. after    1 cycles

 The electronic state is 2-A.
 Alpha  occ. eigenvalues --  -14.28865 -14.22673 -14.21249 -10.13905 -10.12829
 Alpha  occ. eigenvalues --  -10.12470 -10.11426 -10.10223 -10.10100 -10.09023
 Alpha  occ. eigenvalues --  -10.08176 -10.07899 -10.07785 -10.07761 -10.06617
 Alpha  occ. eigenvalues --  -10.05832  -0.93801  -0.84539  -0.80543  -0.75236
 Alpha  occ. eigenvalues --   -0.70621  -0.67205  -0.65159  -0.64595  -0.59080
 Alpha  occ. eigenvalues --   -0.58151  -0.54306  -0.52907  -0.51078  -0.48850
 Alpha  occ. eigenvalues --   -0.47668  -0.45447  -0.43169  -0.40133  -0.37989
 Alpha  occ. eigenvalues --   -0.36809  -0.36380  -0.35769  -0.35291  -0.34924
 Alpha  occ. eigenvalues --   -0.33736  -0.32962  -0.32697  -0.30694  -0.29285
 Alpha  occ. eigenvalues --   -0.29174  -0.27685  -0.27329  -0.26762  -0.25664
 Alpha  occ. eigenvalues --   -0.24204  -0.23402  -0.20388  -0.20176  -0.19457
 Alpha  occ. eigenvalues --   -0.16288  -0.15207  -0.11701   0.04290
 Alpha virt. eigenvalues --    0.06317   0.06851   0.07092   0.07432   0.08163
 Alpha virt. eigenvalues --    0.08289   0.08669   0.09483   0.09705   0.09840
 Alpha virt. eigenvalues --    0.10484   0.10773   0.11694   0.11760   0.12739

  Beta  occ. eigenvalues --  -14.28866 -14.22650 -14.21249 -10.13902 -10.12829
  Beta  occ. eigenvalues --  -10.12449 -10.11417 -10.10220 -10.10086 -10.09014
  Beta  occ. eigenvalues --  -10.08142 -10.07896 -10.07756 -10.07747 -10.06604
  Beta  occ. eigenvalues --  -10.05791  -0.93795  -0.84501  -0.80527  -0.75197
  Beta  occ. eigenvalues --   -0.70598  -0.67175  -0.65120  -0.64560  -0.59021
  Beta  occ. eigenvalues --   -0.58111  -0.54265  -0.52867  -0.51058  -0.48826
  Beta  occ. eigenvalues --   -0.47624  -0.45402  -0.43103  -0.40093  -0.37937
  Beta  occ. eigenvalues --   -0.36778  -0.36353  -0.35748  -0.35263  -0.34893
  Beta  occ. eigenvalues --   -0.33683  -0.32953  -0.32673  -0.30654  -0.29252
  Beta  occ. eigenvalues --   -0.29125  -0.27651  -0.27288  -0.26714  -0.25626
  Beta  occ. eigenvalues --   -0.24176  -0.23361  -0.20351  -0.20157  -0.19455
  Beta  occ. eigenvalues --   -0.16216  -0.15193  -0.11662
  Beta virt. eigenvalues --    0.06549   0.06897   0.07222   0.07557   0.07804
  Beta virt. eigenvalues --    0.08369   0.08884   0.09094   0.09834   0.09888
  Beta virt. eigenvalues --    0.09927   0.10772   0.11325   0.12010   0.12062

 Mulliken charges and spin densities:
               1          2
     1  C    0.904092  -1.511580
     2  C   -0.671607   1.208498
     3  C   -0.377907  -0.281286
     4  C    0.015843  -0.716345
     5  N   -0.041214   0.117033
     6  C   -0.114759   0.122305
     7  C   -0.996261   0.720272
     8  C    2.368130  -2.739376
     9  C    0.347863  -0.706728
    10  C   -1.259850   1.257001
    11  C    0.664458  -0.821251
    12  N    0.448249  -0.134143
    13  C    0.422642  -0.289597
    14  C   -0.183518  -0.052014
    15  N   -0.076357   0.021479
    16  C   -0.185446  -0.262381
    17  H   -0.229099   0.372664
    18  H   -0.005923   0.157860
    19  H   -0.279434   0.417807
    20  H    0.312153  -0.201533
    21  H    0.004980   0.128348
    22  H    0.129427   0.016390
    23  H    0.039681   0.097832
    24  H    0.302385  -0.112852
    25  H   -0.370133   0.564965
    26  H   -0.153332   0.440355
    27  H   -1.013146   1.192042
    28  H   -0.570215   0.750391
    29  H   -0.586543   0.763064
    30  H   -0.051680   0.216060
    31  H    0.053600   0.116738
    32  H    0.090883   0.048792
    33  H    0.062042   0.099190
 Sum of Mulliken charges =  -1.00000   1.00000

 Dipole moment (field-independent basis, Debye):
    X=             -4.9414    Y=             -5.8156    Z=              0.8378  Tot=              7.6773
 Quadrupole moment (field-independent basis, Debye-Ang):
   XX=           -171.1685   YY=           -158.1275   ZZ=           -131.2407
   XY=             -8.0053   XZ=              1.6754   YZ=             12.0231

 Summary of Natural Population Analysis:

                                       Natural Population
                Natural  -----------------------------------------------
    Atom  No    Charge         Core      Valence    Rydberg      Total
 -----------------------------------------------------------------------
      C    1   -0.28618      0.99965     2.27998    0.00656     3.28618
      C    2   -0.12508      0.99961     2.11678    0.00869     3.12508
      C    3   -0.28480      0.99965     2.28038    0.00478     3.28480
      C    4   -0.08675      0.99957     2.07474    0.01244     3.08675
      N    5   -0.31571      0.99969     2.80335    0.01267     3.81571
      C    6    0.08993      0.99945     1.89802    0.01260     2.91007
      C    7   -0.11233      0.99952     2.10202    0.01079     3.11233
      C    8   -0.08385      0.99956     2.07385    0.01044     3.08385
      C    9   -0.11787      0.99956     2.10749    0.01081     3.11787
      C   10   -0.09235      0.99952     2.08365    0.00918     3.09235
      C   11    0.04473      0.99942     1.94381    0.01205     2.95527
      N   12   -0.20870      0.99963     2.69805    0.01101     3.70870
      C   13   -0.02926      0.99955     2.02023    0.00947     3.02926
      C   14   -0.04109      0.99959     2.02799    0.01352     3.04109
      N   15   -0.25816      0.99973     2.74711    0.01132     3.75816
      C   16    0.10720      0.99963     1.87748    0.01569     2.89280
      H   17    0.09742      0.00000     0.40106    0.00152     0.40258
      H   18    0.10368      0.00000     0.39470    0.00162     0.39632
      H   19    0.09888      0.00000     0.40020    0.00092     0.40112
      H   20    0.09326      0.00000     0.40401    0.00273     0.40674
      H   21    0.09604      0.00000     0.40310    0.00086     0.40396
      H   22    0.10358      0.00000     0.39547    0.00095     0.39642
      H   23    0.09833      0.00000     0.40091    0.00076     0.40167
      H   24    0.09802      0.00000     0.39896    0.00303     0.40198
      H   25    0.09758      0.00000     0.40115    0.00127     0.40242
      H   26    0.18866      0.00000     0.30631    0.00503     0.31134
      H   27    0.10677      0.00000     0.38992    0.00331     0.39323
      H   28    0.10555      0.00000     0.39201    0.00244     0.39445
      H   29    0.10376      0.00000     0.39478    0.00146     0.39624
      H   30    0.10377      0.00000     0.39531    0.00093     0.39623
      H   31    0.11058      0.00000     0.38848    0.00093     0.38942
      H   32    0.09677      0.00000     0.40232    0.00091     0.40323
      H   33    0.09763      0.00000     0.40091    0.00146     0.40237
 =======================================================================
   * Total *   -0.00000     15.99333    41.80451    0.20216    58.00000

 Normal termination of Gaussian 16 at Fri Dec 11 01:49:35 2020.
