 Gaussian 16, Revision A.03,

 -----------------------------------------------------------
 # opt freq B3LYP/6-31G(d) empiricaldispersion=gd3bj scf=xqc
 -----------------------------------------------------------

 ------------------------------
 CID_62763171_JID_2149_neutraal
 ------------------------------
 Symbolic Z-matrix:
 Charge =  0 Multiplicity = 1

 SCF Done:  E(RB3LYP) =  -553.377860546     A.U. after   14 cycles
 SCF Done:  E(RB3LYP) =  -553.382393118     A.U. after   12 cycles
 SCF Done:  E(RB3LYP) =  -553.383231377     A.U. after   12 cycles
 SCF Done:  E(RB3LYP) =  -553.383339442     A.U. after   12 cycles
 SCF Done:  E(RB3LYP) =  -553.383482261     A.U. after   11 cycles
 SCF Done:  E(RB3LYP) =  -553.383543072     A.U. after   11 cycles
 SCF Done:  E(RB3LYP) =  -553.383587126     A.U. after   10 cycles
 SCF Done:  E(RB3LYP) =  -553.383591987     A.U. after   10 cycles
 SCF Done:  E(RB3LYP) =  -553.383596181     A.U. after    8 cycles
 SCF Done:  E(RB3LYP) =  -553.383596973     A.U. after    7 cycles
 SCF Done:  E(RB3LYP) =  -553.383597479     A.U. after    7 cycles
 SCF Done:  E(RB3LYP) =  -553.383597886     A.U. after    7 cycles
 Optimization completed.
    -- Stationary point found.
 Normal termination of Gaussian 16 at Wed Dec  9 16:50:53 2020.

 --------------------------------------------------------------------
 #N Geom=AllCheck Guess=TCheck SCRF=Check GenChk RB3LYP/6-31G(d) Freq
 --------------------------------------------------------------------

 Structure from the checkpoint file:  "JID_2149.chk"
 ------------------------------
 CID_62763171_JID_2149_neutraal
 ------------------------------
 Charge =  0 Multiplicity = 1

 SCF Done:  E(RB3LYP) =  -553.383597886     A.U. after    1 cycles

  Exact polarizability: 118.066  -9.030  87.041   2.492  -0.277  98.497
 Approx polarizability: 156.382 -21.594 131.992   0.010   4.103 160.817

                      1                      2                      3
                      A                      A                      A
 Frequencies --     51.1185                64.1639                70.1396
 Red. masses --      4.0157                 4.1018                 4.5223
 Frc consts  --      0.0062                 0.0099                 0.0131
 IR Inten    --      3.5321                 0.4453                 8.1882

                      4                      5                      6
                      A                      A                      A
 Frequencies --    133.3062               184.1867               215.2419
 Red. masses --      4.2531                 2.5364                 2.8146
 Frc consts  --      0.0445                 0.0507                 0.0768
 IR Inten    --      3.9444                 4.8766                 1.2863

                      7                      8                      9
                      A                      A                      A
 Frequencies --    245.4585               265.1868               277.0940
 Red. masses --      2.2623                 1.7511                 1.1165
 Frc consts  --      0.0803                 0.0726                 0.0505
 IR Inten    --      0.2503                 2.6559                 0.3803

                     10                     11                     12
                      A                      A                      A
 Frequencies --    314.5872               357.6630               364.6646
 Red. masses --      2.2494                 2.4097                 1.8699
 Frc consts  --      0.1312                 0.1816                 0.1465
 IR Inten    --      1.9785                 0.4200                 0.6229

                     13                     14                     15
                      A                      A                      A
 Frequencies --    419.1268               422.9019               486.2626
 Red. masses --      2.2947                 2.1697                 1.6276
 Frc consts  --      0.2375                 0.2286                 0.2268
 IR Inten    --      1.8819                 1.8759                85.2410

                     16                     17                     18
                      A                      A                      A
 Frequencies --    507.6492               589.8352               611.0151
 Red. masses --      2.7578                 2.4378                 1.4048
 Frc consts  --      0.4187                 0.4997                 0.3090
 IR Inten    --     10.3837                22.4945                47.0778

                     19                     20                     21
                      A                      A                      A
 Frequencies --    646.2352               679.9818               699.0893
 Red. masses --      2.8642                 3.2364                 2.6449
 Frc consts  --      0.7048                 0.8817                 0.7616
 IR Inten    --     12.7223                 5.5404                61.3973

                     22                     23                     24
                      A                      A                      A
 Frequencies --    749.5835               792.6349               826.5100
 Red. masses --      2.9177                 1.3476                 1.7745
 Frc consts  --      0.9659                 0.4989                 0.7142
 IR Inten    --     10.0866                16.2800               115.9607

                     25                     26                     27
                      A                      A                      A
 Frequencies --    848.3137               884.2168               911.0839
 Red. masses --      1.4884                 1.9270                 1.8324
 Frc consts  --      0.6311                 0.8876                 0.8961
 IR Inten    --     27.9692                 6.0042                 3.8234

                     28                     29                     30
                      A                      A                      A
 Frequencies --    938.8218               953.1592               979.8762
 Red. masses --      5.9038                 1.4737                 1.5135
 Frc consts  --      3.0658                 0.7888                 0.8562
 IR Inten    --      9.2765                 0.4393                 0.6959

                     31                     32                     33
                      A                      A                      A
 Frequencies --   1018.2278              1036.7638              1055.6806
 Red. masses --      2.4084                 2.1487                 1.4449
 Frc consts  --      1.4712                 1.3607                 0.9487
 IR Inten    --      2.6674                11.6422                 1.7566

                     34                     35                     36
                      A                      A                      A
 Frequencies --   1104.4493              1111.3771              1123.2598
 Red. masses --      4.4464                 2.3132                 2.2321
 Frc consts  --      3.1956                 1.6834                 1.6593
 IR Inten    --    109.7213                38.1844                25.8259

                     37                     38                     39
                      A                      A                      A
 Frequencies --   1154.1941              1202.2278              1203.0578
 Red. masses --      2.2171                 1.8491                 1.4352
 Frc consts  --      1.7402                 1.5746                 1.2238
 IR Inten    --     15.8512                 4.1205                36.8193

                     40                     41                     42
                      A                      A                      A
 Frequencies --   1241.3447              1267.1034              1280.6510
 Red. masses --      1.9257                 2.4666                 2.1865
 Frc consts  --      1.7484                 2.3333                 2.1128
 IR Inten    --     32.4927                 7.9807                21.4560

                     43                     44                     45
                      A                      A                      A
 Frequencies --   1290.2975              1331.2147              1380.6739
 Red. masses --      1.4301                 1.7733                 1.2866
 Frc consts  --      1.4028                 1.8515                 1.4450
 IR Inten    --      2.5169                 1.7664                26.5451

                     46                     47                     48
                      A                      A                      A
 Frequencies --   1392.2358              1396.2527              1426.1819
 Red. masses --      1.3726                 2.7299                 1.2674
 Frc consts  --      1.5675                 3.1356                 1.5189
 IR Inten    --     27.8250                 6.3048                 8.8966

                     49                     50                     51
                      A                      A                      A
 Frequencies --   1440.5623              1442.9531              1470.8054
 Red. masses --      1.3082                 2.4992                 1.2462
 Frc consts  --      1.5995                 3.0659                 1.5884
 IR Inten    --     40.3407                14.6473                91.4613

                     52                     53                     54
                      A                      A                      A
 Frequencies --   1500.4933              1507.6657              1513.6998
 Red. masses --      1.1097                 1.3195                 1.0637
 Frc consts  --      1.4721                 1.7671                 1.4360
 IR Inten    --      1.9123                20.7499                 1.1720

                     55                     56                     57
                      A                      A                      A
 Frequencies --   1517.0481              1530.1522              1536.0555
 Red. masses --      2.3365                 1.1160                 1.0686
 Frc consts  --      3.1683                 1.5395                 1.4855
 IR Inten    --     11.4926                 3.0022                 5.4993

                     58                     59                     60
                      A                      A                      A
 Frequencies --   1541.8458              1552.5658              1621.3500
 Red. masses --      1.0665                 1.1213                 4.3202
 Frc consts  --      1.4937                 1.5925                 6.6913
 IR Inten    --      8.5481                 2.5386                 7.2201

                     61                     62                     63
                      A                      A                      A
 Frequencies --   2943.5675              3040.6945              3040.9897
 Red. masses --      1.0736                 1.0541                 1.0576
 Frc consts  --      5.4809                 5.7423                 5.7623
 IR Inten    --     85.3533                52.9595                18.4999

                     64                     65                     66
                      A                      A                      A
 Frequencies --   3068.4551              3091.0774              3100.7541
 Red. masses --      1.0361                 1.0909                 1.0981
 Frc consts  --      5.7477                 6.1410                 6.2203
 IR Inten    --      8.6521                11.6888                53.9198

                     67                     68                     69
                      A                      A                      A
 Frequencies --   3124.0659              3135.4075              3149.4695
 Red. masses --      1.0934                 1.1000                 1.1018
 Frc consts  --      6.2871                 6.3711                 6.4390
 IR Inten    --     14.3122                26.0268                 5.5078

                     70                     71                     72
                      A                      A                      A
 Frequencies --   3151.4778              3255.5066              3267.0022
 Red. masses --      1.0996                 1.0959                 1.0977
 Frc consts  --      6.4344                 6.8432                 6.9027
 IR Inten    --     24.9343                 8.1134                 2.1256

                     73                     74                     75
                      A                      A                      A
 Frequencies --   3473.1435              3599.4039              3643.9101
 Red. masses --      1.0735                 1.0639                 1.0805
 Frc consts  --      7.6299                 8.1211                 8.4529
 IR Inten    --      2.1593                85.6072                31.3766

 - Thermochemistry -
 -------------------
 Temperature   298.150 Kelvin.  Pressure   1.00000 Atm.
 Atom     1 has atomic number  6 and mass  12.00000

 Molecular mass:   169.12151 amu.
 Principal axes and moments of inertia in atomic units:
                           1         2         3
     Eigenvalues --   853.610483557.375163612.90700
           X            0.99994   0.00930   0.00607
           Y           -0.00855   0.99342  -0.11419
           Z           -0.00710   0.11413   0.99344
 This molecule is an asymmetric top.
 Rotational symmetry number  1.
 Warning -- assumption of classical behavior for rotation
           may cause significant error
 Rotational temperatures (Kelvin)      0.10147     0.02435     0.02397
 Rotational constants (GHZ):           2.11424     0.50732     0.49953
 Zero-point vibrational energy     620649.1 (Joules/Mol)
                                  148.33869 (Kcal/Mol)
 Warning -- explicit consideration of  18 degrees of freedom as
           vibrations may cause significant error
 Vibrational temperatures:     73.55    92.32   100.92   191.80   265.00
          (Kelvin)            309.69   353.16   381.54   398.68   452.62
                              514.60   524.67   603.03   608.46   699.62
                              730.39   848.64   879.11   929.79   978.34
                             1005.83  1078.48  1140.42  1189.16  1220.53
                             1272.19  1310.85  1350.76  1371.38  1409.82
                             1465.00  1491.67  1518.89  1589.06  1599.02
                             1616.12  1660.63  1729.74  1730.93  1786.02
                             1823.08  1842.57  1856.45  1915.32  1986.48
                             2003.12  2008.90  2051.96  2072.65  2076.09
                             2116.16  2158.88  2169.19  2177.88  2182.69
                             2201.55  2210.04  2218.37  2233.80  2332.76
                             4235.14  4374.88  4375.31  4414.82  4447.37
                             4461.29  4494.83  4511.15  4531.38  4534.27
                             4683.95  4700.49  4997.08  5178.74  5242.77

 Zero-point correction=                           0.236393 (Hartree/Particle)
 Thermal correction to Energy=                    0.248601
 Thermal correction to Enthalpy=                  0.249546
 Thermal correction to Gibbs Free Energy=         0.198054
 Sum of electronic and zero-point Energies=           -553.147205
 Sum of electronic and thermal Energies=              -553.134996
 Sum of electronic and thermal Enthalpies=            -553.134052
 Sum of electronic and thermal Free Energies=         -553.185544

                     E (Thermal)             CV                S
                      KCal/Mol        Cal/Mol-Kelvin    Cal/Mol-Kelvin
 Total                  156.000             46.928            108.373
 Electronic               0.000              0.000              0.000
 Translational            0.889              2.981             41.284
 Rotational               0.889              2.981             30.774
 Vibrational            154.222             40.966             36.315
 Vibration     1          0.595              1.977              4.774
 Vibration     2          0.597              1.971              4.325
 Vibration     3          0.598              1.968              4.149
 Vibration     4          0.613              1.920              2.898
 Vibration     5          0.631              1.861              2.286
 Vibration     6          0.645              1.818              1.999
 Vibration     7          0.660              1.770              1.763
 Vibration     8          0.671              1.737              1.627
 Vibration     9          0.678              1.716              1.552
 Vibration    10          0.702              1.646              1.338
 Vibration    11          0.733              1.560              1.132
 Vibration    12          0.738              1.545              1.102
 Vibration    13          0.782              1.429              0.895
 Vibration    14          0.785              1.420              0.882
 Vibration    15          0.842              1.281              0.693
 Vibration    16          0.863              1.233              0.639
 Vibration    17          0.947              1.053              0.467
 Vibration    18          0.970              1.009              0.431

 Optimization completed.
    -- Stationary point found.
 Normal termination of Gaussian 16 at Wed Dec  9 16:57:11 2020.

 ----------------------------------------------------------------------
 # B3LYP/6-311++G(d,p) empiricaldispersion=gd3bj scf=xqc pop=npa geom=c
 heck
 ----------------------------------------------------------------------

 --------------------------------------
 CID_62763171_JID_2149_Energie_neutraal
 --------------------------------------
 Structure from the checkpoint file:  "JID_2149.chk"
 Charge =  0 Multiplicity = 1

 SCF Done:  E(RB3LYP) =  -553.554875164     A.U. after   14 cycles
 Normal termination of Gaussian 16 at Wed Dec  9 17:00:06 2020.

 ----------------------------------------------------------------------
 # B3LYP/6-311++G(d,p) empiricaldispersion=gd3bj scf=xqc pop=npa geom=c
 heck
 ----------------------------------------------------------------------

 ------------------------------------
 CID_62763171_JID_2149_Energie_kation
 ------------------------------------
 Structure from the checkpoint file:  "JID_2149.chk"
 Charge =  1 Multiplicity = 2

 SCF Done:  E(UB3LYP) =  -553.248470599     A.U. after   24 cycles
 Normal termination of Gaussian 16 at Wed Dec  9 17:08:07 2020.
 Gaussian 16:  ES64L-G16RevA.03 25-Dec-2016

 ----------------------------------------------------------------------
 # B3LYP/6-311++G(d,p) empiricaldispersion=gd3bj scf=xqc pop=npa geom=c
 heck
 ----------------------------------------------------------------------

 -----------------------------------
 CID_62763171_JID_2149_Energie_anion
 -----------------------------------
 Structure from the checkpoint file:  "JID_2149.chk"
 Charge = -1 Multiplicity = 2

                         Standard orientation:
 ---------------------------------------------------------------------
 Center     Atomic      Atomic             Coordinates (Angstroms)
 Number     Number       Type             X           Y           Z
 ---------------------------------------------------------------------
      1          6           0        1.483461    0.447586    1.557532
      2          6           0        1.447345    0.441795    0.025990
      3          6           0        0.648441    1.643896   -0.501773
      4          6           0        2.892456    0.508233   -0.520594
      5          8           0        3.639202   -0.629914   -0.150329
      6          7           0        0.948832   -0.869705   -0.467410
      7          6           0       -0.233726   -1.486484    0.149873
      8          6           0       -1.512363   -0.703319    0.126272
      9          6           0       -2.268400   -0.128248    1.121485
     10          7           0       -3.347259    0.556374    0.600624
     11          6           0       -3.255697    0.402265   -0.702122
     12          7           0       -2.167311   -0.354498   -1.044509
     13          1           0        1.965002    1.367478    1.904241
     14          1           0        2.065112   -0.398837    1.932693
     15          1           0        0.478193    0.419136    1.986611
     16          1           0        1.148185    2.581919   -0.231328
     17          1           0        0.574321    1.613011   -1.596533
     18          1           0       -0.362803    1.668505   -0.089264
     19          1           0        2.848326    0.618969   -1.620950
     20          1           0        3.405086    1.391019   -0.123617
     21          1           0        2.994646   -1.359160   -0.251600
     22          1           0        0.808295   -0.796727   -1.474560
     23          1           0       -0.370797   -2.453087   -0.353194
     24          1           0       -0.000168   -1.718172    1.191782
     25          1           0       -2.091647   -0.170483    2.188116
     26          1           0       -3.937461    0.803747   -1.439739
     27          1           0       -1.886831   -0.607541   -1.980944
 ---------------------------------------------------------------------

 SCF Done:  E(UB3LYP) =  -553.551189082     A.U. after   29 cycles

 The electronic state is 2-A.
 Alpha  occ. eigenvalues --  -19.00976 -14.25297 -14.20293 -14.19005 -10.11759
 Alpha  occ. eigenvalues --  -10.11034 -10.10905 -10.10568 -10.09694 -10.07787
 Alpha  occ. eigenvalues --  -10.06242 -10.05514  -0.91832  -0.90722  -0.81073
 Alpha  occ. eigenvalues --   -0.76326  -0.68932  -0.64921  -0.59667  -0.57505
 Alpha  occ. eigenvalues --   -0.56378  -0.50371  -0.48567  -0.46569  -0.43382
 Alpha  occ. eigenvalues --   -0.40837  -0.38098  -0.35992  -0.35685  -0.34259
 Alpha  occ. eigenvalues --   -0.33262  -0.32266  -0.30934  -0.30706  -0.29751
 Alpha  occ. eigenvalues --   -0.29266  -0.28359  -0.27610  -0.26112  -0.24205
 Alpha  occ. eigenvalues --   -0.21873  -0.17976  -0.17454  -0.16829  -0.14136
 Alpha  occ. eigenvalues --   -0.12315   0.04383
 Alpha virt. eigenvalues --    0.07480   0.08049   0.08551   0.09996   0.10258
 Alpha virt. eigenvalues --    0.10282   0.10949   0.11490   0.11860   0.12656
 Alpha virt. eigenvalues --    0.13345   0.13975   0.14245   0.14602   0.15146

  Beta  occ. eigenvalues --  -19.00968 -14.25202 -14.20250 -14.19009 -10.11740
  Beta  occ. eigenvalues --  -10.11036 -10.10891 -10.10544 -10.09695 -10.07776
  Beta  occ. eigenvalues --  -10.06224 -10.05488  -0.91815  -0.90661  -0.81011
  Beta  occ. eigenvalues --   -0.76237  -0.68898  -0.64872  -0.59628  -0.57453
  Beta  occ. eigenvalues --   -0.56327  -0.50204  -0.48525  -0.46504  -0.43301
  Beta  occ. eigenvalues --   -0.40790  -0.38065  -0.35950  -0.35625  -0.34194
  Beta  occ. eigenvalues --   -0.33217  -0.32233  -0.30903  -0.30669  -0.29723
  Beta  occ. eigenvalues --   -0.29229  -0.28338  -0.27585  -0.26071  -0.24162
  Beta  occ. eigenvalues --   -0.21857  -0.17931  -0.17430  -0.16812  -0.14100
  Beta  occ. eigenvalues --   -0.12287
  Beta virt. eigenvalues --    0.07102   0.08287   0.08643   0.09032   0.10262
  Beta virt. eigenvalues --    0.10617   0.10919   0.11057   0.11545   0.12077
  Beta virt. eigenvalues --    0.13195   0.13587   0.14031   0.14580   0.15074

 Mulliken charges and spin densities:
               1          2
     1  C    0.227050  -0.731172
     2  C   -0.834238   0.829401
     3  C    0.019191  -0.683440
     4  C   -0.000747  -0.307801
     5  O   -0.230302   0.017766
     6  N   -0.055745   0.024696
     7  C    1.068475  -2.137585
     8  C    1.069742  -0.337735
     9  C   -1.059131   0.643072
    10  N   -0.127140  -0.015700
    11  C    0.111032  -0.117654
    12  N   -0.043952  -0.077126
    13  H    0.058371   0.076089
    14  H    0.042639   0.115072
    15  H    0.133636  -0.000708
    16  H    0.036475   0.083803
    17  H   -0.160292   0.328155
    18  H    0.196591   0.013269
    19  H   -0.216109   0.371118
    20  H    0.138838   0.008203
    21  H    0.217880   0.049067
    22  H   -0.135511   0.405882
    23  H   -0.505506   0.708467
    24  H    0.185247  -0.013593
    25  H    0.013293   0.098001
    26  H   -0.417513   0.567215
    27  H   -0.732276   1.083239
 Sum of Mulliken charges =  -1.00000   1.00000

 Dipole moment (field-independent basis, Debye):
    X=              2.6119    Y=              1.8318    Z=              6.6291  Tot=              7.3568
 Quadrupole moment (field-independent basis, Debye-Ang):
   XX=           -134.8898   YY=           -101.2210   ZZ=           -118.2890
   XY=              4.1521   XZ=             -3.4679   YZ=             -7.0342

 Summary of Natural Population Analysis:

                                       Natural Population
                Natural  -----------------------------------------------
    Atom  No    Charge         Core      Valence    Rydberg      Total
 -----------------------------------------------------------------------
      C    1   -0.29406      0.99961     2.28845    0.00600     3.29406
      C    2    0.04651      0.99958     1.94025    0.01365     2.95349
      C    3   -0.29639      0.99961     2.28940    0.00738     3.29639
      C    4   -0.00702      0.99953     1.99303    0.01446     3.00702
      O    5   -0.37898      0.99990     3.37218    0.00690     4.37898
      N    6   -0.36148      0.99972     2.84631    0.01545     3.86148
      C    7   -0.10361      0.99958     2.09036    0.01367     3.10361
      C    8    0.04212      0.99952     1.94397    0.01439     2.95788
      C    9   -0.03785      0.99949     2.02587    0.01248     3.03785
      N   10   -0.26280      0.99973     2.75296    0.01011     3.76280
      C   11    0.10277      0.99965     1.87890    0.01868     2.89723
      N   12   -0.27265      0.99966     2.76010    0.01290     3.77265
      H   13    0.10070      0.00000     0.39856    0.00074     0.39930
      H   14    0.10569      0.00000     0.39328    0.00103     0.39431
      H   15    0.10181      0.00000     0.39719    0.00100     0.39819
      H   16    0.09651      0.00000     0.40266    0.00084     0.40349
      H   17    0.10548      0.00000     0.39302    0.00151     0.39452
      H   18    0.10872      0.00000     0.38985    0.00143     0.39128
      H   19    0.07807      0.00000     0.42046    0.00146     0.42193
      H   20    0.08306      0.00000     0.41583    0.00111     0.41694
      H   21    0.23745      0.00000     0.25907    0.00348     0.26255
      H   22    0.18804      0.00000     0.30198    0.00998     0.31196
      H   23    0.10759      0.00000     0.39106    0.00135     0.39241
      H   24    0.10009      0.00000     0.39868    0.00123     0.39991
      H   25    0.09412      0.00000     0.40480    0.00108     0.40588
      H   26    0.09415      0.00000     0.40446    0.00139     0.40585
      H   27    0.22197      0.00000     0.23519    0.04285     0.27803
 =======================================================================
   * Total *   -0.00000     11.99558    33.78786    0.21656    46.00000

 Normal termination of Gaussian 16 at Wed Dec  9 17:17:48 2020.
