 Gaussian 16, Revision A.03,

 -----------------------------------------------------------
 # opt freq B3LYP/6-31G(d) empiricaldispersion=gd3bj scf=xqc
 -----------------------------------------------------------

 -------------------------------
 CID_131374997_JID_6668_neutraal
 -------------------------------
 Symbolic Z-matrix:
 Charge =  0 Multiplicity = 1

 SCF Done:  E(RB3LYP) =  -1166.22347060     A.U. after   14 cycles
 SCF Done:  E(RB3LYP) =  -1166.22972552     A.U. after   12 cycles
 SCF Done:  E(RB3LYP) =  -1166.22768032     A.U. after   13 cycles
 SCF Done:  E(RB3LYP) =  -1166.23080153     A.U. after   12 cycles
 SCF Done:  E(RB3LYP) =  -1166.23181199     A.U. after   12 cycles
 SCF Done:  E(RB3LYP) =  -1166.23229768     A.U. after   13 cycles
 SCF Done:  E(RB3LYP) =  -1166.23236278     A.U. after   11 cycles
 SCF Done:  E(RB3LYP) =  -1166.23269412     A.U. after   12 cycles
 SCF Done:  E(RB3LYP) =  -1166.23272138     A.U. after   12 cycles
 SCF Done:  E(RB3LYP) =  -1166.23274712     A.U. after   10 cycles
 SCF Done:  E(RB3LYP) =  -1166.23279517     A.U. after   11 cycles
 SCF Done:  E(RB3LYP) =  -1166.23280048     A.U. after   11 cycles
 SCF Done:  E(RB3LYP) =  -1166.23280071     A.U. after    8 cycles
 SCF Done:  E(RB3LYP) =  -1166.23280058     A.U. after    9 cycles
 SCF Done:  E(RB3LYP) =  -1166.23280064     A.U. after    8 cycles
 Optimization completed.
    -- Stationary point found.
 Normal termination of Gaussian 16 at Fri Dec 11 00:21:33 2020.

 --------------------------------------------------------------------
 #N Geom=AllCheck Guess=TCheck SCRF=Check GenChk RB3LYP/6-31G(d) Freq
 --------------------------------------------------------------------

 Structure from the checkpoint file:  "JID_6668.chk"
 -------------------------------
 CID_131374997_JID_6668_neutraal
 -------------------------------
 Charge =  0 Multiplicity = 1

 SCF Done:  E(RB3LYP) =  -1166.23280064     A.U. after    1 cycles

  Exact polarizability: 145.112  -0.337 128.418   1.015   1.491 118.620
 Approx polarizability: 194.086  -1.482 196.474   6.492   6.325 185.538

                      1                      2                      3
                      A                      A                      A
 Frequencies --     15.5624                53.4587                62.4476
 Red. masses --      4.0329                 5.0661                 5.2061
 Frc consts  --      0.0006                 0.0085                 0.0120
 IR Inten    --      0.7485                 1.5807                 2.1031

                      4                      5                      6
                      A                      A                      A
 Frequencies --    106.7007               131.6636               163.9098
 Red. masses --      4.4537                 5.8417                 6.1830
 Frc consts  --      0.0299                 0.0597                 0.0979
 IR Inten    --      0.9448                 4.3588                 0.2523

                      7                      8                      9
                      A                      A                      A
 Frequencies --    181.8937               192.3629               221.5461
 Red. masses --      5.4923                 2.8966                 1.3462
 Frc consts  --      0.1071                 0.0632                 0.0389
 IR Inten    --      0.9317                 1.7524                 0.0284

                     10                     11                     12
                      A                      A                      A
 Frequencies --    229.8538               252.9483               271.5311
 Red. masses --      1.9502                 2.7803                 2.2691
 Frc consts  --      0.0607                 0.1048                 0.0986
 IR Inten    --      1.6887                 3.8491                 1.6407

                     13                     14                     15
                      A                      A                      A
 Frequencies --    288.7623               302.8113               322.6874
 Red. masses --      1.3425                 1.6951                 2.0527
 Frc consts  --      0.0660                 0.0916                 0.1259
 IR Inten    --      0.9947                 1.6423                 2.1467

                     16                     17                     18
                      A                      A                      A
 Frequencies --    335.9683               357.3705               361.0295
 Red. masses --      2.6029                 2.2863                 3.0939
 Frc consts  --      0.1731                 0.1720                 0.2376
 IR Inten    --      1.5713                 2.2421                 1.4622

                     19                     20                     21
                      A                      A                      A
 Frequencies --    396.8877               407.4420               418.5267
 Red. masses --      2.8812                 2.3938                 3.5264
 Frc consts  --      0.2674                 0.2341                 0.3639
 IR Inten    --      2.6399                 2.3854                20.3454

                     22                     23                     24
                      A                      A                      A
 Frequencies --    447.9291               456.4550               462.1719
 Red. masses --      3.7343                 4.0087                 3.1664
 Frc consts  --      0.4414                 0.4921                 0.3985
 IR Inten    --     12.2367                26.5338                 0.2823

                     25                     26                     27
                      A                      A                      A
 Frequencies --    510.7327               538.1946               551.2143
 Red. masses --      3.6129                 4.9243                 2.9020
 Frc consts  --      0.5553                 0.8404                 0.5195
 IR Inten    --      7.7091                 7.3517                 3.0760

                     28                     29                     30
                      A                      A                      A
 Frequencies --    629.3867               646.1641               657.2169
 Red. masses --      3.3037                 1.5548                 3.1243
 Frc consts  --      0.7710                 0.3825                 0.7951
 IR Inten    --     19.0206                44.7074                25.2502

                     31                     32                     33
                      A                      A                      A
 Frequencies --    701.5256               708.4238               763.0198
 Red. masses --      2.1336                 3.6617                 3.3369
 Frc consts  --      0.6187                 1.0827                 1.1446
 IR Inten    --     16.2006                55.2525                42.6439

                     34                     35                     36
                      A                      A                      A
 Frequencies --    788.4662               859.5111               874.4711
 Red. masses --      3.4850                 2.6032                 2.4737
 Frc consts  --      1.2765                 1.1331                 1.1145
 IR Inten    --     14.3976                35.3827                13.4263

                     37                     38                     39
                      A                      A                      A
 Frequencies --    915.7494               927.4927               935.0126
 Red. masses --      2.2012                 1.6875                 1.6000
 Frc consts  --      1.0876                 0.8553                 0.8241
 IR Inten    --     10.4594                 0.8030                 2.9914

                     40                     41                     42
                      A                      A                      A
 Frequencies --    954.4631               977.7106              1003.1634
 Red. masses --      1.6506                 1.1999                 2.5565
 Frc consts  --      0.8860                 0.6758                 1.5158
 IR Inten    --     10.7203                 0.0427                16.6276

                     43                     44                     45
                      A                      A                      A
 Frequencies --   1012.8180              1045.5897              1063.4091
 Red. masses --      2.2803                 2.8394                 1.4166
 Frc consts  --      1.3781                 1.8290                 0.9438
 IR Inten    --      7.3789                28.0206                 1.4137

                     46                     47                     48
                      A                      A                      A
 Frequencies --   1068.8505              1073.5990              1096.7052
 Red. masses --      2.1934                 1.7159                 4.0373
 Frc consts  --      1.4764                 1.1653                 2.8610
 IR Inten    --      2.3542                 9.8826               287.3958

                     49                     50                     51
                      A                      A                      A
 Frequencies --   1122.3138              1131.3399              1171.2838
 Red. masses --      3.0389                 2.0263                 1.4415
 Frc consts  --      2.2552                 1.5281                 1.1652
 IR Inten    --     71.9274                86.0841                 7.4483

                     52                     53                     54
                      A                      A                      A
 Frequencies --   1185.0865              1223.6499              1239.2847
 Red. masses --      1.8958                 2.0130                 1.7589
 Frc consts  --      1.5687                 1.7759                 1.5916
 IR Inten    --    141.8955               119.7602                34.9956

                     55                     56                     57
                      A                      A                      A
 Frequencies --   1259.2127              1274.7935              1282.4409
 Red. masses --      1.6700                 2.7567                 1.8199
 Frc consts  --      1.5602                 2.6395                 1.7634
 IR Inten    --     22.3092                12.9986                 7.6398

                     58                     59                     60
                      A                      A                      A
 Frequencies --   1294.9994              1312.3759              1333.2307
 Red. masses --      2.6500                 3.6757                 1.2866
 Frc consts  --      2.6184                 3.7300                 1.3474
 IR Inten    --     11.2162               155.6598                 0.5198

                     61                     62                     63
                      A                      A                      A
 Frequencies --   1370.6991              1373.3999              1377.6013
 Red. masses --      1.4018                 2.0815                 1.5799
 Frc consts  --      1.5517                 2.3133                 1.7665
 IR Inten    --     13.0347                29.3540                 4.4122

                     64                     65                     66
                      A                      A                      A
 Frequencies --   1409.3102              1429.4942              1434.3667
 Red. masses --      1.5437                 1.2747                 1.2647
 Frc consts  --      1.8064                 1.5347                 1.5331
 IR Inten    --      3.0062                11.5499                13.5141

                     67                     68                     69
                      A                      A                      A
 Frequencies --   1459.6263              1469.9301              1482.9329
 Red. masses --      1.2246                 1.0901                 1.0875
 Frc consts  --      1.5372                 1.3877                 1.4090
 IR Inten    --     18.1876                 6.0007                10.2670

                     70                     71                     72
                      A                      A                      A
 Frequencies --   1500.6041              1505.2566              1512.8291
 Red. masses --      1.0790                 1.0535                 1.0570
 Frc consts  --      1.4315                 1.4064                 1.4252
 IR Inten    --      7.5553                 0.8837                 2.7919

                     73                     74                     75
                      A                      A                      A
 Frequencies --   1517.1791              1524.4639              1529.5374
 Red. masses --      1.0534                 1.0672                 1.0628
 Frc consts  --      1.4286                 1.4613                 1.4649
 IR Inten    --      1.3759                 8.3113                 1.6761

                     76                     77                     78
                      A                      A                      A
 Frequencies --   1540.8935              1550.1920              1840.9963
 Red. masses --      1.0563                 1.0556                10.1908
 Frc consts  --      1.4777                 1.4947                20.3500
 IR Inten    --      4.4412                 8.0113               217.1336

                     79                     80                     81
                      A                      A                      A
 Frequencies --   3056.7784              3063.0412              3070.8375
 Red. masses --      1.0353                 1.0388                 1.0375
 Frc consts  --      5.6994                 5.7424                 5.7643
 IR Inten    --     13.3506                24.1864                 8.2858

                     82                     83                     84
                      A                      A                      A
 Frequencies --   3083.9549              3102.5094              3103.9261
 Red. masses --      1.0601                 1.0593                 1.0607
 Frc consts  --      5.9404                 6.0077                 6.0209
 IR Inten    --      7.1188                 2.8772                 5.8045

                     85                     86                     87
                      A                      A                      A
 Frequencies --   3108.5748              3125.4083              3127.4252
 Red. masses --      1.0635                 1.1024                 1.1011
 Frc consts  --      6.0548                 6.3444                 6.3455
 IR Inten    --      5.9753                 5.9243                 5.6751

                     88                     89                     90
                      A                      A                      A
 Frequencies --   3133.2582              3136.4145              3138.9141
 Red. masses --      1.1018                 1.1046                 1.1023
 Frc consts  --      6.3730                 6.4023                 6.3992
 IR Inten    --     50.3437                 8.1938                43.0417

                     91                     92                     93
                      A                      A                      A
 Frequencies --   3147.0184              3155.8406              3167.1492
 Red. masses --      1.1020                 1.1007                 1.1057
 Frc consts  --      6.4304                 6.4589                 6.5349
 IR Inten    --     17.2759                10.5191                 1.4842

                     94                     95                     96
                      A                      A                      A
 Frequencies --   3172.1704              3176.4559              3672.4014
 Red. masses --      1.1056                 1.0989                 1.0640
 Frc consts  --      6.5546                 6.5329                 8.4548
 IR Inten    --      1.6609                 7.0487                62.0382

 - Thermochemistry -
 -------------------
 Temperature   298.150 Kelvin.  Pressure   1.00000 Atm.
 Atom     1 has atomic number  6 and mass  12.00000

 Molecular mass:   250.08750 amu.
 Principal axes and moments of inertia in atomic units:
                           1         2         3
     Eigenvalues --  2406.555445009.121475984.91447
           X            0.99938   0.03463  -0.00608
           Y           -0.03467   0.99939  -0.00498
           Z            0.00590   0.00519   0.99997
 This molecule is an asymmetric top.
 Rotational symmetry number  1.
 Warning -- assumption of classical behavior for rotation
           may cause significant error
 Rotational temperatures (Kelvin)      0.03599     0.01729     0.01447
 Rotational constants (GHZ):           0.74993     0.36029     0.30155
 Zero-point vibrational energy     748540.6 (Joules/Mol)
                                  178.90549 (Kcal/Mol)
 Warning -- explicit consideration of  27 degrees of freedom as
           vibrations may cause significant error
 Vibrational temperatures:     22.39    76.92    89.85   153.52   189.43
          (Kelvin)            235.83   261.70   276.77   318.76   330.71
                              363.94   390.67   415.46   435.68   464.28
                              483.38   514.18   519.44   571.03   586.22
                              602.17   644.47   656.74   664.96   734.83
                              774.34   793.07   905.55   929.69   945.59
                             1009.34  1019.26  1097.82  1134.43  1236.64
                             1258.17  1317.56  1334.46  1345.27  1373.26
                             1406.71  1443.33  1457.22  1504.37  1530.01
                             1537.84  1544.67  1577.91  1614.76  1627.75
                             1685.22  1705.08  1760.56  1783.05  1811.73
                             1834.14  1845.15  1863.22  1888.22  1918.22
                             1972.13  1976.02  1982.06  2027.68  2056.72
                             2063.73  2100.08  2114.90  2133.61  2159.03
                             2165.73  2176.62  2182.88  2193.36  2200.66
                             2217.00  2230.38  2648.78  4398.02  4407.03
                             4418.25  4437.12  4463.82  4465.86  4472.55
                             4496.77  4499.67  4508.06  4512.60  4516.20
                             4527.86  4540.55  4556.82  4564.05  4570.21
                             5283.77

 Zero-point correction=                           0.285104 (Hartree/Particle)
 Thermal correction to Energy=                    0.301903
 Thermal correction to Enthalpy=                  0.302848
 Thermal correction to Gibbs Free Energy=         0.240817
 Sum of electronic and zero-point Energies=          -1165.947697
 Sum of electronic and thermal Energies=             -1165.930897
 Sum of electronic and thermal Enthalpies=           -1165.929953
 Sum of electronic and thermal Free Energies=        -1165.991984

                     E (Thermal)             CV                S
                      KCal/Mol        Cal/Mol-Kelvin    Cal/Mol-Kelvin
 Total                  189.447             65.237            130.555
 Electronic               0.000              0.000              0.000
 Translational            0.889              2.981             42.450
 Rotational               0.889              2.981             32.645
 Vibrational            187.670             59.276             55.460
 Vibration     1          0.593              1.986              7.132
 Vibration     2          0.596              1.976              4.685
 Vibration     3          0.597              1.972              4.378
 Vibration     4          0.606              1.944              3.328
 Vibration     5          0.612              1.922              2.922
 Vibration     6          0.623              1.887              2.504
 Vibration     7          0.630              1.864              2.309
 Vibration     8          0.634              1.850              2.205
 Vibration     9          0.648              1.808              1.946
 Vibration    10          0.652              1.795              1.880
 Vibration    11          0.664              1.758              1.710
 Vibration    12          0.675              1.726              1.586
 Vibration    13          0.685              1.695              1.481
 Vibration    14          0.694              1.668              1.401
 Vibration    15          0.708              1.630              1.296
 Vibration    16          0.717              1.604              1.231
 Vibration    17          0.733              1.560              1.134
 Vibration    18          0.735              1.553              1.118
 Vibration    19          0.763              1.477              0.974
 Vibration    20          0.772              1.454              0.936
 Vibration    21          0.781              1.430              0.897
 Vibration    22          0.807              1.365              0.802
 Vibration    23          0.815              1.347              0.776
 Vibration    24          0.820              1.334              0.760
 Vibration    25          0.866              1.226              0.632
 Vibration    26          0.893              1.166              0.569
 Vibration    27          0.907              1.137              0.542

 Optimization completed.
    -- Stationary point found.
 Normal termination of Gaussian 16 at Fri Dec 11 00:35:00 2020.

 ----------------------------------------------------------------------
 # B3LYP/6-311++G(d,p) empiricaldispersion=gd3bj scf=xqc pop=npa geom=c
 heck
 ----------------------------------------------------------------------

 ---------------------------------------
 CID_131374997_JID_6668_Energie_neutraal
 ---------------------------------------
 Structure from the checkpoint file:  "JID_6668.chk"
 Charge =  0 Multiplicity = 1

 SCF Done:  E(RB3LYP) =  -1166.49105949     A.U. after   15 cycles
 Normal termination of Gaussian 16 at Fri Dec 11 00:40:43 2020.

 ----------------------------------------------------------------------
 # B3LYP/6-311++G(d,p) empiricaldispersion=gd3bj scf=xqc pop=npa geom=c
 heck
 ----------------------------------------------------------------------

 -------------------------------------
 CID_131374997_JID_6668_Energie_kation
 -------------------------------------
 Structure from the checkpoint file:  "JID_6668.chk"
 Charge =  1 Multiplicity = 2

 SCF Done:  E(UB3LYP) =  -1166.14804515     A.U. after   25 cycles
 Normal termination of Gaussian 16 at Fri Dec 11 00:53:21 2020.
 Gaussian 16:  ES64L-G16RevA.03 25-Dec-2016

 ----------------------------------------------------------------------
 # B3LYP/6-311++G(d,p) empiricaldispersion=gd3bj scf=xqc pop=npa geom=c
 heck
 ----------------------------------------------------------------------

 ------------------------------------
 CID_131374997_JID_6668_Energie_anion
 ------------------------------------
 Structure from the checkpoint file:  "JID_6668.chk"
 Charge = -1 Multiplicity = 2

                         Standard orientation:
 ---------------------------------------------------------------------
 Center     Atomic      Atomic             Coordinates (Angstroms)
 Number     Number       Type             X           Y           Z
 ---------------------------------------------------------------------
      1          6           0       -1.759792   -2.731292    0.076064
      2          6           0       -2.123887   -1.244344    0.023093
      3          6           0       -3.229561   -1.012014   -1.013975
      4          6           0       -2.567341   -0.771651    1.411017
      5          8           0       -0.903045   -0.617630   -0.476191
      6          6           0       -0.375771    0.641007   -0.086368
      7          6           0        0.591802    1.005667   -1.244324
      8          6           0        1.659010   -0.064242   -1.473834
      9         16           0        2.695990   -0.268849   -0.003670
     10          8           0        3.520230   -1.477810   -0.152077
     11          8           0        3.318770    1.036406    0.288455
     12          6           0        1.426571   -0.561519    1.256556
     13          6           0        0.392901    0.564297    1.253442
     14          6           0       -1.431833    1.761193   -0.096005
     15          8           0       -2.207531    1.961411   -1.002559
     16          8           0       -1.373778    2.557452    0.996926
     17          1           0       -2.634258   -3.333575    0.343703
     18          1           0       -0.974854   -2.914218    0.817457
     19          1           0       -1.395652   -3.064057   -0.900557
     20          1           0       -4.115706   -1.605444   -0.762259
     21          1           0       -3.511077    0.040161   -1.068659
     22          1           0       -2.875018   -1.320354   -2.002077
     23          1           0       -1.838719   -1.036995    2.182198
     24          1           0       -2.752136    0.304899    1.456725
     25          1           0       -3.509085   -1.270036    1.662589
     26          1           0        1.072266    1.965898   -1.030377
     27          1           0       -0.006700    1.113113   -2.152779
     28          1           0        2.345733    0.214503   -2.278170
     29          1           0        1.214520   -1.036382   -1.692928
     30          1           0        0.983042   -1.534722    1.037880
     31          1           0        1.969479   -0.613720    2.204445
     32          1           0        0.898403    1.517005    1.430826
     33          1           0       -0.297443    0.415255    2.084803
     34          1           0       -2.038377    3.258998    0.855470
 ---------------------------------------------------------------------

 SCF Done:  E(UB3LYP) =  -1166.48618276     A.U. after   33 cycles
 SCF Done:  E(UB3LYP) =  -1166.48618276     a.u. after    1 cycles

 The electronic state is 2-A.
 Alpha  occ. eigenvalues --  -88.95278 -19.07878 -19.03824 -19.02621 -19.02568
 Alpha  occ. eigenvalues --  -19.02350 -10.21499 -10.16843 -10.14693 -10.12436
 Alpha  occ. eigenvalues --  -10.12195 -10.10482 -10.09666 -10.06982 -10.06918
 Alpha  occ. eigenvalues --  -10.05939  -8.01822  -5.98087  -5.97969  -5.97914
 Alpha  occ. eigenvalues --   -1.02238  -1.01623  -0.95198  -0.93072  -0.91335
 Alpha  occ. eigenvalues --   -0.76452  -0.71344  -0.69890  -0.66870  -0.60473
 Alpha  occ. eigenvalues --   -0.59817  -0.57392  -0.56864  -0.52669  -0.50031
 Alpha  occ. eigenvalues --   -0.45222  -0.43340  -0.41540  -0.40671  -0.40293
 Alpha  occ. eigenvalues --   -0.39523  -0.38887  -0.37506  -0.36324  -0.35931
 Alpha  occ. eigenvalues --   -0.35148  -0.34464  -0.33388  -0.33080  -0.31830
 Alpha  occ. eigenvalues --   -0.31065  -0.30538  -0.29941  -0.29066  -0.28467
 Alpha  occ. eigenvalues --   -0.27957  -0.27754  -0.26154  -0.25005  -0.24320
 Alpha  occ. eigenvalues --   -0.23501  -0.23193  -0.22284  -0.21505  -0.20114
 Alpha  occ. eigenvalues --   -0.18979  -0.17619   0.03847
 Alpha virt. eigenvalues --    0.06207   0.06743   0.07266   0.07530   0.08574
 Alpha virt. eigenvalues --    0.09205   0.09454   0.10036   0.10649   0.11043
 Alpha virt. eigenvalues --    0.11575   0.12282   0.12613   0.12886   0.13649

  Beta  occ. eigenvalues --  -88.95278 -19.07801 -19.03813 -19.02620 -19.02522
  Beta  occ. eigenvalues --  -19.02345 -10.21444 -10.16834 -10.14690 -10.12424
  Beta  occ. eigenvalues --  -10.12180 -10.10473 -10.09647 -10.06953 -10.06866
  Beta  occ. eigenvalues --  -10.05920  -8.01822  -5.98087  -5.97969  -5.97915
  Beta  occ. eigenvalues --   -1.02109  -1.01616  -0.95164  -0.92968  -0.91329
  Beta  occ. eigenvalues --   -0.76420  -0.71319  -0.69862  -0.66811  -0.60399
  Beta  occ. eigenvalues --   -0.59774  -0.57291  -0.56813  -0.52588  -0.49989
  Beta  occ. eigenvalues --   -0.45127  -0.43295  -0.41525  -0.40631  -0.40228
  Beta  occ. eigenvalues --   -0.39457  -0.38834  -0.37449  -0.36276  -0.35900
  Beta  occ. eigenvalues --   -0.35114  -0.34396  -0.33342  -0.33005  -0.31781
  Beta  occ. eigenvalues --   -0.31029  -0.30506  -0.29898  -0.29039  -0.28433
  Beta  occ. eigenvalues --   -0.27929  -0.27721  -0.26117  -0.24960  -0.24306
  Beta  occ. eigenvalues --   -0.23358  -0.23163  -0.22251  -0.21493  -0.20089
  Beta  occ. eigenvalues --   -0.18939  -0.17578
  Beta virt. eigenvalues --    0.06175   0.07257   0.07505   0.07841   0.07949
  Beta virt. eigenvalues --    0.09146   0.09395   0.09778   0.10212   0.10806
  Beta virt. eigenvalues --    0.11337   0.11851   0.12622   0.12743   0.12995

 Mulliken charges and spin densities:
               1          2
     1  C    0.395812  -0.830688
     2  C   -1.393152   1.541377
     3  C    0.318548  -0.779587
     4  C    0.918090  -1.463395
     5  O    0.154922   0.004317
     6  C    0.089162  -0.375706
     7  C   -0.012264  -0.207878
     8  C   -0.586013  -0.184398
     9  S    0.792434  -0.242546
    10  O   -0.148140   0.016957
    11  O   -0.223778  -0.002583
    12  C   -0.750723  -0.066465
    13  C    0.131932  -0.677156
    14  C    0.263414  -0.209779
    15  O   -0.177628   0.038471
    16  O   -0.090446   0.051279
    17  H   -0.088807   0.240183
    18  H   -0.218140   0.357989
    19  H    0.010331   0.137321
    20  H   -0.051678   0.190684
    21  H    0.091192   0.091005
    22  H    0.032580   0.109081
    23  H   -0.221686   0.362196
    24  H   -0.302272   0.526846
    25  H   -0.472234   0.664103
    26  H    0.008747   0.233415
    27  H    0.157740   0.054738
    28  H    0.152454   0.114116
    29  H    0.207480   0.053056
    30  H    0.377904  -0.171165
    31  H   -0.064197   0.330736
    32  H    0.223334   0.041619
    33  H    0.123970   0.108401
    34  H   -0.648889   0.943456
 Sum of Mulliken charges =  -1.00000   1.00000

 Dipole moment (field-independent basis, Debye):
    X=              3.2731    Y=             -2.2458    Z=             -3.4436  Tot=              5.2550
 Quadrupole moment (field-independent basis, Debye-Ang):
   XX=           -183.4234   YY=           -160.7190   ZZ=           -136.4500
   XY=              6.2061   XZ=              5.9600   YZ=             -2.3308

 Summary of Natural Population Analysis:

                                       Natural Population
                Natural  -----------------------------------------------
    Atom  No    Charge         Core      Valence    Rydberg      Total
 -----------------------------------------------------------------------
      C    1   -0.28647      0.99960     2.27980    0.00707     3.28647
      C    2    0.13560      0.99952     1.84961    0.01527     2.86440
      C    3   -0.29561      0.99960     2.28931    0.00671     3.29561
      C    4   -0.30374      0.99960     2.29657    0.00757     3.30374
      O    5   -0.32997      0.99986     3.31512    0.01499     4.32997
      C    6    0.10769      0.99946     1.87407    0.01878     2.89231
      C    7   -0.20196      0.99957     2.19152    0.01087     3.20196
      C    8   -0.28926      0.99957     2.27944    0.01025     3.28926
      S    9    1.02008      4.99925     1.88667    0.09400     6.97992
      O   10   -0.46957      0.99991     3.46432    0.00533     4.46957
      O   11   -0.47383      0.99991     3.46853    0.00539     4.47383
      C   12   -0.28985      0.99958     2.27780    0.01248     3.28985
      C   13   -0.21851      0.99957     2.20699    0.01194     3.21851
      C   14    0.40820      0.99963     1.56566    0.02651     2.59180
      O   15   -0.30077      0.99987     3.29462    0.00629     4.30077
      O   16   -0.34091      0.99987     3.33391    0.00713     4.34091
      H   17    0.10284      0.00000     0.39615    0.00101     0.39716
      H   18    0.09877      0.00000     0.40011    0.00112     0.40123
      H   19    0.10213      0.00000     0.39696    0.00090     0.39787
      H   20    0.09849      0.00000     0.40063    0.00088     0.40151
      H   21    0.11353      0.00000     0.38526    0.00120     0.38647
      H   22    0.10081      0.00000     0.39833    0.00086     0.39919
      H   23    0.10104      0.00000     0.39727    0.00169     0.39896
      H   24    0.10627      0.00000     0.39161    0.00212     0.39373
      H   25    0.11092      0.00000     0.38737    0.00171     0.38908
      H   26    0.11171      0.00000     0.38715    0.00114     0.38829
      H   27    0.11844      0.00000     0.38046    0.00110     0.38156
      H   28    0.11794      0.00000     0.38081    0.00125     0.38206
      H   29    0.12246      0.00000     0.37618    0.00137     0.37754
      H   30    0.11844      0.00000     0.37987    0.00169     0.38156
      H   31    0.11955      0.00000     0.37931    0.00114     0.38045
      H   32    0.11831      0.00000     0.38017    0.00152     0.38169
      H   33    0.11828      0.00000     0.38020    0.00151     0.38172
      H   34    0.24896      0.00000     0.22872    0.02233     0.25104
 =======================================================================
   * Total *    0.00000     19.99437    46.70051    0.30512    67.00000

 Normal termination of Gaussian 16 at Fri Dec 11 01:10:13 2020.
