 Gaussian 16, Revision A.03,

 -----------------------------------------------------------
 # opt freq B3LYP/6-31G(d) empiricaldispersion=gd3bj scf=xqc
 -----------------------------------------------------------

 ------------------------------
 CID_60002050_JID_3847_neutraal
 ------------------------------
 Symbolic Z-matrix:
 Charge =  0 Multiplicity = 1

 SCF Done:  E(RB3LYP) =  -575.412733918     A.U. after   15 cycles
 SCF Done:  E(RB3LYP) =  -575.417335072     A.U. after   13 cycles
 SCF Done:  E(RB3LYP) =  -575.417827626     A.U. after   12 cycles
 SCF Done:  E(RB3LYP) =  -575.418039543     A.U. after   11 cycles
 SCF Done:  E(RB3LYP) =  -575.418154785     A.U. after   11 cycles
 SCF Done:  E(RB3LYP) =  -575.418280543     A.U. after   12 cycles
 SCF Done:  E(RB3LYP) =  -575.418335766     A.U. after   11 cycles
 SCF Done:  E(RB3LYP) =  -575.418346078     A.U. after   10 cycles
 SCF Done:  E(RB3LYP) =  -575.418351105     A.U. after    9 cycles
 SCF Done:  E(RB3LYP) =  -575.418352156     A.U. after    8 cycles
 SCF Done:  E(RB3LYP) =  -575.418352254     A.U. after    7 cycles
 Optimization completed.
    -- Stationary point found.
 Normal termination of Gaussian 16 at Sun Dec 13 20:00:18 2020.

 --------------------------------------------------------------------
 #N Geom=AllCheck Guess=TCheck SCRF=Check GenChk RB3LYP/6-31G(d) Freq
 --------------------------------------------------------------------

 Structure from the checkpoint file:  "JID_3847.chk"
 ------------------------------
 CID_60002050_JID_3847_neutraal
 ------------------------------
 Charge =  0 Multiplicity = 1

 SCF Done:  E(RB3LYP) =  -575.418352254     A.U. after    1 cycles

  Exact polarizability: 138.715  10.924 141.389  16.376  -4.244  90.192
 Approx polarizability: 211.884  40.335 240.764  42.349  -2.703 140.052

                      1                      2                      3
                      A                      A                      A
 Frequencies --     43.8399                65.0162                94.2583
 Red. masses --      3.6649                 3.0694                 1.8687
 Frc consts  --      0.0041                 0.0076                 0.0098
 IR Inten    --      1.2390                 0.0526                 0.7156

                      4                      5                      6
                      A                      A                      A
 Frequencies --    124.8404               133.9532               171.2718
 Red. masses --      2.7935                 2.7937                 1.0607
 Frc consts  --      0.0257                 0.0295                 0.0183
 IR Inten    --      1.4072                 1.8249                 0.1582

                      7                      8                      9
                      A                      A                      A
 Frequencies --    175.5918               204.7173               239.6438
 Red. masses --      1.5150                 2.0497                 3.1843
 Frc consts  --      0.0275                 0.0506                 0.1077
 IR Inten    --      2.1300                 1.1602                 3.1617

                     10                     11                     12
                      A                      A                      A
 Frequencies --    264.3627               303.0644               342.1067
 Red. masses --      1.1991                 3.1756                 4.1230
 Frc consts  --      0.0494                 0.1718                 0.2843
 IR Inten    --      1.0540                 1.9133                 2.7173

                     13                     14                     15
                      A                      A                      A
 Frequencies --    344.3247               387.5451               396.4203
 Red. masses --      2.6400                 3.5244                 2.1710
 Frc consts  --      0.1844                 0.3119                 0.2010
 IR Inten    --      2.1213                 7.5671                 0.9875

                     16                     17                     18
                      A                      A                      A
 Frequencies --    471.1884               483.1339               502.0479
 Red. masses --      3.5651                 5.0950                 4.3276
 Frc consts  --      0.4663                 0.7007                 0.6427
 IR Inten    --      0.7502                 2.9094                 5.1152

                     19                     20                     21
                      A                      A                      A
 Frequencies --    552.6907               574.7692               640.7603
 Red. masses --      3.4795                 3.6765                 4.1149
 Frc consts  --      0.6262                 0.7156                 0.9954
 IR Inten    --      1.6696                 3.2676                 0.5490

                     22                     23                     24
                      A                      A                      A
 Frequencies --    687.4993               738.9573               770.9969
 Red. masses --      3.3756                 2.6057                 3.4660
 Frc consts  --      0.9400                 0.8383                 1.2139
 IR Inten    --      7.2256                22.1825                29.9961

                     25                     26                     27
                      A                      A                      A
 Frequencies --    792.2423               828.4268               834.8803
 Red. masses --      2.5049                 1.4863                 1.1742
 Frc consts  --      0.9263                 0.6010                 0.4822
 IR Inten    --     75.4721                27.9188                 0.7840

                     28                     29                     30
                      A                      A                      A
 Frequencies --    878.1296               915.5036               933.6899
 Red. masses --      2.1133                 2.0774                 1.2742
 Frc consts  --      0.9601                 1.0259                 0.6545
 IR Inten    --     18.7826                 3.1428                 0.1577

                     31                     32                     33
                      A                      A                      A
 Frequencies --    966.6138              1000.4826              1041.8488
 Red. masses --      1.8638                 1.5487                 2.5985
 Frc consts  --      1.0260                 0.9134                 1.6618
 IR Inten    --      2.3261                 2.5903                 0.7845

                     34                     35                     36
                      A                      A                      A
 Frequencies --   1066.0155              1067.6457              1074.3892
 Red. masses --      1.6672                 1.6158                 1.4880
 Frc consts  --      1.1163                 1.0851                 1.0120
 IR Inten    --      3.2745                 1.5476                 0.8688

                     37                     38                     39
                      A                      A                      A
 Frequencies --   1104.4387              1137.7033              1166.8249
 Red. masses --      2.0798                 2.7107                 2.4874
 Frc consts  --      1.4947                 2.0672                 1.9953
 IR Inten    --     23.3569                20.8808                23.0405

                     40                     41                     42
                      A                      A                      A
 Frequencies --   1183.0536              1192.4020              1247.7726
 Red. masses --      1.6284                 1.5703                 2.4452
 Frc consts  --      1.3428                 1.3155                 2.2430
 IR Inten    --     15.0438                 0.8392                11.7835

                     43                     44                     45
                      A                      A                      A
 Frequencies --   1269.9872              1293.1939              1300.5671
 Red. masses --      4.0153                 2.0425                 1.5419
 Frc consts  --      3.8157                 2.0125                 1.5367
 IR Inten    --      9.1731                 1.1828                 3.2605

                     46                     47                     48
                      A                      A                      A
 Frequencies --   1340.1012              1362.2828              1382.3092
 Red. masses --      1.2216                 5.4332                 1.2954
 Frc consts  --      1.2926                 5.9407                 1.4583
 IR Inten    --      5.0551               147.3948                18.5399

                     49                     50                     51
                      A                      A                      A
 Frequencies --   1412.3104              1442.1315              1444.7026
 Red. masses --      1.2965                 1.3035                 1.2954
 Frc consts  --      1.5237                 1.5972                 1.5929
 IR Inten    --      3.7173                 5.9221                 7.2849

                     52                     53                     54
                      A                      A                      A
 Frequencies --   1448.2291              1466.4432              1494.4063
 Red. masses --      1.2572                 1.9043                 1.0694
 Frc consts  --      1.5536                 2.4128                 1.4071
 IR Inten    --      1.7153                 7.2829                18.1580

                     55                     56                     57
                      A                      A                      A
 Frequencies --   1500.0583              1506.9644              1514.4434
 Red. masses --      2.6488                 1.1700                 1.1137
 Frc consts  --      3.5117                 1.5654                 1.5050
 IR Inten    --     67.5784                 1.5853                 2.3054

                     58                     59                     60
                      A                      A                      A
 Frequencies --   1518.3988              1529.7531              1532.7344
 Red. masses --      1.0548                 1.0566                 1.1041
 Frc consts  --      1.4328                 1.4569                 1.5282
 IR Inten    --      7.5700                13.2839                12.2854

                     61                     62                     63
                      A                      A                      A
 Frequencies --   1535.1666              1541.3326              1555.9105
 Red. masses --      1.2870                 1.2749                 1.0895
 Frc consts  --      1.7870                 1.7845                 1.5539
 IR Inten    --      8.2523                16.3098                 5.8957

                     64                     65                     66
                      A                      A                      A
 Frequencies --   1591.5951              1676.7052              2960.6096
 Red. masses --      5.0257                 6.0674                 1.0723
 Frc consts  --      7.5009                10.0501                 5.5375
 IR Inten    --      5.9823                 9.1105                51.8761

                     67                     68                     69
                      A                      A                      A
 Frequencies --   3044.4470              3049.2113              3050.5500
 Red. masses --      1.0709                 1.0406                 1.0519
 Frc consts  --      5.8483                 5.7006                 5.7672
 IR Inten    --      7.3246                10.7841                59.5393

                     70                     71                     72
                      A                      A                      A
 Frequencies --   3061.5703              3076.6736              3104.1127
 Red. masses --      1.0422                 1.0648                 1.0993
 Frc consts  --      5.7557                 5.9388                 6.2409
 IR Inten    --      9.6712                31.7028                13.8830

                     73                     74                     75
                      A                      A                      A
 Frequencies --   3112.9517              3113.2636              3123.3589
 Red. masses --      1.0978                 1.0962                 1.0999
 Frc consts  --      6.2680                 6.2600                 6.3219
 IR Inten    --     32.9138                12.6577                24.6923

                     76                     77                     78
                      A                      A                      A
 Frequencies --   3131.6387              3134.5454              3171.6983
 Red. masses --      1.1004                 1.1034                 1.1003
 Frc consts  --      6.3586                 6.3873                 6.5212
 IR Inten    --     15.1877                25.1857                14.0825

                     79                     80                     81
                      A                      A                      A
 Frequencies --   3203.8049              3270.8580              3488.9516
 Red. masses --      1.0906                 1.0942                 1.0733
 Frc consts  --      6.5953                 6.8970                 7.6975
 IR Inten    --     10.8271                 0.1292                 0.5501

 - Thermochemistry -
 -------------------
 Temperature   298.150 Kelvin.  Pressure   1.00000 Atm.
 Atom     1 has atomic number  6 and mass  12.00000

 Molecular mass:   180.12626 amu.
 Principal axes and moments of inertia in atomic units:
                           1         2         3
     Eigenvalues --  1694.515033095.366343949.85189
           X            0.99975  -0.01582  -0.01607
           Y            0.01572   0.99985  -0.00678
           Z            0.01618   0.00653   0.99985
 This molecule is an asymmetric top.
 Rotational symmetry number  1.
 Warning -- assumption of classical behavior for rotation
           may cause significant error
 Rotational temperatures (Kelvin)      0.05111     0.02798     0.02193
 Rotational constants (GHZ):           1.06505     0.58305     0.45691
 Zero-point vibrational energy     663347.5 (Joules/Mol)
                                  158.54385 (Kcal/Mol)
 Warning -- explicit consideration of  20 degrees of freedom as
           vibrations may cause significant error
 Vibrational temperatures:     63.08    93.54   135.62   179.62   192.73
          (Kelvin)            246.42   252.64   294.54   344.79   380.36
                              436.04   492.22   495.41   557.59   570.36
                              677.94   695.12   722.33   795.20   826.96
                              921.91   989.16  1063.19  1109.29  1139.86
                             1191.92  1201.21  1263.43  1317.21  1343.37
                             1390.74  1439.47  1498.99  1533.76  1536.10
                             1545.81  1589.04  1636.90  1678.80  1702.15
                             1715.60  1795.27  1827.23  1860.62  1871.23
                             1928.11  1960.02  1988.83  2032.00  2074.91
                             2078.60  2083.68  2109.88  2150.12  2158.25
                             2168.19  2178.95  2184.64  2200.97  2205.26
                             2208.76  2217.63  2238.61  2289.95  2412.40
                             4259.66  4380.28  4387.13  4389.06  4404.92
                             4426.65  4466.13  4478.84  4479.29  4493.82
                             4505.73  4509.91  4563.37  4609.56  4706.04
                             5019.82

 Zero-point correction=                           0.252656 (Hartree/Particle)
 Thermal correction to Energy=                    0.266101
 Thermal correction to Enthalpy=                  0.267045
 Thermal correction to Gibbs Free Energy=         0.212752
 Sum of electronic and zero-point Energies=           -575.165697
 Sum of electronic and thermal Energies=              -575.152251
 Sum of electronic and thermal Enthalpies=            -575.151307
 Sum of electronic and thermal Free Energies=         -575.205600

                     E (Thermal)             CV                S
                      KCal/Mol        Cal/Mol-Kelvin    Cal/Mol-Kelvin
 Total                  166.981             50.761            114.270
 Electronic               0.000              0.000              0.000
 Translational            0.889              2.981             41.472
 Rotational               0.889              2.981             31.405
 Vibrational            165.204             44.799             41.393
 Vibration     1          0.595              1.980              5.078
 Vibration     2          0.597              1.971              4.299
 Vibration     3          0.603              1.953              3.570
 Vibration     4          0.610              1.928              3.024
 Vibration     5          0.613              1.919              2.888
 Vibration     6          0.626              1.878              2.421
 Vibration     7          0.628              1.872              2.375
 Vibration     8          0.640              1.833              2.090
 Vibration     9          0.657              1.780              1.806
 Vibration    10          0.671              1.738              1.633
 Vibration    11          0.695              1.668              1.400
 Vibration    12          0.721              1.591              1.202
 Vibration    13          0.723              1.587              1.192
 Vibration    14          0.756              1.497              1.010
 Vibration    15          0.763              1.478              0.976
 Vibration    16          0.828              1.314              0.734
 Vibration    17          0.839              1.287              0.702
 Vibration    18          0.857              1.245              0.653
 Vibration    19          0.908              1.134              0.539
 Vibration    20          0.931              1.086              0.495

 Optimization completed.
    -- Stationary point found.
 Normal termination of Gaussian 16 at Sun Dec 13 20:08:08 2020.

 ----------------------------------------------------------------------
 # B3LYP/6-311++G(d,p) empiricaldispersion=gd3bj scf=xqc pop=npa geom=c
 heck
 ----------------------------------------------------------------------

 --------------------------------------
 CID_60002050_JID_3847_Energie_neutraal
 --------------------------------------
 Structure from the checkpoint file:  "JID_3847.chk"
 Charge =  0 Multiplicity = 1

 SCF Done:  E(RB3LYP) =  -575.581175510     A.U. after   15 cycles
 Normal termination of Gaussian 16 at Sun Dec 13 20:11:45 2020.

 ----------------------------------------------------------------------
 # B3LYP/6-311++G(d,p) empiricaldispersion=gd3bj scf=xqc pop=npa geom=c
 heck
 ----------------------------------------------------------------------

 ------------------------------------
 CID_60002050_JID_3847_Energie_kation
 ------------------------------------
 Structure from the checkpoint file:  "JID_3847.chk"
 Charge =  1 Multiplicity = 2

 SCF Done:  E(UB3LYP) =  -575.297456744     A.U. after   29 cycles
 Normal termination of Gaussian 16 at Sun Dec 13 20:21:29 2020.
 Gaussian 16:  ES64L-G16RevA.03 25-Dec-2016

 ----------------------------------------------------------------------
 # B3LYP/6-311++G(d,p) empiricaldispersion=gd3bj scf=xqc pop=npa geom=c
 heck
 ----------------------------------------------------------------------

 -----------------------------------
 CID_60002050_JID_3847_Energie_anion
 -----------------------------------
 Structure from the checkpoint file:  "JID_3847.chk"
 Charge = -1 Multiplicity = 2

                         Standard orientation:
 ---------------------------------------------------------------------
 Center     Atomic      Atomic             Coordinates (Angstroms)
 Number     Number       Type             X           Y           Z
 ---------------------------------------------------------------------
      1          6           0        3.640344   -0.864841   -1.366694
      2          6           0        2.641316   -0.010799   -0.593105
      3          7           0        2.181759   -0.719956    0.600797
      4          6           0        1.164590   -0.004741    1.376192
      5          6           0       -0.138491    0.288836    0.638559
      6          6           0       -0.438770    1.586595    0.179229
      7          6           0       -1.624360    1.756056   -0.542598
      8          6           0       -2.464894    0.695443   -0.800319
      9          7           0       -2.169720   -0.561341   -0.353689
     10          6           0       -1.012238   -0.770835    0.372840
     11          6           0       -0.840345   -2.193433    0.803315
     12          8           0       -2.960430   -1.538647   -0.606048
     13          6           0        0.453769    2.775118    0.442582
     14          1           0        4.481273   -1.147936   -0.725832
     15          1           0        4.026403   -0.322279   -2.236040
     16          1           0        3.167703   -1.784932   -1.733219
     17          1           0        3.128732    0.915059   -0.258999
     18          1           0        1.815379    0.291231   -1.262241
     19          1           0        1.812963   -1.626959    0.318736
     20          1           0        0.959634   -0.589554    2.278643
     21          1           0        1.613208    0.931886    1.716535
     22          1           0       -1.902124    2.736005   -0.918724
     23          1           0       -3.390989    0.753687   -1.355287
     24          1           0       -1.756142   -2.540750    1.291782
     25          1           0       -0.707511   -2.844684   -0.068982
     26          1           0        0.004320   -2.320004    1.480812
     27          1           0        1.455486    2.638844    0.020280
     28          1           0        0.026669    3.677662   -0.003999
     29          1           0        0.578638    2.966592    1.515168
 ---------------------------------------------------------------------

 SCF Done:  E(UB3LYP) =  -575.573100036     A.U. after   33 cycles
 SCF Done:  E(UB3LYP) =  -575.573100036     a.u. after    1 cycles

 The electronic state is 2-A.
 Alpha  occ. eigenvalues --  -18.95011 -14.29749 -14.18820 -10.09600 -10.08696
 Alpha  occ. eigenvalues --  -10.07867 -10.07629 -10.06139 -10.06048 -10.06035
 Alpha  occ. eigenvalues --  -10.05739 -10.05479 -10.05259  -0.96619  -0.79992
 Alpha  occ. eigenvalues --   -0.76231  -0.68239  -0.68166  -0.63914  -0.59654
 Alpha  occ. eigenvalues --   -0.58934  -0.55623  -0.50812  -0.49201  -0.46952
 Alpha  occ. eigenvalues --   -0.40405  -0.38209  -0.36889  -0.35827  -0.34722
 Alpha  occ. eigenvalues --   -0.33977  -0.32876  -0.31246  -0.30852  -0.30399
 Alpha  occ. eigenvalues --   -0.29945  -0.28961  -0.28591  -0.27172  -0.25815
 Alpha  occ. eigenvalues --   -0.25223  -0.24584  -0.23766  -0.23554  -0.19822
 Alpha  occ. eigenvalues --   -0.14375  -0.12178  -0.11435  -0.08825   0.04913
 Alpha virt. eigenvalues --    0.07108   0.07641   0.08295   0.08760   0.09639
 Alpha virt. eigenvalues --    0.10155   0.10404   0.10951   0.10978   0.12057
 Alpha virt. eigenvalues --    0.12746   0.13351   0.13745   0.14218   0.14784

  Beta  occ. eigenvalues --  -18.94845 -14.29355 -14.18794 -10.09668 -10.08699
  Beta  occ. eigenvalues --  -10.07841 -10.07497 -10.06193 -10.06026 -10.05944
  Beta  occ. eigenvalues --  -10.05744 -10.05237 -10.05227  -0.96093  -0.79922
  Beta  occ. eigenvalues --   -0.75966  -0.68102  -0.67813  -0.63834  -0.59554
  Beta  occ. eigenvalues --   -0.58747  -0.55501  -0.50688  -0.49101  -0.46675
  Beta  occ. eigenvalues --   -0.40252  -0.38059  -0.36829  -0.35499  -0.34442
  Beta  occ. eigenvalues --   -0.33460  -0.32756  -0.31125  -0.30632  -0.30267
  Beta  occ. eigenvalues --   -0.29888  -0.28732  -0.28209  -0.27130  -0.25745
  Beta  occ. eigenvalues --   -0.25153  -0.24483  -0.23670  -0.23487  -0.19074
  Beta  occ. eigenvalues --   -0.13914  -0.12059  -0.11315  -0.07509
  Beta virt. eigenvalues --    0.07330   0.07898   0.08509   0.08957   0.09569
  Beta virt. eigenvalues --    0.09753   0.10264   0.10718   0.11133   0.11321
  Beta virt. eigenvalues --    0.12165   0.12854   0.13405   0.13769   0.14513

 Mulliken charges and spin densities:
               1          2
     1  C    1.227011  -1.791644
     2  C   -0.582587   0.258433
     3  N   -0.006809   0.059724
     4  C   -0.878119   0.056457
     5  C    0.686038   0.249758
     6  C    0.307787   1.076102
     7  C   -0.638613  -0.255788
     8  C    0.323938  -0.051788
     9  N   -0.055954   0.071958
    10  C   -1.166109   0.201593
    11  C   -0.530809  -0.205447
    12  O   -0.192276   0.084578
    13  C    0.727670  -1.394855
    14  H   -0.142527   0.293453
    15  H   -0.368609   0.503527
    16  H   -0.132289   0.255099
    17  H   -0.262404   0.426667
    18  H    0.184595  -0.039006
    19  H    0.223403  -0.045559
    20  H    0.032014   0.135548
    21  H    0.063412   0.075717
    22  H   -0.022697   0.153646
    23  H    0.156057   0.000544
    24  H    0.166151   0.003230
    25  H    0.133694   0.052104
    26  H    0.062925   0.060493
    27  H   -0.324556   0.499363
    28  H   -0.135926   0.257982
    29  H    0.145591   0.008112
 Sum of Mulliken charges =  -1.00000   1.00000

 Dipole moment (field-independent basis, Debye):
    X=             -2.1784    Y=              0.2417    Z=              3.2405  Tot=              3.9122
 Quadrupole moment (field-independent basis, Debye-Ang):
   XX=           -148.0636   YY=           -112.0344   ZZ=           -102.9712
   XY=            -12.5637   XZ=              2.5510   YZ=             -1.1373

 Summary of Natural Population Analysis:

                                       Natural Population
                Natural  -----------------------------------------------
    Atom  No    Charge         Core      Valence    Rydberg      Total
 -----------------------------------------------------------------------
      C    1   -0.28512      0.99967     2.28108    0.00438     3.28512
      C    2   -0.08989      0.99964     2.07936    0.01089     3.08989
      N    3   -0.33675      0.99975     2.82511    0.01189     3.83675
      C    4   -0.09667      0.99960     2.08427    0.01281     3.09667
      C    5   -0.01775      0.99943     2.00956    0.00876     3.01775
      C    6    0.01633      0.99948     1.97496    0.00923     2.98367
      C    7   -0.12403      0.99952     2.11467    0.00983     3.12403
      C    8    0.02400      0.99957     1.96468    0.01175     2.97600
      N    9    0.06946      0.99955     2.41535    0.01563     3.43054
      C   10    0.07848      0.99949     1.91151    0.01053     2.92152
      C   11   -0.30532      0.99963     2.29947    0.00622     3.30532
      O   12   -0.29063      0.99992     3.28268    0.00803     4.29063
      C   13   -0.29698      0.99964     2.29175    0.00558     3.29698
      H   14    0.09796      0.00000     0.40043    0.00162     0.40204
      H   15    0.10084      0.00000     0.39769    0.00147     0.39916
      H   16    0.09245      0.00000     0.40623    0.00132     0.40755
      H   17    0.08961      0.00000     0.40820    0.00218     0.41039
      H   18    0.08333      0.00000     0.41486    0.00181     0.41667
      H   19    0.16858      0.00000     0.32790    0.00352     0.33142
      H   20    0.09612      0.00000     0.40294    0.00094     0.40388
      H   21    0.09781      0.00000     0.40086    0.00133     0.40219
      H   22    0.09888      0.00000     0.40025    0.00088     0.40112
      H   23    0.10028      0.00000     0.39873    0.00099     0.39972
      H   24    0.11418      0.00000     0.38453    0.00128     0.38582
      H   25    0.11054      0.00000     0.38798    0.00148     0.38946
      H   26    0.09695      0.00000     0.40219    0.00085     0.40305
      H   27    0.10892      0.00000     0.38913    0.00196     0.39108
      H   28    0.09938      0.00000     0.39980    0.00082     0.40062
      H   29    0.09903      0.00000     0.40009    0.00087     0.40097
 =======================================================================
   * Total *   -0.00000     12.99489    35.85626    0.14886    49.00000

 Normal termination of Gaussian 16 at Sun Dec 13 20:32:46 2020.
