 Gaussian 16, Revision A.03,

 -----------------------------------------------------------
 # opt freq B3LYP/6-31G(d) empiricaldispersion=gd3bj scf=xqc
 -----------------------------------------------------------

 ------------------------------
 CID_90179104_JID_3106_neutraal
 ------------------------------
 Symbolic Z-matrix:
 Charge =  0 Multiplicity = 1

 SCF Done:  E(RB3LYP) =  -589.087022986     A.U. after   15 cycles
 SCF Done:  E(RB3LYP) =  -589.092355263     A.U. after   13 cycles
 SCF Done:  E(RB3LYP) =  -589.093712939     A.U. after   12 cycles
 SCF Done:  E(RB3LYP) =  -589.095085607     A.U. after   12 cycles
 SCF Done:  E(RB3LYP) =  -589.096870407     A.U. after   14 cycles
 SCF Done:  E(RB3LYP) =  -589.097961478     A.U. after   14 cycles
 SCF Done:  E(RB3LYP) =  -589.098432161     A.U. after   12 cycles
 SCF Done:  E(RB3LYP) =  -589.098660549     A.U. after   11 cycles
 SCF Done:  E(RB3LYP) =  -589.098714020     A.U. after   11 cycles
 SCF Done:  E(RB3LYP) =  -589.098731762     A.U. after   10 cycles
 SCF Done:  E(RB3LYP) =  -589.098783837     A.U. after   10 cycles
 SCF Done:  E(RB3LYP) =  -589.098784651     A.U. after    8 cycles
 SCF Done:  E(RB3LYP) =  -589.098785246     A.U. after    9 cycles
 SCF Done:  E(RB3LYP) =  -589.098785275     A.U. after    7 cycles
 SCF Done:  E(RB3LYP) =  -589.098785281     A.U. after    6 cycles
 Optimization completed.
    -- Stationary point found.
 Normal termination of Gaussian 16 at Wed Dec  9 22:31:21 2020.

 --------------------------------------------------------------------
 #N Geom=AllCheck Guess=TCheck SCRF=Check GenChk RB3LYP/6-31G(d) Freq
 --------------------------------------------------------------------

 Structure from the checkpoint file:  "JID_3106.chk"
 ------------------------------
 CID_90179104_JID_3106_neutraal
 ------------------------------
 Charge =  0 Multiplicity = 1

 SCF Done:  E(RB3LYP) =  -589.098785281     A.U. after    1 cycles

  Exact polarizability: 178.901   4.225 111.621  -0.001   0.001  63.587
 Approx polarizability: 238.452  13.704 189.759  -0.004   0.003  95.038

                      1                      2                      3
                      A                      A                      A
 Frequencies --     22.7055                38.4395                48.4847
 Red. masses --      1.1204                 3.4784                 3.4845
 Frc consts  --      0.0003                 0.0030                 0.0048
 IR Inten    --      0.3700                 0.4224                 0.5016

                      4                      5                      6
                      A                      A                      A
 Frequencies --     79.8082               117.8318               158.1674
 Red. masses --      4.1320                 4.2599                 4.7879
 Frc consts  --      0.0155                 0.0348                 0.0706
 IR Inten    --      0.0000                 0.5126                 1.5298

                      7                      8                      9
                      A                      A                      A
 Frequencies --    232.3229               277.4595               289.4460
 Red. masses --      4.4297                 2.7257                 4.0627
 Frc consts  --      0.1409                 0.1236                 0.2005
 IR Inten    --      2.2091                 0.2101                10.6695

                     10                     11                     12
                      A                      A                      A
 Frequencies --    330.4623               359.1182               381.3192
 Red. masses --      4.6073                 3.4348                 9.1156
 Frc consts  --      0.2964                 0.2610                 0.7809
 IR Inten    --      0.3794                 4.1083                13.6122

                     13                     14                     15
                      A                      A                      A
 Frequencies --    416.2429               529.1319               600.6566
 Red. masses --      4.2116                 2.5456                 4.9964
 Frc consts  --      0.4299                 0.4199                 1.0621
 IR Inten    --      0.0006                 1.6924                10.2512

                     16                     17                     18
                      A                      A                      A
 Frequencies --    637.4733               696.2007               701.9310
 Red. masses --      6.9920                 6.1730                 1.5936
 Frc consts  --      1.6741                 1.7628                 0.4626
 IR Inten    --     19.6125                 0.1523                18.2771

                     19                     20                     21
                      A                      A                      A
 Frequencies --    751.9749               774.1524               810.2372
 Red. masses --      2.4511                 2.0688                 9.6315
 Frc consts  --      0.8166                 0.7305                 3.7254
 IR Inten    --      0.0944                75.6841                21.1811

                     22                     23                     24
                      A                      A                      A
 Frequencies --    812.2068               840.0701               841.8893
 Red. masses --      1.2566                 3.9861                 2.0890
 Frc consts  --      0.4884                 1.6574                 0.8724
 IR Inten    --      1.1686                 2.4464                 4.7962

                     25                     26                     27
                      A                      A                      A
 Frequencies --    923.8296               931.0276               940.6394
 Red. masses --      2.0390                 4.2127                 1.4077
 Frc consts  --      1.0253                 2.1515                 0.7338
 IR Inten    --      3.1377                14.8991                 4.1923

                     28                     29                     30
                      A                      A                      A
 Frequencies --    978.7479               999.2864              1022.4338
 Red. masses --      3.8249                 1.3663                 1.4286
 Frc consts  --      2.1588                 0.8038                 0.8799
 IR Inten    --     41.5785                 0.0011                17.8484

                     31                     32                     33
                      A                      A                      A
 Frequencies --   1062.6144              1072.6800              1082.6036
 Red. masses --      3.4602                 1.2806                 1.5071
 Frc consts  --      2.3020                 0.8682                 1.0407
 IR Inten    --     12.9336                 2.6334                 3.2811

                     34                     35                     36
                      A                      A                      A
 Frequencies --   1098.5935              1136.0287              1156.2539
 Red. masses --      1.3380                 1.5107                 1.0793
 Frc consts  --      0.9514                 1.1487                 0.8501
 IR Inten    --      2.9008                 4.1379                 1.9293

                     37                     38                     39
                      A                      A                      A
 Frequencies --   1225.1299              1228.5691              1234.4577
 Red. masses --      1.3772                 2.3170                 3.0769
 Frc consts  --      1.2179                 2.0605                 2.7626
 IR Inten    --      0.1753               159.3954                 4.4709

                     40                     41                     42
                      A                      A                      A
 Frequencies --   1254.4458              1280.7155              1312.2101
 Red. masses --      3.8547                 2.3012                 2.2745
 Frc consts  --      3.5739                 2.2239                 2.3075
 IR Inten    --    226.0617                19.6619                74.7269

                     43                     44                     45
                      A                      A                      A
 Frequencies --   1379.6284              1428.8916              1446.3563
 Red. masses --      1.8894                 2.2578                 1.3380
 Frc consts  --      2.1188                 2.7160                 1.6491
 IR Inten    --     18.1258                11.5076               153.4483

                     46                     47                     48
                      A                      A                      A
 Frequencies --   1454.1127              1474.6947              1480.1919
 Red. masses --      1.6690                 2.5693                 1.0898
 Frc consts  --      2.0793                 3.2921                 1.4067
 IR Inten    --    283.3442                15.9337                 2.0516

                     49                     50                     51
                      A                      A                      A
 Frequencies --   1514.4687              1518.9832              1525.7004
 Red. masses --      1.0429                 1.4265                 1.2314
 Frc consts  --      1.4094                 1.9392                 1.6889
 IR Inten    --      6.1792                38.9437                58.7275

                     52                     53                     54
                      A                      A                      A
 Frequencies --   1543.5612              1618.3164              1667.1204
 Red. masses --      2.8808                 4.8229                 5.7115
 Frc consts  --      4.0441                 7.4419                 9.3527
 IR Inten    --    551.4114               117.6878               160.7351

                     55                     56                     57
                      A                      A                      A
 Frequencies --   1774.6508              3047.8963              3102.0999
 Red. masses --      7.7560                 1.0368                 1.1016
 Frc consts  --     14.3917                 5.6750                 6.2457
 IR Inten    --    325.9193                33.1795                16.2414

                     58                     59                     60
                      A                      A                      A
 Frequencies --   3126.9363              3157.9778              3160.2457
 Red. masses --      1.1013                 1.0502                 1.0882
 Frc consts  --      6.3445                 6.1710                 6.4034
 IR Inten    --     12.1681                16.8151                40.5680

                     61                     62                     63
                      A                      A                      A
 Frequencies --   3160.3398              3164.8668              3242.7309
 Red. masses --      1.0609                 1.0915                 1.1199
 Frc consts  --      6.2427                 6.4413                 6.9383
 IR Inten    --      3.1396                28.9181                 0.3038

                     64                     65                     66
                      A                      A                      A
 Frequencies --   3253.3621              3265.9924              3588.6373
 Red. masses --      1.1148                 1.0926                 1.0756
 Frc consts  --      6.9518                 6.8664                 8.1610
 IR Inten    --      8.1876                14.9725                52.0087

 - Thermochemistry -
 -------------------
 Temperature   298.150 Kelvin.  Pressure   1.00000 Atm.
 Atom     1 has atomic number  6 and mass  12.00000

 Molecular mass:   177.09021 amu.
 Principal axes and moments of inertia in atomic units:
                           1         2         3
     Eigenvalues --   855.342624504.839925208.18882
           X            0.99999  -0.00475   0.00000
           Y            0.00475   0.99999   0.00000
           Z           -0.00000  -0.00000   1.00000
 This molecule is an asymmetric top.
 Rotational symmetry number  1.
 Warning -- assumption of classical behavior for rotation
           may cause significant error
 Rotational temperatures (Kelvin)      0.10126     0.01923     0.01663
 Rotational constants (GHZ):           2.10996     0.40062     0.34652
 Zero-point vibrational energy     513112.8 (Joules/Mol)
                                  122.63690 (Kcal/Mol)
 Warning -- explicit consideration of  15 degrees of freedom as
           vibrations may cause significant error
 Vibrational temperatures:     32.67    55.31    69.76   114.83   169.53
          (Kelvin)            227.57   334.26   399.20   416.45   475.46
                              516.69   548.63   598.88   761.30   864.21
                              917.18  1001.68  1009.92  1081.92  1113.83
                             1165.75  1168.58  1208.67  1211.29  1329.18
                             1339.54  1353.37  1408.20  1437.75  1471.05
                             1528.87  1543.35  1557.63  1580.63  1634.49
                             1663.59  1762.69  1767.64  1776.11  1804.87
                             1842.66  1887.98  1984.98  2055.86  2080.98
                             2092.14  2121.76  2129.67  2178.98  2185.48
                             2195.14  2220.84  2328.40  2398.61  2553.33
                             4385.24  4463.23  4498.96  4543.63  4546.89
                             4547.02  4553.54  4665.57  4680.86  4699.03
                             5163.25

 Zero-point correction=                           0.195434 (Hartree/Particle)
 Thermal correction to Energy=                    0.207455
 Thermal correction to Enthalpy=                  0.208399
 Thermal correction to Gibbs Free Energy=         0.154780
 Sum of electronic and zero-point Energies=           -588.903351
 Sum of electronic and thermal Energies=              -588.891330
 Sum of electronic and thermal Enthalpies=            -588.890386
 Sum of electronic and thermal Free Energies=         -588.944005

                     E (Thermal)             CV                S
                      KCal/Mol        Cal/Mol-Kelvin    Cal/Mol-Kelvin
 Total                  130.180             43.869            112.850
 Electronic               0.000              0.000              0.000
 Translational            0.889              2.981             41.422
 Rotational               0.889              2.981             31.374
 Vibrational            128.402             37.907             40.055
 Vibration     1          0.593              1.985              6.382
 Vibration     2          0.594              1.982              5.338
 Vibration     3          0.595              1.978              4.878
 Vibration     4          0.600              1.963              3.896
 Vibration     5          0.608              1.935              3.136
 Vibration     6          0.621              1.893              2.572
 Vibration     7          0.653              1.792              1.861
 Vibration     8          0.678              1.715              1.549
 Vibration     9          0.686              1.693              1.477
 Vibration    10          0.713              1.615              1.258
 Vibration    11          0.734              1.556              1.126
 Vibration    12          0.751              1.510              1.034
 Vibration    13          0.779              1.435              0.905
 Vibration    14          0.884              1.186              0.589
 Vibration    15          0.959              1.030              0.449

 Optimization completed.
    -- Stationary point found.
 Normal termination of Gaussian 16 at Wed Dec  9 22:36:09 2020.

 ----------------------------------------------------------------------
 # B3LYP/6-311++G(d,p) empiricaldispersion=gd3bj scf=xqc pop=npa geom=c
 heck
 ----------------------------------------------------------------------

 --------------------------------------
 CID_90179104_JID_3106_Energie_neutraal
 --------------------------------------
 Structure from the checkpoint file:  "JID_3106.chk"
 Charge =  0 Multiplicity = 1

 SCF Done:  E(RB3LYP) =  -589.259886350     A.U. after   14 cycles
 Normal termination of Gaussian 16 at Wed Dec  9 22:38:10 2020.

 ----------------------------------------------------------------------
 # B3LYP/6-311++G(d,p) empiricaldispersion=gd3bj scf=xqc pop=npa geom=c
 heck
 ----------------------------------------------------------------------

 ------------------------------------
 CID_90179104_JID_3106_Energie_kation
 ------------------------------------
 Structure from the checkpoint file:  "JID_3106.chk"
 Charge =  1 Multiplicity = 2

 SCF Done:  E(UB3LYP) =  -588.943635448     A.U. after   21 cycles
 Normal termination of Gaussian 16 at Wed Dec  9 22:42:18 2020.
 Gaussian 16:  ES64L-G16RevA.03 25-Dec-2016

 ----------------------------------------------------------------------
 # B3LYP/6-311++G(d,p) empiricaldispersion=gd3bj scf=xqc pop=npa geom=c
 heck
 ----------------------------------------------------------------------

 -----------------------------------
 CID_90179104_JID_3106_Energie_anion
 -----------------------------------
 Structure from the checkpoint file:  "JID_3106.chk"
 Charge = -1 Multiplicity = 2

                         Standard orientation:
 ---------------------------------------------------------------------
 Center     Atomic      Atomic             Coordinates (Angstroms)
 Number     Number       Type             X           Y           Z
 ---------------------------------------------------------------------
      1          6           0       -4.481565   -0.911035   -0.000151
      2          6           0       -3.079687   -0.365096    0.000010
      3          6           0       -1.948343   -1.178683   -0.000040
      4          7           0       -0.695534   -0.712654   -0.000024
      5          6           0       -0.562604    0.616952    0.000052
      6          7           0       -1.571425    1.511882    0.000191
      7          6           0       -2.801779    1.008482    0.000164
      8          7           0        0.691786    1.207761   -0.000014
      9          6           0        2.008950    0.738830   -0.000109
     10          8           0        2.903220    1.575703   -0.000293
     11          6           0        2.277853   -0.720159    0.000049
     12          6           0        3.529811   -1.163586   -0.744840
     13          6           0        3.529813   -1.163416    0.745054
     14          1           0       -4.475370   -2.005474    0.000219
     15          1           0       -5.042183   -0.580965    0.882485
     16          1           0       -5.041710   -0.581571   -0.883319
     17          1           0       -2.049905   -2.263601   -0.000072
     18          1           0       -3.613721    1.735863    0.000302
     19          1           0        0.649200    2.220996   -0.000045
     20          1           0        1.420500   -1.376631    0.000131
     21          1           0        3.470619   -2.109888   -1.274095
     22          1           0        4.088847   -0.378851   -1.243777
     23          1           0        4.088854   -0.378563    1.243801
     24          1           0        3.470618   -2.109601    1.274515
 ---------------------------------------------------------------------

 SCF Done:  E(UB3LYP) =  -589.259244872     A.U. after   33 cycles
 SCF Done:  E(UB3LYP) =  -589.259244872     a.u. after    1 cycles

 The electronic state is 2-A.
 Alpha  occ. eigenvalues --  -18.95748 -14.20637 -14.13916 -14.12527 -10.14249
 Alpha  occ. eigenvalues --  -10.11044 -10.06535 -10.06505 -10.05811 -10.04538
 Alpha  occ. eigenvalues --  -10.03808 -10.02347 -10.02286  -0.91355  -0.83907
 Alpha  occ. eigenvalues --   -0.76495  -0.74661  -0.71882  -0.64853  -0.56880
 Alpha  occ. eigenvalues --   -0.54089  -0.49428  -0.49357  -0.48229  -0.42441
 Alpha  occ. eigenvalues --   -0.40509  -0.39283  -0.35966  -0.33260  -0.31734
 Alpha  occ. eigenvalues --   -0.30780  -0.30680  -0.29446  -0.26759  -0.26645
 Alpha  occ. eigenvalues --   -0.26542  -0.25674  -0.25102  -0.23792  -0.20007
 Alpha  occ. eigenvalues --   -0.17910  -0.16605  -0.15772  -0.15287  -0.13587
 Alpha  occ. eigenvalues --   -0.08701  -0.08633   0.06221
 Alpha virt. eigenvalues --    0.08417   0.08673   0.10056   0.10653   0.11206
 Alpha virt. eigenvalues --    0.11396   0.11703   0.11903   0.13395   0.13633
 Alpha virt. eigenvalues --    0.13920   0.15715   0.16116   0.16309   0.17325

  Beta  occ. eigenvalues --  -18.95665 -14.20675 -14.13770 -14.12008 -10.14151
  Beta  occ. eigenvalues --  -10.11040 -10.06509 -10.06479 -10.05828 -10.04532
  Beta  occ. eigenvalues --  -10.03530 -10.02443 -10.01742  -0.91203  -0.83522
  Beta  occ. eigenvalues --   -0.76226  -0.74607  -0.71074  -0.64627  -0.56588
  Beta  occ. eigenvalues --   -0.53892  -0.49299  -0.48618  -0.48109  -0.42189
  Beta  occ. eigenvalues --   -0.40363  -0.39154  -0.35821  -0.33137  -0.31596
  Beta  occ. eigenvalues --   -0.30556  -0.30247  -0.29298  -0.26641  -0.26378
  Beta  occ. eigenvalues --   -0.26287  -0.25448  -0.24386  -0.23491  -0.19922
  Beta  occ. eigenvalues --   -0.17617  -0.15900  -0.14931  -0.13448  -0.13166
  Beta  occ. eigenvalues --   -0.08284  -0.07568
  Beta virt. eigenvalues --    0.08332   0.08582   0.10008   0.10585   0.11127
  Beta virt. eigenvalues --    0.11400   0.11628   0.12322   0.13225   0.13332
  Beta virt. eigenvalues --    0.13631   0.13818   0.15599   0.16219   0.16419

 Mulliken charges and spin densities:
               1          2
     1  C   -0.720701   0.001078
     2  C    0.463674  -0.062937
     3  C   -0.208832   0.211538
     4  N   -0.218874   0.255978
     5  C   -0.288858  -0.005821
     6  N   -0.160779   0.038492
     7  C   -0.304236   0.466643
     8  N   -0.232619  -0.022183
     9  C   -0.365053   0.053163
    10  O   -0.382106   0.028696
    11  C    0.413773   0.055320
    12  C   -0.391336  -0.028334
    13  C   -0.391212  -0.028422
    14  H    0.126387  -0.001980
    15  H    0.093213   0.029580
    16  H    0.093174   0.029636
    17  H    0.098484  -0.022229
    18  H    0.142306  -0.038173
    19  H    0.307961  -0.001144
    20  H    0.426563  -0.003411
    21  H    0.088960   0.025529
    22  H    0.160600  -0.003299
    23  H    0.160606  -0.003298
    24  H    0.088906   0.025577
 Sum of Mulliken charges =  -1.00000   1.00000

 Dipole moment (field-independent basis, Debye):
    X=              1.3349    Y=             -3.1655    Z=              0.0003  Tot=              3.4355
 Quadrupole moment (field-independent basis, Debye-Ang):
   XX=           -120.4221   YY=            -93.0871   ZZ=            -85.6507
   XY=             -3.4620   XZ=              0.0008   YZ=              0.0008

 Summary of Natural Population Analysis:

                                       Natural Population
                Natural  -----------------------------------------------
    Atom  No    Charge         Core      Valence    Rydberg      Total
 -----------------------------------------------------------------------
      C    1   -0.28549      0.99965     2.28093    0.00491     3.28549
      C    2   -0.09494      0.99950     2.08783    0.00761     3.09494
      C    3    0.09138      0.99955     1.89528    0.01378     2.90862
      N    4   -0.21902      0.99966     2.70709    0.01227     3.71902
      C    5    0.29033      0.99961     1.69264    0.01742     2.70967
      N    6   -0.25925      0.99968     2.74779    0.01178     3.75925
      C    7    0.14158      0.99956     1.84287    0.01600     2.85842
      N    8   -0.31098      0.99963     2.80174    0.00961     3.81098
      C    9    0.35828      0.99966     1.62016    0.02190     2.64172
      O   10   -0.33497      0.99988     3.32850    0.00659     4.33497
      C   11   -0.16859      0.99954     2.15762    0.01142     3.16859
      C   12   -0.18826      0.99964     2.18176    0.00686     3.18826
      C   13   -0.18826      0.99964     2.18176    0.00686     3.18826
      H   14    0.09460      0.00000     0.40418    0.00121     0.40540
      H   15    0.09474      0.00000     0.40407    0.00119     0.40526
      H   16    0.09474      0.00000     0.40407    0.00119     0.40526
      H   17    0.07208      0.00000     0.42664    0.00128     0.42792
      H   18    0.07034      0.00000     0.42817    0.00150     0.42966
      H   19    0.19962      0.00000     0.29773    0.00265     0.30038
      H   20    0.13665      0.00000     0.36207    0.00129     0.36335
      H   21    0.09595      0.00000     0.40297    0.00107     0.40405
      H   22    0.10676      0.00000     0.39191    0.00134     0.39324
      H   23    0.10675      0.00000     0.39191    0.00134     0.39325
      H   24    0.09595      0.00000     0.40297    0.00107     0.40405
 =======================================================================
   * Total *    0.00000     12.99518    33.84266    0.16215    47.00000

 Normal termination of Gaussian 16 at Wed Dec  9 22:48:44 2020.
