 Gaussian 16, Revision A.03,

 -----------------------------------------------------------
 # opt freq B3LYP/6-31G(d) empiricaldispersion=gd3bj scf=xqc
 -----------------------------------------------------------

 ------------------------------
 CID_15634848_JID_8500_neutraal
 ------------------------------
 Symbolic Z-matrix:
 Charge =  0 Multiplicity = 1

 SCF Done:  E(RB3LYP) =  -839.042611359     A.U. after   16 cycles
 SCF Done:  E(RB3LYP) =  -839.046423966     A.U. after   12 cycles
 SCF Done:  E(RB3LYP) =  -839.047161765     A.U. after   13 cycles
 SCF Done:  E(RB3LYP) =  -839.047385210     A.U. after   13 cycles
 SCF Done:  E(RB3LYP) =  -839.047521471     A.U. after   12 cycles
 SCF Done:  E(RB3LYP) =  -839.047641383     A.U. after   11 cycles
 SCF Done:  E(RB3LYP) =  -839.047709443     A.U. after   11 cycles
 SCF Done:  E(RB3LYP) =  -839.047736268     A.U. after   11 cycles
 SCF Done:  E(RB3LYP) =  -839.047750801     A.U. after   10 cycles
 SCF Done:  E(RB3LYP) =  -839.047759478     A.U. after   10 cycles
 SCF Done:  E(RB3LYP) =  -839.047760230     A.U. after    8 cycles
 SCF Done:  E(RB3LYP) =  -839.047760436     A.U. after    8 cycles
 Optimization completed.
    -- Stationary point found.
 Normal termination of Gaussian 16 at Fri Dec 11 20:53:31 2020.

 --------------------------------------------------------------------
 #N Geom=AllCheck Guess=TCheck SCRF=Check GenChk RB3LYP/6-31G(d) Freq
 --------------------------------------------------------------------

 Structure from the checkpoint file:  "JID_8500.chk"
 ------------------------------
 CID_15634848_JID_8500_neutraal
 ------------------------------
 Charge =  0 Multiplicity = 1

 SCF Done:  E(RB3LYP) =  -839.047760436     A.U. after    1 cycles

  Exact polarizability: 205.851   6.849 164.878  -2.503   7.012  95.610
 Approx polarizability: 302.806  20.870 259.041   0.393  14.959 148.751

                      1                      2                      3
                      A                      A                      A
 Frequencies --     34.2138                42.9169                94.2318
 Red. masses --      9.3810                 5.5654                 5.4772
 Frc consts  --      0.0065                 0.0060                 0.0287
 IR Inten    --      1.1159                 0.3103                 3.3173

                      4                      5                      6
                      A                      A                      A
 Frequencies --    105.1125               120.8609               134.2926
 Red. masses --      4.7477                 7.0385                 4.2971
 Frc consts  --      0.0309                 0.0606                 0.0457
 IR Inten    --      1.2273                 4.1146                 3.1531

                      7                      8                      9
                      A                      A                      A
 Frequencies --    176.2334               187.1986               214.9184
 Red. masses --      2.1153                 3.9870                 1.1425
 Frc consts  --      0.0387                 0.0823                 0.0311
 IR Inten    --      0.4827                 2.1262                 0.0494

                     10                     11                     12
                      A                      A                      A
 Frequencies --    234.6925               240.7327               264.2673
 Red. masses --      1.7023                 2.5855                 3.2375
 Frc consts  --      0.0552                 0.0883                 0.1332
 IR Inten    --      0.8381                 1.7628                 1.0650

                     13                     14                     15
                      A                      A                      A
 Frequencies --    292.3482               305.8271               306.2884
 Red. masses --      3.2091                 6.1773                 3.2123
 Frc consts  --      0.1616                 0.3404                 0.1776
 IR Inten    --      3.0580                 4.7385                 9.8452

                     16                     17                     18
                      A                      A                      A
 Frequencies --    325.6944               354.2128               385.3299
 Red. masses --      4.6862                 3.3785                 2.6485
 Frc consts  --      0.2929                 0.2497                 0.2317
 IR Inten    --      6.1286                 5.7570                13.8204

                     19                     20                     21
                      A                      A                      A
 Frequencies --    417.9319               425.4657               450.4273
 Red. masses --      1.4738                 4.1108                 3.5960
 Frc consts  --      0.1517                 0.4384                 0.4298
 IR Inten    --     67.8859                 0.2492                 7.9629

                     22                     23                     24
                      A                      A                      A
 Frequencies --    479.1161               485.7686               535.7434
 Red. masses --      4.3761                 5.9552                 4.7419
 Frc consts  --      0.5919                 0.8280                 0.8019
 IR Inten    --      1.0031                 1.9620                 1.6601

                     25                     26                     27
                      A                      A                      A
 Frequencies --    567.1182               575.9101               588.0104
 Red. masses --      4.1961                 5.3938                 4.2829
 Frc consts  --      0.7951                 1.0540                 0.8725
 IR Inten    --      8.9279                 1.0521                 1.6020

                     28                     29                     30
                      A                      A                      A
 Frequencies --    607.2383               659.2753               666.1866
 Red. masses --      4.5761                 1.3513                 4.3906
 Frc consts  --      0.9942                 0.3461                 1.1481
 IR Inten    --      6.6424               118.3769                34.5817

                     31                     32                     33
                      A                      A                      A
 Frequencies --    698.8994               736.8689               796.5022
 Red. masses --      5.2158                 4.9725                 4.8448
 Frc consts  --      1.5011                 1.5908                 1.8109
 IR Inten    --     10.7796                 5.2456                 5.4279

                     34                     35                     36
                      A                      A                      A
 Frequencies --    818.1579               849.8237               877.9573
 Red. masses --      4.7937                 1.5316                 3.6522
 Frc consts  --      1.8906                 0.6517                 1.6586
 IR Inten    --      1.4106                31.9632                10.5903

                     37                     38                     39
                      A                      A                      A
 Frequencies --    889.2031               929.7101               945.7555
 Red. masses --      3.0406                 1.5156                 2.2035
 Frc consts  --      1.4165                 0.7718                 1.1612
 IR Inten    --     19.1805                 6.9804                 2.7837

                     40                     41                     42
                      A                      A                      A
 Frequencies --    960.2250               966.8691               970.9845
 Red. masses --      1.7666                 1.2993                 2.2760
 Frc consts  --      0.9597                 0.7156                 1.2643
 IR Inten    --     14.7834                 0.3039                42.9053

                     43                     44                     45
                      A                      A                      A
 Frequencies --   1008.1157              1033.4567              1038.4064
 Red. masses --      2.1439                 1.4256                 1.5359
 Frc consts  --      1.2837                 0.8971                 0.9758
 IR Inten    --     14.4141                 7.1311                 0.2737

                     46                     47                     48
                      A                      A                      A
 Frequencies --   1114.5081              1137.2503              1158.4127
 Red. masses --      3.0915                 2.8880                 2.4187
 Frc consts  --      2.2625                 2.2007                 1.9123
 IR Inten    --    100.8224                25.6760                12.2194

                     49                     50                     51
                      A                      A                      A
 Frequencies --   1173.0011              1196.1431              1231.5748
 Red. masses --      1.4612                 2.3385                 1.9255
 Frc consts  --      1.1846                 1.9713                 1.7208
 IR Inten    --     31.4187               123.4611                 5.5357

                     52                     53                     54
                      A                      A                      A
 Frequencies --   1251.4647              1258.2987              1277.9772
 Red. masses --      1.7377                 2.3477                 2.4426
 Frc consts  --      1.6034                 2.1901                 2.3504
 IR Inten    --     57.5592                79.4019                70.3499

                     55                     56                     57
                      A                      A                      A
 Frequencies --   1286.7032              1300.8616              1312.0174
 Red. masses --      3.1304                 3.8811                 1.5277
 Frc consts  --      3.0536                 3.8697                 1.5494
 IR Inten    --    110.3626                94.4763                 7.6731

                     58                     59                     60
                      A                      A                      A
 Frequencies --   1325.8272              1327.5573              1350.9488
 Red. masses --      2.0457                 1.2420                 4.1543
 Frc consts  --      2.1187                 1.2896                 4.4671
 IR Inten    --     24.6202                 8.4865                34.7036

                     61                     62                     63
                      A                      A                      A
 Frequencies --   1377.3592              1432.2869              1438.7730
 Red. masses --      1.7978                 1.2867                 1.2460
 Frc consts  --      2.0095                 1.5552                 1.5197
 IR Inten    --      2.3707                12.4388                44.5900

                     64                     65                     66
                      A                      A                      A
 Frequencies --   1442.6097              1452.4483              1462.0419
 Red. masses --      1.2130                 1.2333                 4.0398
 Frc consts  --      1.4873                 1.5329                 5.0877
 IR Inten    --     19.4110                27.9498                16.8853

                     67                     68                     69
                      A                      A                      A
 Frequencies --   1500.3101              1509.1341              1517.8276
 Red. masses --      1.7070                 1.0572                 1.0730
 Frc consts  --      2.2638                 1.4186                 1.4564
 IR Inten    --     46.9750                 4.4463                 1.4944

                     70                     71                     72
                      A                      A                      A
 Frequencies --   1528.9154              1535.5690              1543.2548
 Red. masses --      1.0700                 2.5508                 1.1088
 Frc consts  --      1.4737                 3.5438                 1.5559
 IR Inten    --      5.0811               129.1945                20.3029

                     73                     74                     75
                      A                      A                      A
 Frequencies --   1622.0321              1669.2215              1831.1664
 Red. masses --      7.1629                 6.2181                 7.6362
 Frc consts  --     11.1035                10.2079                15.0863
 IR Inten    --     14.2053                65.2908               571.0845

                     76                     77                     78
                      A                      A                      A
 Frequencies --   2350.3247              2941.3028              3052.7648
 Red. masses --     12.6775                 1.0843                 1.0817
 Frc consts  --     41.2611                 5.5267                 5.9392
 IR Inten    --     48.2574                81.2391                11.3113

                     79                     80                     81
                      A                      A                      A
 Frequencies --   3065.8402              3073.9840              3106.3332
 Red. masses --      1.0370                 1.0365                 1.0869
 Frc consts  --      5.7427                 5.7709                 6.1795
 IR Inten    --     10.1674                13.3454                24.2353

                     82                     83                     84
                      A                      A                      A
 Frequencies --   3136.0384              3144.0495              3145.9641
 Red. masses --      1.1021                 1.1025                 1.1027
 Frc consts  --      6.3864                 6.4211                 6.4298
 IR Inten    --      5.7362                23.9227                20.9167

                     85                     86                     87
                      A                      A                      A
 Frequencies --   3164.5061              3217.0317              3221.8526
 Red. masses --      1.1023                 1.0884                 1.0909
 Frc consts  --      6.5037                 6.6369                 6.6719
 IR Inten    --     11.4590                 2.1282                 0.4564

                     88                     89                     90
                      A                      A                      A
 Frequencies --   3231.0824              3584.0181              3711.4444
 Red. masses --      1.0958                 1.0758                 1.0654
 Frc consts  --      6.7406                 8.1418                 8.6465
 IR Inten    --      3.1400                37.2834                23.2545

 - Thermochemistry -
 -------------------
 Temperature   298.150 Kelvin.  Pressure   1.00000 Atm.
 Atom     1 has atomic number  6 and mass  12.00000

 Molecular mass:   246.10044 amu.
 Principal axes and moments of inertia in atomic units:
                           1         2         3
     Eigenvalues --  3523.351585128.758777793.09905
           X            0.99952   0.02976  -0.00821
           Y           -0.02974   0.99955   0.00258
           Z            0.00828  -0.00233   0.99996
 This molecule is an asymmetric top.
 Rotational symmetry number  1.
 Warning -- assumption of classical behavior for rotation
           may cause significant error
 Rotational temperatures (Kelvin)      0.02458     0.01689     0.01111
 Rotational constants (GHZ):           0.51222     0.35189     0.23158
 Zero-point vibrational energy     672962.4 (Joules/Mol)
                                  160.84188 (Kcal/Mol)
 Warning -- explicit consideration of  28 degrees of freedom as
           vibrations may cause significant error
 Vibrational temperatures:     49.23    61.75   135.58   151.23   173.89
          (Kelvin)            193.22   253.56   269.34   309.22   337.67
                              346.36   380.22   420.62   440.02   440.68
                              468.60   509.63   554.40   601.31   612.15
                              648.06   689.34   698.91   770.82   815.96
                              828.61   846.02   873.68   948.55   958.49
                             1005.56  1060.19  1145.99  1177.15  1222.71
                             1263.18  1279.36  1337.65  1360.73  1381.55
                             1391.11  1397.03  1450.45  1486.91  1494.04
                             1603.53  1636.25  1666.70  1687.69  1720.98
                             1771.96  1800.58  1810.41  1838.72  1851.28
                             1871.65  1887.70  1907.57  1910.06  1943.71
                             1981.71  2060.74  2070.07  2075.59  2089.75
                             2103.55  2158.61  2171.31  2183.82  2199.77
                             2209.34  2220.40  2333.74  2401.64  2634.64
                             3381.59  4231.88  4392.25  4411.06  4422.78
                             4469.32  4512.06  4523.59  4526.34  4553.02
                             4628.59  4635.53  4648.81  5156.60  5339.94

 Zero-point correction=                           0.256318 (Hartree/Particle)
 Thermal correction to Energy=                    0.272824
 Thermal correction to Enthalpy=                  0.273768
 Thermal correction to Gibbs Free Energy=         0.212474
 Sum of electronic and zero-point Energies=           -838.791443
 Sum of electronic and thermal Energies=              -838.774936
 Sum of electronic and thermal Enthalpies=            -838.773992
 Sum of electronic and thermal Free Energies=         -838.835287

                     E (Thermal)             CV                S
                      KCal/Mol        Cal/Mol-Kelvin    Cal/Mol-Kelvin
 Total                  171.200             63.742            129.005
 Electronic               0.000              0.000              0.000
 Translational            0.889              2.981             42.402
 Rotational               0.889              2.981             33.309
 Vibrational            169.422             57.781             53.293
 Vibration     1          0.594              1.983              5.569
 Vibration     2          0.595              1.980              5.120
 Vibration     3          0.603              1.953              3.570
 Vibration     4          0.605              1.945              3.357
 Vibration     5          0.609              1.932              3.087
 Vibration     6          0.613              1.919              2.884
 Vibration     7          0.628              1.872              2.368
 Vibration     8          0.632              1.857              2.255
 Vibration     9          0.645              1.818              2.001
 Vibration    10          0.655              1.788              1.843
 Vibration    11          0.658              1.778              1.797
 Vibration    12          0.671              1.738              1.633
 Vibration    13          0.688              1.688              1.460
 Vibration    14          0.696              1.663              1.385
 Vibration    15          0.697              1.662              1.382
 Vibration    16          0.710              1.624              1.281
 Vibration    17          0.730              1.567              1.147
 Vibration    18          0.754              1.501              1.018
 Vibration    19          0.781              1.431              0.899
 Vibration    20          0.787              1.415              0.874
 Vibration    21          0.809              1.360              0.794
 Vibration    22          0.836              1.296              0.712
 Vibration    23          0.842              1.282              0.695
 Vibration    24          0.891              1.171              0.575
 Vibration    25          0.923              1.102              0.510
 Vibration    26          0.932              1.083              0.493
 Vibration    27          0.945              1.057              0.471
 Vibration    28          0.966              1.016              0.437

                           ! Non-Optimized Parameters !
 Normal termination of Gaussian 16 at Fri Dec 11 21:06:37 2020.

 ----------------------------------------------------------------------
 # B3LYP/6-311++G(d,p) empiricaldispersion=gd3bj scf=xqc pop=npa geom=c
 heck
 ----------------------------------------------------------------------

 --------------------------------------
 CID_15634848_JID_8500_Energie_neutraal
 --------------------------------------
 Structure from the checkpoint file:  "JID_8500.chk"
 Charge =  0 Multiplicity = 1

 SCF Done:  E(RB3LYP) =  -839.289562894     A.U. after   16 cycles
 Normal termination of Gaussian 16 at Fri Dec 11 21:13:17 2020.

 ----------------------------------------------------------------------
 # B3LYP/6-311++G(d,p) empiricaldispersion=gd3bj scf=xqc pop=npa geom=c
 heck
 ----------------------------------------------------------------------

 ------------------------------------
 CID_15634848_JID_8500_Energie_kation
 ------------------------------------
 Structure from the checkpoint file:  "JID_8500.chk"
 Charge =  1 Multiplicity = 2

 SCF Done:  E(UB3LYP) =  -838.968935976     A.U. after   28 cycles
 Normal termination of Gaussian 16 at Fri Dec 11 21:29:53 2020.
 Gaussian 16:  ES64L-G16RevA.03 25-Dec-2016

 ----------------------------------------------------------------------
 # B3LYP/6-311++G(d,p) empiricaldispersion=gd3bj scf=xqc pop=npa geom=c
 heck
 ----------------------------------------------------------------------

 -----------------------------------
 CID_15634848_JID_8500_Energie_anion
 -----------------------------------
 Structure from the checkpoint file:  "JID_8500.chk"
 Charge = -1 Multiplicity = 2

                         Standard orientation:
 ---------------------------------------------------------------------
 Center     Atomic      Atomic             Coordinates (Angstroms)
 Number     Number       Type             X           Y           Z
 ---------------------------------------------------------------------
      1          6           0       -3.584234   -1.537887   -0.275081
      2          6           0       -2.282479   -0.986857    0.293556
      3          6           0       -2.008392    0.441763   -0.209106
      4          6           0       -0.665834    0.961437    0.338706
      5          6           0        0.411948   -0.093875    0.124912
      6          6           0        0.057261   -1.430773   -0.129405
      7          8           0       -1.238161   -1.845399   -0.258360
      8          6           0        1.040576   -2.409603   -0.321390
      9          6           0        2.381446   -2.068739   -0.259532
     10          6           0        2.754983   -0.736477   -0.004695
     11          6           0        1.764129    0.236409    0.179143
     12          6           0        4.138388   -0.377277    0.061829
     13          7           0        5.264702   -0.091491    0.117736
     14          7           0       -0.339939    2.233119   -0.269470
     15          6           0       -0.141755    3.395692    0.419530
     16          8           0        0.008527    4.490232   -0.086021
     17          8           0       -2.001517    0.493591   -1.630879
     18          6           0       -2.258355   -1.094334    1.819648
     19          1           0       -3.676342   -2.599308   -0.028097
     20          1           0       -3.617677   -1.418693   -1.359678
     21          1           0       -4.435190   -1.002598    0.157780
     22          1           0       -2.811371    1.110541    0.113263
     23          1           0       -0.774448    1.148792    1.414352
     24          1           0        0.724800   -3.428131   -0.519275
     25          1           0        3.147017   -2.823037   -0.405339
     26          1           0        2.050502    1.268660    0.349406
     27          1           0       -0.458020    2.300663   -1.274884
     28          1           0       -0.118194    3.226674    1.516530
     29          1           0       -1.523710   -0.293917   -1.943181
     30          1           0       -2.973046   -0.393179    2.263776
     31          1           0       -2.537724   -2.107781    2.121164
     32          1           0       -1.266830   -0.884368    2.229700
 ---------------------------------------------------------------------

 SCF Done:  E(UB3LYP) =  -839.298637011     A.U. after   33 cycles
 SCF Done:  E(UB3LYP) =  -839.298637011     a.u. after    1 cycles

 The electronic state is 2-A.
 Alpha  occ. eigenvalues --  -19.05468 -19.04800 -19.00351 -14.24828 -14.17517
 Alpha  occ. eigenvalues --  -10.17986 -10.15743 -10.14588 -10.13244 -10.11801
 Alpha  occ. eigenvalues --  -10.08227 -10.08084 -10.07739 -10.07701 -10.07675
 Alpha  occ. eigenvalues --  -10.07384 -10.06178 -10.05738  -0.98002  -0.95127
 Alpha  occ. eigenvalues --   -0.94612  -0.84261  -0.77919  -0.75247  -0.72706
 Alpha  occ. eigenvalues --   -0.68447  -0.64567  -0.62629  -0.61482  -0.56321
 Alpha  occ. eigenvalues --   -0.54457  -0.53665  -0.51632  -0.47671  -0.44706
 Alpha  occ. eigenvalues --   -0.43297  -0.41810  -0.40926  -0.39292  -0.37827
 Alpha  occ. eigenvalues --   -0.36921  -0.36391  -0.34663  -0.33315  -0.32710
 Alpha  occ. eigenvalues --   -0.32695  -0.32024  -0.31239  -0.30252  -0.30141
 Alpha  occ. eigenvalues --   -0.29329  -0.28811  -0.28061  -0.26882  -0.26061
 Alpha  occ. eigenvalues --   -0.24925  -0.23802  -0.22910  -0.21108  -0.20649
 Alpha  occ. eigenvalues --   -0.20150  -0.17513  -0.17108  -0.15151  -0.12544
 Alpha  occ. eigenvalues --    0.03600
 Alpha virt. eigenvalues --    0.05479   0.07123   0.07835   0.08066   0.08632
 Alpha virt. eigenvalues --    0.09135   0.09601   0.09783   0.10433   0.10833
 Alpha virt. eigenvalues --    0.11448   0.12214   0.12535   0.12831   0.13100

  Beta  occ. eigenvalues --  -19.05416 -19.04794 -19.00347 -14.24833 -14.17316
  Beta  occ. eigenvalues --  -10.17971 -10.15732 -10.14582 -10.13227 -10.11502
  Beta  occ. eigenvalues --  -10.08215 -10.08057 -10.07842 -10.07695 -10.07691
  Beta  occ. eigenvalues --  -10.07192 -10.06118 -10.05419  -0.97876  -0.95106
  Beta  occ. eigenvalues --   -0.94568  -0.84259  -0.77598  -0.74961  -0.72636
  Beta  occ. eigenvalues --   -0.68325  -0.64132  -0.62442  -0.61437  -0.56248
  Beta  occ. eigenvalues --   -0.54303  -0.53552  -0.51229  -0.47581  -0.44558
  Beta  occ. eigenvalues --   -0.43169  -0.41764  -0.40859  -0.39201  -0.37714
  Beta  occ. eigenvalues --   -0.36839  -0.36283  -0.34540  -0.33187  -0.32674
  Beta  occ. eigenvalues --   -0.32639  -0.31945  -0.31173  -0.30213  -0.30089
  Beta  occ. eigenvalues --   -0.28877  -0.28680  -0.27896  -0.26541  -0.25783
  Beta  occ. eigenvalues --   -0.24458  -0.23484  -0.22787  -0.20847  -0.20531
  Beta  occ. eigenvalues --   -0.19704  -0.17490  -0.17022  -0.14416  -0.11290
  Beta virt. eigenvalues --    0.05928   0.07384   0.07963   0.08147   0.08458
  Beta virt. eigenvalues --    0.08812   0.09405   0.09748   0.09974   0.10461
  Beta virt. eigenvalues --    0.10881   0.11689   0.12324   0.12563   0.12861

 Mulliken charges and spin densities:
               1          2
     1  C    0.048785  -0.200119
     2  C   -0.895185   0.932332
     3  C    0.289523  -0.777034
     4  C   -0.318708  -0.199375
     5  C   -0.214854   0.040094
     6  C    0.280701   0.075091
     7  O   -0.082836   0.002946
     8  C   -0.341981   0.168558
     9  C   -0.620486  -0.119703
    10  C    1.362784   0.236109
    11  C   -0.130971   0.331565
    12  C   -1.324609   0.018034
    13  N   -0.288454   0.106673
    14  N    0.099420   0.014922
    15  C    0.336924  -0.176805
    16  O   -0.353532   0.006337
    17  O   -0.172924  -0.001840
    18  C    0.449053  -1.065853
    19  H    0.087269   0.066468
    20  H    0.090187   0.057244
    21  H   -0.023250   0.170538
    22  H    0.048302   0.200676
    23  H    0.077392   0.139746
    24  H    0.120693   0.021206
    25  H    0.143935  -0.000182
    26  H    0.177104  -0.031275
    27  H    0.308769  -0.010500
    28  H   -0.080926   0.172025
    29  H    0.260300  -0.007237
    30  H   -0.247886   0.420764
    31  H   -0.059740   0.229046
    32  H   -0.024799   0.179549
 Sum of Mulliken charges =  -1.00000   1.00000

 Dipole moment (field-independent basis, Debye):
    X=             -6.7164    Y=             -3.8033    Z=             -1.9505  Tot=              7.9612
 Quadrupole moment (field-independent basis, Debye-Ang):
   XX=           -188.4372   YY=           -152.0779   ZZ=           -126.4638
   XY=             -1.9822   XZ=              2.5833   YZ=              4.0670

 Summary of Natural Population Analysis:

                                       Natural Population
                Natural  -----------------------------------------------
    Atom  No    Charge         Core      Valence    Rydberg      Total
 -----------------------------------------------------------------------
      C    1   -0.29069      0.99960     2.28368    0.00740     3.29069
      C    2    0.12937      0.99950     1.85621    0.01492     2.87063
      C    3    0.05478      0.99945     1.93016    0.01561     2.94522
      C    4   -0.02513      0.99952     2.00996    0.01565     3.02513
      C    5   -0.08363      0.99945     2.07431    0.00987     3.08363
      C    6    0.20325      0.99933     1.78396    0.01346     2.79675
      O    7   -0.29153      0.99986     3.28176    0.00992     4.29153
      C    8   -0.11955      0.99953     2.11037    0.00966     3.11955
      C    9   -0.07391      0.99955     2.06479    0.00957     3.07391
      C   10   -0.07761      0.99942     2.06878    0.00941     3.07761
      C   11   -0.00313      0.99950     1.99500    0.00862     3.00313
      C   12    0.15253      0.99964     1.83003    0.01779     2.84747
      N   13   -0.17550      0.99979     2.66490    0.01081     3.67550
      N   14   -0.31382      0.99968     2.80482    0.00932     3.81382
      C   15    0.27473      0.99974     1.70259    0.02295     2.72527
      O   16   -0.31407      0.99988     3.30803    0.00616     4.31407
      O   17   -0.37493      0.99990     3.36908    0.00595     4.37493
      C   18   -0.29979      0.99960     2.29329    0.00690     3.29979
      H   19    0.10433      0.00000     0.39480    0.00087     0.39567
      H   20    0.10707      0.00000     0.39201    0.00092     0.39293
      H   21    0.10287      0.00000     0.39637    0.00075     0.39713
      H   22    0.09575      0.00000     0.40278    0.00146     0.40425
      H   23    0.10763      0.00000     0.38985    0.00252     0.39237
      H   24    0.10253      0.00000     0.39660    0.00087     0.39747
      H   25    0.10035      0.00000     0.39892    0.00073     0.39965
      H   26    0.10169      0.00000     0.39721    0.00110     0.39831
      H   27    0.20147      0.00000     0.29664    0.00188     0.29853
      H   28    0.04956      0.00000     0.44861    0.00183     0.45044
      H   29    0.23525      0.00000     0.26236    0.00240     0.26475
      H   30    0.10525      0.00000     0.39319    0.00155     0.39475
      H   31    0.10551      0.00000     0.39361    0.00088     0.39449
      H   32    0.10938      0.00000     0.38949    0.00114     0.39062
 =======================================================================
   * Total *   -0.00000     17.99295    46.78416    0.22289    65.00000

 Normal termination of Gaussian 16 at Fri Dec 11 21:49:23 2020.
