 Gaussian 16, Revision A.03,

 -----------------------------------------------------------
 # opt freq B3LYP/6-31G(d) empiricaldispersion=gd3bj scf=xqc
 -----------------------------------------------------------

 -------------------------------
 CID_131341860_JID_1716_neutraal
 -------------------------------
 Symbolic Z-matrix:
 Charge =  0 Multiplicity = 1

 SCF Done:  E(RB3LYP) =  -491.785011437     A.U. after   15 cycles
 SCF Done:  E(RB3LYP) =  -491.787798687     A.U. after   12 cycles
 SCF Done:  E(RB3LYP) =  -491.788329674     A.U. after   12 cycles
 SCF Done:  E(RB3LYP) =  -491.788689626     A.U. after   12 cycles
 SCF Done:  E(RB3LYP) =  -491.788965406     A.U. after   12 cycles
 SCF Done:  E(RB3LYP) =  -491.789115357     A.U. after   12 cycles
 SCF Done:  E(RB3LYP) =  -491.789263648     A.U. after   11 cycles
 SCF Done:  E(RB3LYP) =  -491.789282428     A.U. after   10 cycles
 SCF Done:  E(RB3LYP) =  -491.789290459     A.U. after   10 cycles
 SCF Done:  E(RB3LYP) =  -491.789293487     A.U. after    9 cycles
 SCF Done:  E(RB3LYP) =  -491.789294565     A.U. after    9 cycles
 SCF Done:  E(RB3LYP) =  -491.789294660     A.U. after    7 cycles
 Optimization completed.
    -- Stationary point found.

 1\1\GINC-NODE201\FOpt\RB3LYP\6-31G(d)\C7H10N4\VSC10255\08-Dec-2020\0\\
 # opt freq B3LYP/6-31G(d) empiricaldispersion=gd3bj scf=xqc\\CID_13134
 1860_JID_1716_neutraal\\0,1\C,0.9056628636,-0.0122864093,0.0455228156\
 C,1.7428737232,1.1331009243,0.6174184042\N,1.607856131,2.3660781,-0.14
 69978735\C,0.718585525,3.3958753248,0.0851167378\C,0.988426483,4.33987
 96246,-0.8786748737\N,2.008904348,3.9109726699,-1.7195048366\C,2.35035
 90932,2.7291900027,-1.2527993624\N,3.3842415093,1.9353289202,-1.719974
 2884\C,4.108757002,2.4481629106,-2.8823329656\C,0.33647249,5.592514882

 Normal termination of Gaussian 16 at Tue Dec  8 20:56:32 2020.

 --------------------------------------------------------------------
 #N Geom=AllCheck Guess=TCheck SCRF=Check GenChk RB3LYP/6-31G(d) Freq
 --------------------------------------------------------------------

 Structure from the checkpoint file:  "JID_1716.chk"
 -------------------------------
 CID_131341860_JID_1716_neutraal
 -------------------------------
 Charge =  0 Multiplicity = 1

 SCF Done:  E(RB3LYP) =  -491.789294660     A.U. after    1 cycles

  Exact polarizability: 135.087  -0.993  97.779   3.586   3.814  55.896
 Approx polarizability: 205.483   3.686 140.738  11.130   8.321  81.966

                      1                      2                      3
                      A                      A                      A
 Frequencies --     63.1973                73.9735               120.2510
 Red. masses --      2.4388                 3.7775                 2.6288
 Frc consts  --      0.0057                 0.0122                 0.0224
 IR Inten    --      1.4469                 0.2898                 2.7141

                      4                      5                      6
                      A                      A                      A
 Frequencies --    126.4878               149.5126               179.0800
 Red. masses --      5.4288                 3.0233                 1.5795
 Frc consts  --      0.0512                 0.0398                 0.0298
 IR Inten    --      3.0158                 0.8856                 2.2290

                      7                      8                      9
                      A                      A                      A
 Frequencies --    193.4172               241.2543               294.5324
 Red. masses --      1.5113                 1.8316                 2.8550
 Frc consts  --      0.0333                 0.0628                 0.1459
 IR Inten    --      0.9848                 1.3993                13.5161

                     10                     11                     12
                      A                      A                      A
 Frequencies --    321.7151               396.1690               483.6618
 Red. masses --      2.4376                 4.1351                 4.0120
 Frc consts  --      0.1486                 0.3824                 0.5530
 IR Inten    --      1.8842                 6.3350                21.3484

                     13                     14                     15
                      A                      A                      A
 Frequencies --    504.2311               532.0653               584.7853
 Red. masses --      8.5917                 6.4431                 2.5106
 Frc consts  --      1.2870                 1.0747                 0.5058
 IR Inten    --      5.6118                15.9131                71.9987

                     16                     17                     18
                      A                      A                      A
 Frequencies --    609.9582               661.5988               668.0347
 Red. masses --      4.3785                 2.6250                 2.4547
 Frc consts  --      0.9598                 0.6770                 0.6454
 IR Inten    --      4.6200                 4.0891                25.4193

                     19                     20                     21
                      A                      A                      A
 Frequencies --    726.7260               740.1992               810.3899
 Red. masses --      2.6401                 2.9535                 1.1588
 Frc consts  --      0.8215                 0.9534                 0.4484
 IR Inten    --     31.1909                 3.3177                 5.2216

                     22                     23                     24
                      A                      A                      A
 Frequencies --    849.6972               978.5397              1017.5171
 Red. masses --      2.7249                 2.4113                 5.9690
 Frc consts  --      1.1591                 1.3604                 3.6411
 IR Inten    --      6.1717                 8.3850                 4.7166

                     25                     26                     27
                      A                      A                      A
 Frequencies --   1083.4989              1112.7369              1117.4088
 Red. masses --      3.0761                 2.0614                 1.7102
 Frc consts  --      2.1277                 1.5038                 1.2581
 IR Inten    --      8.7338                17.2197                 5.5895

                     28                     29                     30
                      A                      A                      A
 Frequencies --   1159.7684              1176.3951              1195.5098
 Red. masses --      1.4009                 1.5944                 1.6098
 Frc consts  --      1.1102                 1.3000                 1.3556
 IR Inten    --     22.0177                20.8117                 6.1844

                     31                     32                     33
                      A                      A                      A
 Frequencies --   1242.9054              1299.1786              1326.0535
 Red. masses --      2.6524                 2.1273                 4.5836
 Frc consts  --      2.4141                 2.1155                 4.7488
 IR Inten    --     12.3355                 0.3696                44.3702

                     34                     35                     36
                      A                      A                      A
 Frequencies --   1403.2325              1417.2632              1431.7182
 Red. masses --      1.5942                 2.3372                 1.9324
 Frc consts  --      1.8494                 2.7660                 2.3338
 IR Inten    --     59.1782                19.8357                31.5180

                     37                     38                     39
                      A                      A                      A
 Frequencies --   1443.8275              1478.5117              1509.7593
 Red. masses --      1.2571                 1.2030                 1.1190
 Frc consts  --      1.5440                 1.5494                 1.5028
 IR Inten    --      7.3190                17.6005                38.5402

                     40                     41                     42
                      A                      A                      A
 Frequencies --   1517.1056              1520.7943              1528.5361
 Red. masses --      1.0583                 1.0768                 1.3112
 Frc consts  --      1.4351                 1.4673                 1.8049
 IR Inten    --      2.9390                 5.3428                18.9797

                     43                     44                     45
                      A                      A                      A
 Frequencies --   1534.8133              1549.0719              1580.2679
 Red. masses --      1.1436                 1.3255                 4.6490
 Frc consts  --      1.5873                 1.8740                 6.8402
 IR Inten    --     13.6075                39.4233                40.5391

                     46                     47                     48
                      A                      A                      A
 Frequencies --   1632.5595              2353.8342              3042.9286
 Red. masses --      6.9022                12.6626                 1.0457
 Frc consts  --     10.8387                41.3357                 5.7046
 IR Inten    --    220.4459                65.7055                56.1896

                     49                     50                     51
                      A                      A                      A
 Frequencies --   3056.7004              3078.2840              3113.6262
 Red. masses --      1.0363                 1.0604                 1.1035
 Frc consts  --      5.7048                 5.9202                 6.3028
 IR Inten    --     15.2293                21.7059                 3.5441

                     52                     53                     54
                      A                      A                      A
 Frequencies --   3123.8863              3131.9738              3141.4389
 Red. masses --      1.0910                 1.1034                 1.1047
 Frc consts  --      6.2728                 6.3769                 6.4233
 IR Inten    --     28.8274                35.4233                22.0716

                     55                     56                     57
                      A                      A                      A
 Frequencies --   3166.0570              3295.8494              3550.1130
 Red. masses --      1.1044                 1.0986                 1.0748
 Frc consts  --      6.5222                 7.0312                 7.9811
 IR Inten    --     12.5682                 0.8709                 4.1269

 - Thermochemistry -
 -------------------
 Temperature   298.150 Kelvin.  Pressure   1.00000 Atm.
 Atom     1 has atomic number  6 and mass  12.00000

 Molecular mass:   150.09055 amu.
 Principal axes and moments of inertia in atomic units:
                           1         2         3
     Eigenvalues --  1166.867102225.175823234.45811
           X            0.99983   0.01657  -0.00851
           Y           -0.01657   0.99986   0.00004
           Z            0.00851   0.00010   0.99996
 This molecule is an asymmetric top.
 Rotational symmetry number  1.
 Warning -- assumption of classical behavior for rotation
           may cause significant error
 Rotational temperatures (Kelvin)      0.07423     0.03892     0.02678
 Rotational constants (GHZ):           1.54666     0.81106     0.55797
 Zero-point vibrational energy     452443.2 (Joules/Mol)
                                  108.13653 (Kcal/Mol)
 Warning -- explicit consideration of  16 degrees of freedom as
           vibrations may cause significant error
 Vibrational temperatures:     90.93   106.43   173.01   181.99   215.12
          (Kelvin)            257.66   278.28   347.11   423.77   462.88
                              570.00   695.88   725.48   765.52   841.38
                              877.59   951.89   961.15  1045.60  1064.98
                             1165.97  1222.52  1407.90  1463.98  1558.91
                             1600.98  1607.70  1668.65  1692.57  1720.07
                             1788.26  1869.23  1907.90  2018.94  2039.13
                             2059.92  2077.35  2127.25  2172.21  2182.78
                             2188.08  2199.22  2208.25  2228.77  2273.65
                             2348.89  3386.64  4378.10  4397.91  4428.96
                             4479.81  4494.58  4506.21  4519.83  4555.25
                             4741.99  5107.82

 Zero-point correction=                           0.172327 (Hartree/Particle)
 Thermal correction to Energy=                    0.183458
 Thermal correction to Enthalpy=                  0.184402
 Thermal correction to Gibbs Free Energy=         0.135054
 Sum of electronic and zero-point Energies=           -491.616968
 Sum of electronic and thermal Energies=              -491.605837
 Sum of electronic and thermal Enthalpies=            -491.604893
 Sum of electronic and thermal Free Energies=         -491.654241

                     E (Thermal)             CV                S
                      KCal/Mol        Cal/Mol-Kelvin    Cal/Mol-Kelvin
 Total                  115.122             39.968            103.863
 Electronic               0.000              0.000              0.000
 Translational            0.889              2.981             40.928
 Rotational               0.889              2.981             30.508
 Vibrational            113.344             34.006             32.427
 Vibration     1          0.597              1.972              4.355
 Vibration     2          0.599              1.966              4.045
 Vibration     3          0.609              1.932              3.096
 Vibration     4          0.611              1.927              2.999
 Vibration     5          0.618              1.903              2.678
 Vibration     6          0.629              1.868              2.338
 Vibration     7          0.635              1.849              2.195
 Vibration     8          0.658              1.777              1.794
 Vibration     9          0.689              1.684              1.448
 Vibration    10          0.707              1.632              1.301
 Vibration    11          0.763              1.478              0.977
 Vibration    12          0.840              1.286              0.700
 Vibration    13          0.860              1.241              0.648
 Vibration    14          0.887              1.179              0.583
 Vibration    15          0.942              1.064              0.477
 Vibration    16          0.969              1.011              0.433

                           ! Non-Optimized Parameters !

 1\1\GINC-NODE201\Freq\RB3LYP\6-31G(d)\C7H10N4\VSC10255\08-Dec-2020\0\\
 #N Geom=AllCheck Guess=TCheck SCRF=Check GenChk RB3LYP/6-31G(d) Freq\\
 CID_131341860_JID_1716_neutraal\\0,1\C,0.9056628636,-0.0122864093,0.04
 55228156\C,1.7428737232,1.1331009243,0.6174184042\N,1.607856131,2.3660
 781,-0.1469978735\C,0.718585525,3.3958753248,0.0851167378\C,0.98842648
 3,4.3398796246,-0.8786748737\N,2.008904348,3.9109726699,-1.7195048366\
 C,2.3503590932,2.7291900027,-1.2527993624\N,3.3842415093,1.9353289202,
 -1.7199742884\C,4.108757002,2.4481629106,-2.8823329656\C,0.33647249,5.

 Normal termination of Gaussian 16 at Tue Dec  8 21:01:23 2020.

 ----------------------------------------------------------------------
 # B3LYP/6-311++G(d,p) empiricaldispersion=gd3bj scf=xqc pop=npa geom=c
 heck
 ----------------------------------------------------------------------

 ---------------------------------------
 CID_131341860_JID_1716_Energie_neutraal
 ---------------------------------------
 Structure from the checkpoint file:  "JID_1716.chk"
 Charge =  0 Multiplicity = 1

 SCF Done:  E(RB3LYP) =  -491.926652235     A.U. after   15 cycles
 Normal termination of Gaussian 16 at Tue Dec  8 21:05:34 2020.

 ----------------------------------------------------------------------
 # B3LYP/6-311++G(d,p) empiricaldispersion=gd3bj scf=xqc pop=npa geom=c
 heck
 ----------------------------------------------------------------------

 -------------------------------------
 CID_131341860_JID_1716_Energie_kation
 -------------------------------------
 Structure from the checkpoint file:  "JID_1716.chk"
 Charge =  1 Multiplicity = 2

 SCF Done:  E(UB3LYP) =  -491.631960134     A.U. after   22 cycles
 Normal termination of Gaussian 16 at Tue Dec  8 21:09:50 2020.
 Gaussian 16:  ES64L-G16RevA.03 25-Dec-2016

 ------------------------------------
 CID_131341860_JID_1716_Energie_anion
 ------------------------------------
 Structure from the checkpoint file:  "JID_1716.chk"
 Charge = -1 Multiplicity = 2

                         Standard orientation:
 ---------------------------------------------------------------------
 Center     Atomic      Atomic             Coordinates (Angstroms)
 Number     Number       Type             X           Y           Z
 ---------------------------------------------------------------------
      1          6           0       -2.456941   -1.926480    0.723959
      2          6           0       -1.767583   -1.473094   -0.564112
      3          7           0       -0.533472   -0.739879   -0.314793
      4          6           0        0.744433   -1.257978   -0.254019
      5          6           0        1.567966   -0.180778   -0.021021
      6          7           0        0.829772    0.992031    0.088160
      7          6           0       -0.418789    0.617454   -0.090177
      8          7           0       -1.521323    1.453416   -0.144639
      9          6           0       -1.258474    2.873674    0.085088
     10          6           0        2.983196   -0.211422    0.107251
     11          7           0        4.141254   -0.261192    0.211047
     12          1           0       -1.801014   -2.583516    1.303515
     13          1           0       -3.377731   -2.471479    0.491254
     14          1           0       -2.718713   -1.072141    1.358421
     15          1           0       -1.519618   -2.333683   -1.191940
     16          1           0       -2.419257   -0.817601   -1.150916
     17          1           0        0.946968   -2.310115   -0.380708
     18          1           0       -2.312273    1.107957    0.388340
     19          1           0       -2.197106    3.420524   -0.033501
     20          1           0       -0.833926    3.076996    1.077141
     21          1           0       -0.543792    3.224176   -0.661852
 ---------------------------------------------------------------------

 SCF Done:  E(UB3LYP) =  -491.924665119     A.U. after   30 cycles

 The electronic state is 2-A.
 Alpha  occ. eigenvalues --  -14.27898 -14.23416 -14.21054 -14.20208 -10.16749
 Alpha  occ. eigenvalues --  -10.12234 -10.12025 -10.11804 -10.11207 -10.10107
 Alpha  occ. eigenvalues --  -10.06685  -0.94098  -0.83258  -0.81217  -0.79592
 Alpha  occ. eigenvalues --   -0.67705  -0.66144  -0.60002  -0.56769  -0.53334
 Alpha  occ. eigenvalues --   -0.49110  -0.45848  -0.40677  -0.38822  -0.37678
 Alpha  occ. eigenvalues --   -0.37017  -0.34771  -0.34407  -0.32419  -0.30269
 Alpha  occ. eigenvalues --   -0.29661  -0.28551  -0.26997  -0.26438  -0.25735
 Alpha  occ. eigenvalues --   -0.23936  -0.20187  -0.19249  -0.17889  -0.11662
 Alpha  occ. eigenvalues --    0.03844
 Alpha virt. eigenvalues --    0.06643   0.07440   0.08066   0.08728   0.09681
 Alpha virt. eigenvalues --    0.10463   0.10866   0.11614   0.11843   0.12296
 Alpha virt. eigenvalues --    0.13203   0.13456   0.13894   0.14452   0.15357

  Beta  occ. eigenvalues --  -14.27897 -14.23362 -14.21040 -14.20210 -10.16737
  Beta  occ. eigenvalues --  -10.12227 -10.11984 -10.11755 -10.11204 -10.10086
  Beta  occ. eigenvalues --  -10.06607  -0.94070  -0.83185  -0.81194  -0.79568
  Beta  occ. eigenvalues --   -0.67633  -0.66085  -0.59942  -0.56649  -0.53255
  Beta  occ. eigenvalues --   -0.49006  -0.45781  -0.40587  -0.38781  -0.37610
  Beta  occ. eigenvalues --   -0.36964  -0.34714  -0.34335  -0.32363  -0.30181
  Beta  occ. eigenvalues --   -0.29613  -0.28460  -0.26967  -0.26367  -0.25671
  Beta  occ. eigenvalues --   -0.23923  -0.20090  -0.19239  -0.17855  -0.11545
  Beta virt. eigenvalues --    0.06836   0.07456   0.07847   0.08802   0.09444
  Beta virt. eigenvalues --    0.10531   0.10783   0.11313   0.11820   0.11972
  Beta virt. eigenvalues --    0.12527   0.13551   0.13818   0.14227   0.14860

 Mulliken charges and spin densities:
               1          2
     1  C    2.338604  -2.714198
     2  C   -0.738312   0.461237
     3  N    0.089185   0.031118
     4  C   -0.209688   0.179615
     5  C    1.956869  -0.573621
     6  N   -0.146824   0.005832
     7  C    0.344840  -0.370449
     8  N   -0.214487   0.054893
     9  C    0.087053  -0.423607
    10  C   -1.378964  -0.263256
    11  N   -0.272196   0.008258
    12  H   -0.143572   0.288846
    13  H   -0.633549   0.788259
    14  H   -0.681276   0.831045
    15  H   -0.687538   0.855971
    16  H   -0.252985   0.441279
    17  H   -0.222595   0.422638
    18  H   -0.139994   0.406576
    19  H   -0.298187   0.437658
    20  H    0.082689   0.082904
    21  H    0.120929   0.049003
 Sum of Mulliken charges =  -1.00000   1.00000

 Dipole moment (field-independent basis, Debye):
    X=              3.1906    Y=              2.4051    Z=             -0.7533  Tot=              4.0659
 Quadrupole moment (field-independent basis, Debye-Ang):
   XX=           -149.9287   YY=           -105.5545   ZZ=            -89.5256
   XY=             -8.4324   XZ=              0.7646   YZ=             -2.7934

 Summary of Natural Population Analysis:

                                       Natural Population
                Natural  -----------------------------------------------
    Atom  No    Charge         Core      Valence    Rydberg      Total
 -----------------------------------------------------------------------
      C    1   -0.28794      0.99966     2.28316    0.00513     3.28794
      C    2   -0.08768      0.99962     2.07671    0.01134     3.08768
      N    3   -0.20958      0.99962     2.69929    0.01067     3.70958
      C    4    0.01015      0.99952     1.97906    0.01128     2.98985
      C    5   -0.02633      0.99944     2.01504    0.01185     3.02633
      N    6   -0.26952      0.99967     2.76086    0.00898     3.76952
      C    7    0.29571      0.99959     1.68845    0.01625     2.70429
      N    8   -0.32300      0.99968     2.81253    0.01079     3.82300
      C    9   -0.17684      0.99965     2.16834    0.00885     3.17684
      C   10    0.15259      0.99963     1.82973    0.01805     2.84741
      N   11   -0.18885      0.99979     2.68123    0.00783     3.68885
      H   12    0.09928      0.00000     0.39929    0.00143     0.40072
      H   13    0.10891      0.00000     0.38702    0.00407     0.39109
      H   14    0.10127      0.00000     0.39617    0.00257     0.39873
      H   15    0.10336      0.00000     0.39407    0.00257     0.39664
      H   16    0.10731      0.00000     0.39004    0.00266     0.39269
      H   17    0.10815      0.00000     0.39058    0.00128     0.39185
      H   18    0.19698      0.00000     0.29557    0.00745     0.30302
      H   19    0.09666      0.00000     0.40237    0.00096     0.40334
      H   20    0.08997      0.00000     0.40874    0.00129     0.41003
      H   21    0.09943      0.00000     0.39948    0.00109     0.40057
 =======================================================================
   * Total *   -0.00000     10.99588    28.85772    0.14640    40.00000

 Normal termination of Gaussian 16 at Tue Dec  8 21:15:50 2020.
