 Gaussian 16, Revision A.03,

 -----------------------------------------------------------
 # opt freq B3LYP/6-31G(d) empiricaldispersion=gd3bj scf=xqc
 -----------------------------------------------------------

 ------------------------------
 CID_65209282_JID_4387_neutraal
 ------------------------------
 Symbolic Z-matrix:
 Charge =  0 Multiplicity = 1

 SCF Done:  E(RB3LYP) =  -953.753898188     A.U. after   16 cycles
 SCF Done:  E(RB3LYP) =  -953.759989905     A.U. after   13 cycles
 SCF Done:  E(RB3LYP) =  -953.761145893     A.U. after   13 cycles
 SCF Done:  E(RB3LYP) =  -953.761577395     A.U. after   12 cycles
 SCF Done:  E(RB3LYP) =  -953.761965121     A.U. after   12 cycles
 SCF Done:  E(RB3LYP) =  -953.762073194     A.U. after   11 cycles
 SCF Done:  E(RB3LYP) =  -953.762089462     A.U. after   11 cycles
 SCF Done:  E(RB3LYP) =  -953.762095812     A.U. after    9 cycles
 SCF Done:  E(RB3LYP) =  -953.762096834     A.U. after    8 cycles
 SCF Done:  E(RB3LYP) =  -953.762097130     A.U. after    7 cycles
 Optimization completed.
    -- Stationary point found.
 Normal termination of Gaussian 16 at Thu Dec 10 09:24:45 2020.

 --------------------------------------------------------------------
 #N Geom=AllCheck Guess=TCheck SCRF=Check GenChk RB3LYP/6-31G(d) Freq
 --------------------------------------------------------------------

 Structure from the checkpoint file:  "JID_4387.chk"
 ------------------------------
 CID_65209282_JID_4387_neutraal
 ------------------------------
 Charge =  0 Multiplicity = 1

 SCF Done:  E(RB3LYP) =  -953.762097130     A.U. after    1 cycles

  Exact polarizability: 158.374  -4.992 136.948  -8.043  -4.720 109.577
 Approx polarizability: 238.318  -3.625 211.337 -32.476 -26.058 183.621

                      1                      2                      3
                      A                      A                      A
 Frequencies --     35.2066                50.0527                66.2877
 Red. masses --      3.6613                 3.2725                 2.6170
 Frc consts  --      0.0027                 0.0048                 0.0068
 IR Inten    --      0.0098                 0.1126                 0.2620

                      4                      5                      6
                      A                      A                      A
 Frequencies --     71.5624                97.7763               118.6854
 Red. masses --      3.5576                 2.2116                 3.7049
 Frc consts  --      0.0107                 0.0125                 0.0307
 IR Inten    --      0.5229                 2.3987                 0.1304

                      7                      8                      9
                      A                      A                      A
 Frequencies --    159.6338               205.3271               217.3808
 Red. masses --      3.0453                 3.8745                 2.9328
 Frc consts  --      0.0457                 0.0962                 0.0817
 IR Inten    --      0.6959                 1.5499                 2.5007

                     10                     11                     12
                      A                      A                      A
 Frequencies --    260.0520               270.4027               288.1262
 Red. masses --      1.4144                 1.6630                 2.9912
 Frc consts  --      0.0564                 0.0716                 0.1463
 IR Inten    --      0.1643                 1.4973                 1.2060

                     13                     14                     15
                      A                      A                      A
 Frequencies --    311.2140               360.3979               400.6112
 Red. masses --      2.8292                 3.1955                 4.5408
 Frc consts  --      0.1614                 0.2445                 0.4294
 IR Inten    --      6.5974                 1.4216                 4.7582

                     16                     17                     18
                      A                      A                      A
 Frequencies --    470.5618               506.7717               535.0537
 Red. masses --      8.6044                 3.3500                 3.1340
 Frc consts  --      1.1225                 0.5069                 0.5286
 IR Inten    --     23.9249                 3.7047                 1.0373

                     19                     20                     21
                      A                      A                      A
 Frequencies --    566.1005               600.0385               651.2959
 Red. masses --      4.0448                 2.8934                 3.2659
 Frc consts  --      0.7637                 0.6138                 0.8162
 IR Inten    --      5.7183                 1.3716                24.2670

                     22                     23                     24
                      A                      A                      A
 Frequencies --    672.2104               719.7104               775.1639
 Red. masses --      3.0896                 5.7344                 1.7365
 Frc consts  --      0.8226                 1.7501                 0.6148
 IR Inten    --      1.5163                 9.3786               115.9122

                     25                     26                     27
                      A                      A                      A
 Frequencies --    795.2439               832.2869               841.9387
 Red. masses --      2.4329                 1.1653                 2.1536
 Frc consts  --      0.9065                 0.4756                 0.8995
 IR Inten    --      6.2860                 0.4351                12.5016

                     28                     29                     30
                      A                      A                      A
 Frequencies --    873.1321               881.5801               902.8756
 Red. masses --      2.0369                 1.9306                 3.7942
 Frc consts  --      0.9149                 0.8840                 1.8224
 IR Inten    --      1.1772                21.2429                14.8469

                     31                     32                     33
                      A                      A                      A
 Frequencies --    915.4151               939.1579               965.6110
 Red. masses --      2.4099                 1.9142                 1.7428
 Frc consts  --      1.1899                 0.9948                 0.9574
 IR Inten    --      1.2758                 1.3339                 3.8311

                     34                     35                     36
                      A                      A                      A
 Frequencies --    968.0411              1031.0962              1037.8063
 Red. masses --      1.6820                 2.3879                 1.4837
 Frc consts  --      0.9287                 1.4958                 0.9415
 IR Inten    --      0.5886                11.2026                 0.6775

                     37                     38                     39
                      A                      A                      A
 Frequencies --   1051.1086              1070.3360              1083.7294
 Red. masses --      2.3098                 2.0612                 3.1390
 Frc consts  --      1.5036                 1.3913                 2.1721
 IR Inten    --      0.4375                 2.3045                 0.5949

                     40                     41                     42
                      A                      A                      A
 Frequencies --   1121.7284              1145.6321              1169.4375
 Red. masses --      3.4453                 2.2300                 2.7894
 Frc consts  --      2.5542                 1.7245                 2.2476
 IR Inten    --      4.3549                14.4760                36.7220

                     43                     44                     45
                      A                      A                      A
 Frequencies --   1185.2600              1197.9124              1203.5763
 Red. masses --      1.6521                 1.6054                 1.7558
 Frc consts  --      1.3675                 1.3573                 1.4985
 IR Inten    --     12.5747                 0.7502                 1.5187

                     46                     47                     48
                      A                      A                      A
 Frequencies --   1254.4516              1267.4116              1271.9013
 Red. masses --      1.4376                 2.3358                 1.3530
 Frc consts  --      1.3329                 2.2107                 1.2896
 IR Inten    --      0.8335                 2.0415                 1.5290

                     49                     50                     51
                      A                      A                      A
 Frequencies --   1296.4008              1320.1970              1341.8405
 Red. masses --      1.2386                 1.3023                 1.1956
 Frc consts  --      1.2265                 1.3373                 1.2683
 IR Inten    --      0.3682                 0.3405                 2.7271

                     52                     53                     54
                      A                      A                      A
 Frequencies --   1345.2592              1357.8778              1359.1897
 Red. masses --      1.1875                 1.4661                 1.2585
 Frc consts  --      1.2661                 1.5927                 1.3698
 IR Inten    --      0.0270                 0.3503                 0.1140

                     55                     56                     57
                      A                      A                      A
 Frequencies --   1366.7920              1381.2634              1392.6786
 Red. masses --      1.4437                 1.2462                 3.8877
 Frc consts  --      1.5890                 1.4008                 4.4427
 IR Inten    --      1.1611                17.7027                66.1976

                     58                     59                     60
                      A                      A                      A
 Frequencies --   1413.6308              1428.2502              1444.0659
 Red. masses --      1.3078                 2.6240                 1.3225
 Frc consts  --      1.5398                 3.1537                 1.6249
 IR Inten    --      3.4214                12.7296                 8.4182

                     61                     62                     63
                      A                      A                      A
 Frequencies --   1496.6731              1510.9924              1521.0099
 Red. masses --      1.0886                 1.1268                 1.0888
 Frc consts  --      1.4368                 1.5158                 1.4841
 IR Inten    --      0.4643                14.2854                 0.2788

                     64                     65                     66
                      A                      A                      A
 Frequencies --   1521.5344              1527.5660              1531.4961
 Red. masses --      1.0847                 1.0573                 1.0870
 Frc consts  --      1.4795                 1.4536                 1.5021
 IR Inten    --      3.6187                11.8349                 3.0752

                     67                     68                     69
                      A                      A                      A
 Frequencies --   1532.0596              1544.8033              1550.2843
 Red. masses --      1.1005                 2.1132                 1.5328
 Frc consts  --      1.5219                 2.9712                 2.1705
 IR Inten    --      5.2742                 7.4446                 9.1108

                     70                     71                     72
                      A                      A                      A
 Frequencies --   1553.9593              2969.3835              3040.8584
 Red. masses --      1.2058                 1.0719                 1.0715
 Frc consts  --      1.7155                 5.5686                 5.8378
 IR Inten    --      1.3271                47.6202                16.1246

                     73                     74                     75
                      A                      A                      A
 Frequencies --   3047.4417              3047.6762              3053.4625
 Red. masses --      1.0548                 1.0649                 1.0702
 Frc consts  --      5.7713                 5.8275                 5.8787
 IR Inten    --      7.8220                36.3617                34.3655

                     76                     77                     78
                      A                      A                      A
 Frequencies --   3055.4436              3059.6651              3074.1528
 Red. masses --      1.0671                 1.0652                 1.0725
 Frc consts  --      5.8694                 5.8754                 5.9720
 IR Inten    --     25.9540                32.3247                 9.0195

                     79                     80                     81
                      A                      A                      A
 Frequencies --   3086.1431              3102.7614              3105.5478
 Red. masses --      1.0790                 1.0916                 1.0988
 Frc consts  --      6.0546                 6.1916                 6.2440
 IR Inten    --     16.4782                32.1507                38.8555

                     82                     83                     84
                      A                      A                      A
 Frequencies --   3114.0173              3114.9149              3120.3791
 Red. masses --      1.1014                 1.0990                 1.0972
 Frc consts  --      6.2927                 6.2827                 6.2944
 IR Inten    --     33.4878                37.2040                23.4677

                     85                     86                     87
                      A                      A                      A
 Frequencies --   3127.9581              3135.7796              3480.1078
 Red. masses --      1.1012                 1.1035                 1.0738
 Frc consts  --      6.3478                 6.3931                 7.6625
 IR Inten    --     38.2636                24.2589                 0.6938

 - Thermochemistry -
 -------------------
 Temperature   298.150 Kelvin.  Pressure   1.00000 Atm.
 Atom     1 has atomic number  6 and mass  12.00000

 Molecular mass:   211.11432 amu.
 Principal axes and moments of inertia in atomic units:
                           1         2         3
     Eigenvalues --  2550.848633688.713275382.75968
           X            0.99832   0.05713   0.01001
           Y           -0.05730   0.99820   0.01797
           Z           -0.00896  -0.01851   0.99979
 This molecule is an asymmetric top.
 Rotational symmetry number  1.
 Warning -- assumption of classical behavior for rotation
           may cause significant error
 Rotational temperatures (Kelvin)      0.03395     0.02348     0.01609
 Rotational constants (GHZ):           0.70751     0.48926     0.33528
 Zero-point vibrational energy     705137.7 (Joules/Mol)
                                  168.53195 (Kcal/Mol)
 Warning -- explicit consideration of  20 degrees of freedom as
           vibrations may cause significant error
 Vibrational temperatures:     50.65    72.01    95.37   102.96   140.68
          (Kelvin)            170.76   229.68   295.42   312.76   374.16
                              389.05   414.55   447.77   518.53   576.39
                              677.03   729.13   769.82   814.49   863.32
                              937.07   967.16  1035.50  1115.29  1144.18
                             1197.48  1211.36  1256.24  1268.40  1299.04
                             1317.08  1351.24  1389.30  1392.80  1483.52
                             1493.17  1512.31  1539.97  1559.24  1613.92
                             1648.31  1682.56  1705.32  1723.53  1731.68
                             1804.88  1823.52  1829.98  1865.23  1899.47
                             1930.61  1935.53  1953.68  1955.57  1966.51
                             1987.33  2003.75  2033.90  2054.93  2077.69
                             2153.38  2173.98  2188.39  2189.15  2197.83
                             2203.48  2204.29  2222.63  2230.51  2235.80
                             4272.28  4375.12  4384.59  4384.93  4393.25
                             4396.10  4402.18  4423.02  4440.27  4464.18
                             4468.19  4480.38  4481.67  4489.53  4500.43
                             4511.69  5007.10

 Zero-point correction=                           0.268573 (Hartree/Particle)
 Thermal correction to Energy=                    0.282751
 Thermal correction to Enthalpy=                  0.283695
 Thermal correction to Gibbs Free Energy=         0.226170
 Sum of electronic and zero-point Energies=           -953.493524
 Sum of electronic and thermal Energies=              -953.479346
 Sum of electronic and thermal Enthalpies=            -953.478402
 Sum of electronic and thermal Free Energies=         -953.535927

                     E (Thermal)             CV                S
                      KCal/Mol        Cal/Mol-Kelvin    Cal/Mol-Kelvin
 Total                  177.429             52.995            121.073
 Electronic               0.000              0.000              0.000
 Translational            0.889              2.981             41.945
 Rotational               0.889              2.981             32.293
 Vibrational            175.652             47.033             46.834
 Vibration     1          0.594              1.982              5.512
 Vibration     2          0.595              1.978              4.815
 Vibration     3          0.598              1.970              4.261
 Vibration     4          0.598              1.968              4.110
 Vibration     5          0.603              1.951              3.498
 Vibration     6          0.609              1.934              3.122
 Vibration     7          0.621              1.892              2.554
 Vibration     8          0.640              1.832              2.085
 Vibration     9          0.646              1.815              1.981
 Vibration    10          0.668              1.746              1.661
 Vibration    11          0.674              1.728              1.594
 Vibration    12          0.685              1.696              1.485
 Vibration    13          0.700              1.652              1.356
 Vibration    14          0.735              1.554              1.120
 Vibration    15          0.766              1.469              0.960
 Vibration    16          0.828              1.315              0.736
 Vibration    17          0.862              1.235              0.641
 Vibration    18          0.890              1.172              0.576
 Vibration    19          0.922              1.105              0.512
 Vibration    20          0.958              1.032              0.450

                           ! Non-Optimized Parameters !
 Normal termination of Gaussian 16 at Thu Dec 10 09:35:07 2020.

 ----------------------------------------------------------------------
 # B3LYP/6-311++G(d,p) empiricaldispersion=gd3bj scf=xqc pop=npa geom=c
 heck
 ----------------------------------------------------------------------

 --------------------------------------
 CID_65209282_JID_4387_Energie_neutraal
 --------------------------------------
 Structure from the checkpoint file:  "JID_4387.chk"
 Charge =  0 Multiplicity = 1

 SCF Done:  E(RB3LYP) =  -953.938823631     A.U. after   17 cycles
 Normal termination of Gaussian 16 at Thu Dec 10 09:40:53 2020.

 ----------------------------------------------------------------------
 # B3LYP/6-311++G(d,p) empiricaldispersion=gd3bj scf=xqc pop=npa geom=c
 heck
 ----------------------------------------------------------------------

 ------------------------------------
 CID_65209282_JID_4387_Energie_kation
 ------------------------------------
 Structure from the checkpoint file:  "JID_4387.chk"
 Charge =  1 Multiplicity = 2

 SCF Done:  E(UB3LYP) =  -953.620670907     A.U. after   33 cycles
 SCF Done:  E(UB3LYP) =  -953.621853655     a.u. after    8 cycles
 Normal termination of Gaussian 16 at Thu Dec 10 11:07:41 2020.
 Gaussian 16:  ES64L-G16RevA.03 25-Dec-2016

 ----------------------------------------------------------------------
 # B3LYP/6-311++G(d,p) empiricaldispersion=gd3bj scf=xqc pop=npa geom=c
 heck
 ----------------------------------------------------------------------

 -----------------------------------
 CID_65209282_JID_4387_Energie_anion
 -----------------------------------
 Structure from the checkpoint file:  "JID_4387.chk"
 Charge = -1 Multiplicity = 2

                         Standard orientation:
 ---------------------------------------------------------------------
 Center     Atomic      Atomic             Coordinates (Angstroms)
 Number     Number       Type             X           Y           Z
 ---------------------------------------------------------------------
      1          6           0       -3.356677   -2.558584   -0.667479
      2          6           0       -2.050445   -1.802965   -0.450255
      3          7           0       -1.934910   -1.370867    0.943231
      4          6           0       -0.733108   -0.597591    1.234633
      5          6           0       -0.558775    0.691971    0.457610
      6          6           0        0.530456    1.143008   -0.261222
      7          7           0        0.320432    2.376626   -0.844503
      8          7           0       -0.815280    2.911684   -0.653514
      9         16           0       -1.810854    1.864886    0.350517
     10          6           0        1.865523    0.480240   -0.460342
     11          6           0        2.682916    0.267836    0.841732
     12          6           0        3.613115   -0.904386    0.506024
     13          6           0        2.698436   -1.857606   -0.280535
     14          6           0        1.823706   -0.926433   -1.151215
     15          1           0       -3.427912   -3.409577    0.017167
     16          1           0       -3.425484   -2.926997   -1.696217
     17          1           0       -4.220720   -1.905728   -0.490669
     18          1           0       -1.199351   -2.465239   -0.657321
     19          1           0       -1.980017   -0.965990   -1.167372
     20          1           0       -2.761922   -0.833744    1.201526
     21          1           0       -0.729099   -0.371096    2.308012
     22          1           0        0.132830   -1.238819    1.048379
     23          1           0        2.430757    1.160919   -1.103558
     24          1           0        3.208938    1.178073    1.146000
     25          1           0        2.017925   -0.011840    1.667935
     26          1           0        4.059228   -1.367346    1.392397
     27          1           0        4.434884   -0.557693   -0.134458
     28          1           0        2.069831   -2.419296    0.423056
     29          1           0        3.250191   -2.593980   -0.873338
     30          1           0        0.801394   -1.299166   -1.255498
     31          1           0        2.229621   -0.845705   -2.164515
 ---------------------------------------------------------------------

 SCF Done:  E(UB3LYP) =  -953.941757224     A.U. after   32 cycles

 The electronic state is 2-A.
 Alpha  occ. eigenvalues --  -88.72145 -14.18679 -14.18597 -14.18148 -10.08690
 Alpha  occ. eigenvalues --  -10.08152 -10.06851 -10.06330 -10.06235 -10.05902
 Alpha  occ. eigenvalues --  -10.05650 -10.05385 -10.05370 -10.04354  -7.80751
 Alpha  occ. eigenvalues --   -5.77071  -5.76671  -5.76350  -0.87486  -0.79726
 Alpha  occ. eigenvalues --   -0.73206  -0.67265  -0.64708  -0.63731  -0.60327
 Alpha  occ. eigenvalues --   -0.58146  -0.55425  -0.50797  -0.46887  -0.46163
 Alpha  occ. eigenvalues --   -0.44108  -0.41069  -0.37822  -0.37424  -0.36148
 Alpha  occ. eigenvalues --   -0.35301  -0.34473  -0.31513  -0.31214  -0.30130
 Alpha  occ. eigenvalues --   -0.28620  -0.28394  -0.26329  -0.25518  -0.25505
 Alpha  occ. eigenvalues --   -0.24575  -0.23743  -0.23549  -0.23077  -0.22532
 Alpha  occ. eigenvalues --   -0.21828  -0.19497  -0.18231  -0.14273  -0.11999
 Alpha  occ. eigenvalues --   -0.10686  -0.09478   0.04871
 Alpha virt. eigenvalues --    0.06782   0.07523   0.08482   0.08999   0.09669
 Alpha virt. eigenvalues --    0.10090   0.10756   0.11838   0.11953   0.12024
 Alpha virt. eigenvalues --    0.12424   0.12810   0.13649   0.14478   0.14909

  Beta  occ. eigenvalues --  -88.72091 -14.18651 -14.17978 -14.17929 -10.08688
  Beta  occ. eigenvalues --  -10.08170 -10.06850 -10.06322 -10.06224 -10.05901
  Beta  occ. eigenvalues --  -10.05652 -10.05448 -10.05359 -10.03959  -7.80702
  Beta  occ. eigenvalues --   -5.77056  -5.76655  -5.76155  -0.86775  -0.79655
  Beta  occ. eigenvalues --   -0.73176  -0.66895  -0.64491  -0.63468  -0.60310
  Beta  occ. eigenvalues --   -0.57861  -0.55267  -0.50727  -0.46852  -0.46028
  Beta  occ. eigenvalues --   -0.43604  -0.40850  -0.37766  -0.37369  -0.36020
  Beta  occ. eigenvalues --   -0.35136  -0.34416  -0.31422  -0.31193  -0.29800
  Beta  occ. eigenvalues --   -0.28563  -0.27430  -0.26173  -0.25435  -0.25225
  Beta  occ. eigenvalues --   -0.24458  -0.23648  -0.23524  -0.22620  -0.22477
  Beta  occ. eigenvalues --   -0.21707  -0.19346  -0.17731  -0.12787  -0.11746
  Beta  occ. eigenvalues --   -0.09013  -0.08977
  Beta virt. eigenvalues --    0.06872   0.07465   0.08571   0.08996   0.09697
  Beta virt. eigenvalues --    0.10030   0.10651   0.11234   0.11839   0.11970
  Beta virt. eigenvalues --    0.12326   0.12694   0.12953   0.13683   0.14439

 Mulliken charges and spin densities:
               1          2
     1  C   -0.543623  -0.092718
     2  C   -0.220856  -0.047618
     3  N   -0.068357   0.012333
     4  C    0.383246  -0.825304
     5  C    1.337017   0.307953
     6  C   -1.570563   0.315069
     7  N   -0.083495   0.093553
     8  N   -0.105547   0.262257
     9  S   -0.112373   0.105396
    10  C   -0.150209  -0.132281
    11  C   -0.529721   0.254227
    12  C    0.061941  -0.609844
    13  C   -0.296213   0.016318
    14  C   -0.396393   0.043010
    15  H    0.130322   0.015532
    16  H    0.117274   0.003419
    17  H    0.130732  -0.004335
    18  H    0.090517   0.032696
    19  H    0.162455  -0.003961
    20  H    0.154080   0.067136
    21  H   -0.440837   0.656363
    22  H    0.307095  -0.182971
    23  H    0.222965   0.001431
    24  H    0.008503   0.149929
    25  H    0.204031  -0.058602
    26  H   -0.208178   0.366574
    27  H    0.129057  -0.015654
    28  H    0.039098   0.083709
    29  H   -0.026090   0.170730
    30  H    0.136476   0.000252
    31  H    0.137644   0.015399
 Sum of Mulliken charges =  -1.00000   1.00000

 Dipole moment (field-independent basis, Debye):
    X=              0.1892    Y=             -5.3239    Z=             -1.7423  Tot=              5.6049
 Quadrupole moment (field-independent basis, Debye-Ang):
   XX=           -124.3469   YY=           -137.8746   ZZ=           -117.3944
   XY=              7.1152   XZ=              0.4699   YZ=              9.7114

 Summary of Natural Population Analysis:

                                       Natural Population
                Natural  -----------------------------------------------
    Atom  No    Charge         Core      Valence    Rydberg      Total
 -----------------------------------------------------------------------
      C    1   -0.28659      0.99967     2.28289    0.00403     3.28659
      C    2   -0.09121      0.99965     2.08101    0.01055     3.09121
      N    3   -0.33861      0.99975     2.82581    0.01305     3.83861
      C    4   -0.10609      0.99957     2.09154    0.01498     3.10609
      C    5   -0.05621      0.99944     2.04310    0.01367     3.05621
      C    6    0.02023      0.99940     1.96367    0.01670     2.97977
      N    7   -0.10362      0.99969     2.58507    0.01885     3.60362
      N    8   -0.08495      0.99982     2.57032    0.01481     3.58495
      S    9    0.22403      4.99942     2.75111    0.02544     7.77597
      C   10   -0.12160      0.99957     2.10973    0.01231     3.12160
      C   11   -0.18497      0.99962     2.17727    0.00808     3.18497
      C   12   -0.19281      0.99964     2.18548    0.00769     3.19281
      C   13   -0.19493      0.99964     2.18704    0.00825     3.19493
      C   14   -0.18955      0.99963     2.18196    0.00796     3.18955
      H   15    0.09727      0.00000     0.40145    0.00128     0.40273
      H   16    0.09525      0.00000     0.40405    0.00071     0.40475
      H   17    0.09395      0.00000     0.40500    0.00105     0.40605
      H   18    0.08618      0.00000     0.41245    0.00138     0.41382
      H   19    0.08812      0.00000     0.41047    0.00141     0.41188
      H   20    0.16992      0.00000     0.32707    0.00301     0.33008
      H   21    0.10561      0.00000     0.39146    0.00293     0.39439
      H   22    0.09444      0.00000     0.40326    0.00229     0.40556
      H   23    0.10620      0.00000     0.39171    0.00208     0.39380
      H   24    0.10014      0.00000     0.39889    0.00097     0.39986
      H   25    0.09670      0.00000     0.40193    0.00138     0.40330
      H   26    0.09717      0.00000     0.40191    0.00092     0.40283
      H   27    0.09047      0.00000     0.40851    0.00102     0.40953
      H   28    0.09378      0.00000     0.40491    0.00132     0.40622
      H   29    0.09539      0.00000     0.40374    0.00087     0.40461
      H   30    0.10203      0.00000     0.39686    0.00111     0.39797
      H   31    0.09427      0.00000     0.40479    0.00094     0.40573
 =======================================================================
   * Total *   -0.00000     17.99451    38.80445    0.20104    57.00000

 Normal termination of Gaussian 16 at Thu Dec 10 11:22:24 2020.
