 Gaussian 16, Revision A.03,

 -----------------------------------------------------------
 # opt freq B3LYP/6-31G(d) empiricaldispersion=gd3bj scf=xqc
 -----------------------------------------------------------

 -------------------------------
 CID_119012821_JID_1659_neutraal
 -------------------------------
 Symbolic Z-matrix:
 Charge =  0 Multiplicity = 1

 SCF Done:  E(RB3LYP) =  -512.810634748     A.U. after   14 cycles
 SCF Done:  E(RB3LYP) =  -512.818684623     A.U. after   12 cycles
 SCF Done:  E(RB3LYP) =  -512.820134481     A.U. after   11 cycles
 SCF Done:  E(RB3LYP) =  -512.820320365     A.U. after   10 cycles
 SCF Done:  E(RB3LYP) =  -512.820376925     A.U. after   10 cycles
 SCF Done:  E(RB3LYP) =  -512.820405224     A.U. after   10 cycles
 SCF Done:  E(RB3LYP) =  -512.820423826     A.U. after   10 cycles
 SCF Done:  E(RB3LYP) =  -512.820436322     A.U. after   10 cycles
 SCF Done:  E(RB3LYP) =  -512.820452577     A.U. after   10 cycles
 SCF Done:  E(RB3LYP) =  -512.820464842     A.U. after   10 cycles
 SCF Done:  E(RB3LYP) =  -512.820467940     A.U. after    9 cycles
 SCF Done:  E(RB3LYP) =  -512.820471427     A.U. after    9 cycles
 SCF Done:  E(RB3LYP) =  -512.820472520     A.U. after    9 cycles
 SCF Done:  E(RB3LYP) =  -512.820473232     A.U. after    9 cycles
 SCF Done:  E(RB3LYP) =  -512.820473848     A.U. after    9 cycles
 SCF Done:  E(RB3LYP) =  -512.820474017     A.U. after    7 cycles
 Optimization completed.
    -- Stationary point found.
 Normal termination of Gaussian 16 at Tue Dec  8 20:39:19 2020.

 --------------------------------------------------------------------
 #N Geom=AllCheck Guess=TCheck SCRF=Check GenChk RB3LYP/6-31G(d) Freq
 --------------------------------------------------------------------

 Structure from the checkpoint file:  "JID_1659.chk"
 -------------------------------
 CID_119012821_JID_1659_neutraal
 -------------------------------
 Charge =  0 Multiplicity = 1

 SCF Done:  E(RB3LYP) =  -512.820474017     A.U. after    1 cycles

  Exact polarizability: 130.114  -2.104 112.634   1.861   0.387  48.031
 Approx polarizability: 185.865  -4.171 188.120   8.554   1.164  72.754

                      1                      2                      3
                      A                      A                      A
 Frequencies --     43.6413                66.0856               147.9068
 Red. masses --      2.7992                 3.3728                 3.0139
 Frc consts  --      0.0031                 0.0087                 0.0388
 IR Inten    --      2.7662                 1.6445                 3.2935

                      4                      5                      6
                      A                      A                      A
 Frequencies --    174.7990               178.5123               209.1623
 Red. masses --      1.2084                 1.1092                 3.5336
 Frc consts  --      0.0218                 0.0208                 0.0911
 IR Inten    --     17.0106                36.5912                 9.5244

                      7                      8                      9
                      A                      A                      A
 Frequencies --    226.3857               268.4115               315.2258
 Red. masses --      3.1771                 3.2826                 4.1076
 Frc consts  --      0.0959                 0.1393                 0.2405
 IR Inten    --      1.2991                 4.3630                 3.8830

                     10                     11                     12
                      A                      A                      A
 Frequencies --    358.5567               373.8171               447.9375
 Red. masses --      4.0279                 5.4940                 1.1540
 Frc consts  --      0.3051                 0.4523                 0.1364
 IR Inten    --      6.2113                 5.3109                28.8554

                     13                     14                     15
                      A                      A                      A
 Frequencies --    484.3343               541.1377               554.2785
 Red. masses --      5.4583                 5.9957                 3.7642
 Frc consts  --      0.7544                 1.0344                 0.6814
 IR Inten    --      3.5905                 7.4507                 8.9535

                     16                     17                     18
                      A                      A                      A
 Frequencies --    586.8827               619.3972               704.2631
 Red. masses --      4.5195                 3.8582                 5.4604
 Frc consts  --      0.9172                 0.8721                 1.5957
 IR Inten    --      2.4184                 6.9651                38.5359

                     19                     20                     21
                      A                      A                      A
 Frequencies --    723.5771               783.2677               799.8443
 Red. masses --      2.2536                 1.7160                 2.2485
 Frc consts  --      0.6952                 0.6203                 0.8475
 IR Inten    --     15.3484                32.7733               119.7838

                     22                     23                     24
                      A                      A                      A
 Frequencies --    860.0510               882.2111               887.4125
 Red. masses --      2.2088                 1.8651                 1.7116
 Frc consts  --      0.9626                 0.8553                 0.7942
 IR Inten    --     73.8931               159.4921                18.2986

                     25                     26                     27
                      A                      A                      A
 Frequencies --    935.6970               946.9009              1031.7565
 Red. masses --      1.2663                 1.7544                 4.0202
 Frc consts  --      0.6532                 0.9268                 2.5215
 IR Inten    --     12.2643                61.4771                37.9088

                     28                     29                     30
                      A                      A                      A
 Frequencies --   1076.0508              1103.5964              1179.8469
 Red. masses --      3.8780                 1.7567                 1.1633
 Frc consts  --      2.6456                 1.2606                 0.9541
 IR Inten    --     75.5669                 7.4935                19.0389

                     31                     32                     33
                      A                      A                      A
 Frequencies --   1189.0302              1201.1638              1211.8522
 Red. masses --      1.2599                 1.3453                 1.5258
 Frc consts  --      1.0495                 1.1436                 1.3202
 IR Inten    --      1.2288                23.6042                53.1735

                     34                     35                     36
                      A                      A                      A
 Frequencies --   1235.0884              1265.5225              1278.2516
 Red. masses --      1.9099                 1.4665                 3.6614
 Frc consts  --      1.7165                 1.3838                 3.5248
 IR Inten    --    118.8510                11.2546                 6.5240

                     37                     38                     39
                      A                      A                      A
 Frequencies --   1301.1853              1355.7748              1405.3646
 Red. masses --      2.1357                 1.8308                 3.4801
 Frc consts  --      2.1304                 1.9827                 4.0496
 IR Inten    --     37.0753                23.3771                 0.9152

                     40                     41                     42
                      A                      A                      A
 Frequencies --   1494.2155              1516.2718              1524.0275
 Red. masses --      1.2225                 1.0508                 1.9822
 Frc consts  --      1.6082                 1.4234                 2.7126
 IR Inten    --     14.5245                 4.6763                29.6052

                     43                     44                     45
                      A                      A                      A
 Frequencies --   1533.4513              1536.7593              1537.4763
 Red. masses --      2.1488                 1.1795                 1.6820
 Frc consts  --      2.9770                 1.6412                 2.3426
 IR Inten    --     37.1021                33.0161                25.0500

                     46                     47                     48
                      A                      A                      A
 Frequencies --   1637.0739              1657.9604              1680.6121
 Red. masses --      1.9434                 5.4686                 1.9435
 Frc consts  --      3.0687                 8.8567                 3.2342
 IR Inten    --     31.0331                49.3073                62.7783

                     49                     50                     51
                      A                      A                      A
 Frequencies --   1701.1443              3027.7224              3088.8998
 Red. masses --      1.0953                 1.0319                 1.1069
 Frc consts  --      1.8675                 5.5736                 6.2224
 IR Inten    --     42.9416                55.9473                33.6166

                     52                     53                     54
                      A                      A                      A
 Frequencies --   3143.7270              3193.5860              3211.6272
 Red. masses --      1.1023                 1.0866                 1.0936
 Frc consts  --      6.4186                 6.5296                 6.6459
 IR Inten    --     41.2894                 7.9550                15.5634

                     55                     56                     57
                      A                      A                      A
 Frequencies --   3229.9236              3410.1993              3450.1288
 Red. masses --      1.0922                 1.0517                 1.0748
 Frc consts  --      6.7133                 7.2061                 7.5378
 IR Inten    --      7.2071                 3.4900                 3.7292

                     58                     59                     60
                      A                      A                      A
 Frequencies --   3490.9094              3502.5677              3600.6278
 Red. masses --      1.0489                 1.0910                 1.0950
 Frc consts  --      7.5310                 7.8858                 8.3638
 IR Inten    --      5.1361                 0.6181                22.0929

 - Thermochemistry -
 -------------------
 Temperature   298.150 Kelvin.  Pressure   1.00000 Atm.
 Atom     1 has atomic number  6 and mass  12.00000

 Molecular mass:   153.09021 amu.
 Principal axes and moments of inertia in atomic units:
                           1         2         3
     Eigenvalues --   886.312892273.615703020.04302
           X            0.99991   0.00288  -0.01289
           Y           -0.00288   1.00000  -0.00056
           Z            0.01289   0.00060   0.99992
 This molecule is an asymmetric top.
 Rotational symmetry number  1.
 Warning -- assumption of classical behavior for rotation
           may cause significant error
 Rotational temperatures (Kelvin)      0.09772     0.03810     0.02868
 Rotational constants (GHZ):           2.03623     0.79378     0.59759
 Zero-point vibrational energy     485223.8 (Joules/Mol)
                                  115.97128 (Kcal/Mol)
 Warning -- explicit consideration of  17 degrees of freedom as
           vibrations may cause significant error
 Vibrational temperatures:     62.79    95.08   212.80   251.50   256.84
          (Kelvin)            300.94   325.72   386.18   453.54   515.88
                              537.84   644.48   696.85   778.58   797.48
                              844.39   891.17  1013.28  1041.07  1126.95
                             1150.80  1237.42  1269.30  1276.79  1346.26
                             1362.38  1484.47  1548.20  1587.83  1697.54
                             1710.75  1728.21  1743.59  1777.02  1820.80
                             1839.12  1872.12  1950.66  2022.01  2149.84
                             2181.58  2192.74  2206.29  2211.05  2212.09
                             2355.38  2385.44  2418.03  2447.57  4356.22
                             4444.24  4523.12  4594.86  4620.82  4647.14
                             4906.52  4963.97  5022.64  5039.41  5180.50

 Zero-point correction=                           0.184812 (Hartree/Particle)
 Thermal correction to Energy=                    0.195858
 Thermal correction to Enthalpy=                  0.196802
 Thermal correction to Gibbs Free Energy=         0.147924
 Sum of electronic and zero-point Energies=           -512.635662
 Sum of electronic and thermal Energies=              -512.624616
 Sum of electronic and thermal Enthalpies=            -512.623672
 Sum of electronic and thermal Free Energies=         -512.672550

                     E (Thermal)             CV                S
                      KCal/Mol        Cal/Mol-Kelvin    Cal/Mol-Kelvin
 Total                  122.903             41.278            102.874
 Electronic               0.000              0.000              0.000
 Translational            0.889              2.981             40.987
 Rotational               0.889              2.981             30.188
 Vibrational            121.125             35.317             31.698
 Vibration     1          0.595              1.980              5.087
 Vibration     2          0.597              1.970              4.267
 Vibration     3          0.617              1.905              2.699
 Vibration     4          0.627              1.873              2.383
 Vibration     5          0.629              1.869              2.344
 Vibration     6          0.642              1.827              2.051
 Vibration     7          0.650              1.801              1.907
 Vibration     8          0.673              1.731              1.606
 Vibration     9          0.703              1.645              1.335
 Vibration    10          0.733              1.558              1.128
 Vibration    11          0.745              1.526              1.064
 Vibration    12          0.807              1.365              0.802
 Vibration    13          0.840              1.285              0.698
 Vibration    14          0.896              1.159              0.563
 Vibration    15          0.910              1.130              0.535
 Vibration    16          0.944              1.060              0.473
 Vibration    17          0.979              0.991              0.417

                           ! Non-Optimized Parameters !
 Normal termination of Gaussian 16 at Tue Dec  8 20:44:43 2020.

 ----------------------------------------------------------------------
 # B3LYP/6-311++G(d,p) empiricaldispersion=gd3bj scf=xqc pop=npa geom=c
 heck
 ----------------------------------------------------------------------

 ---------------------------------------
 CID_119012821_JID_1659_Energie_neutraal
 ---------------------------------------
 Structure from the checkpoint file:  "JID_1659.chk"
 Charge =  0 Multiplicity = 1

 SCF Done:  E(RB3LYP) =  -512.980326278     A.U. after   15 cycles
 Normal termination of Gaussian 16 at Tue Dec  8 20:47:13 2020.

 ----------------------------------------------------------------------
 # B3LYP/6-311++G(d,p) empiricaldispersion=gd3bj scf=xqc pop=npa geom=c
 heck
 ----------------------------------------------------------------------

 -------------------------------------
 CID_119012821_JID_1659_Energie_kation
 -------------------------------------
 Structure from the checkpoint file:  "JID_1659.chk"
 Charge =  1 Multiplicity = 2

 SCF Done:  E(UB3LYP) =  -512.714446177     A.U. after   22 cycles
 Normal termination of Gaussian 16 at Tue Dec  8 20:52:41 2020.
 Gaussian 16:  ES64L-G16RevA.03 25-Dec-2016

 ----------------------------------------------------------------------
 # B3LYP/6-311++G(d,p) empiricaldispersion=gd3bj scf=xqc pop=npa geom=c
 heck
 ----------------------------------------------------------------------

 ------------------------------------
 CID_119012821_JID_1659_Energie_anion
 ------------------------------------
 Structure from the checkpoint file:  "JID_1659.chk"
 Charge = -1 Multiplicity = 2

                         Standard orientation:
 ---------------------------------------------------------------------
 Center     Atomic      Atomic             Coordinates (Angstroms)
 Number     Number       Type             X           Y           Z
 ---------------------------------------------------------------------
      1          6           0       -3.197557   -0.547650    0.726525
      2          8           0       -2.478326   -0.304314   -0.483103
      3          6           0       -1.235717    0.275568   -0.268899
      4          6           0       -1.093022    1.660399   -0.188848
      5          6           0        0.175378    2.208688   -0.014807
      6          6           0        1.293950    1.376954    0.096105
      7          6           0        1.148984   -0.008434    0.011998
      8          6           0       -0.129027   -0.574685   -0.178121
      9          7           0       -0.274436   -1.968170   -0.239318
     10          7           0        2.226500   -0.935846    0.049664
     11          7           0        3.523770   -0.296766    0.271712
     12          1           0       -4.143801   -1.013227    0.439806
     13          1           0       -3.398468    0.390227    1.260077
     14          1           0       -2.640674   -1.222133    1.389971
     15          1           0       -1.976045    2.284480   -0.284708
     16          1           0        0.298362    3.285554    0.049908
     17          1           0        2.275787    1.798256    0.276795
     18          1           0       -1.158993   -2.221754   -0.668590
     19          1           0        0.508655   -2.399945   -0.724633
     20          1           0        2.082708   -1.565523    0.841163
     21          1           0        4.186004   -1.072081    0.197245
     22          1           0        3.684298    0.231087   -0.590338
 ---------------------------------------------------------------------

 SCF Done:  E(UB3LYP) =  -512.965490695     A.U. after   32 cycles

 The electronic state is 2-A.
 Alpha  occ. eigenvalues --  -19.03980 -14.23601 -14.21940 -14.20994 -10.11758
 Alpha  occ. eigenvalues --  -10.11660 -10.10307 -10.10050 -10.06716 -10.06542
 Alpha  occ. eigenvalues --  -10.06237  -0.95417  -0.87009  -0.81015  -0.73699
 Alpha  occ. eigenvalues --   -0.69035  -0.63856  -0.60798  -0.58501  -0.50241
 Alpha  occ. eigenvalues --   -0.49364  -0.43854  -0.42552  -0.39610  -0.38420
 Alpha  occ. eigenvalues --   -0.36193  -0.35954  -0.35079  -0.34261  -0.32504
 Alpha  occ. eigenvalues --   -0.31532  -0.30066  -0.27546  -0.26410  -0.25156
 Alpha  occ. eigenvalues --   -0.23973  -0.21106  -0.18140  -0.15239  -0.11802
 Alpha  occ. eigenvalues --   -0.08820   0.04727
 Alpha virt. eigenvalues --    0.06367   0.07564   0.08675   0.09236   0.09776
 Alpha virt. eigenvalues --    0.09970   0.10613   0.11104   0.11887   0.12229
 Alpha virt. eigenvalues --    0.12602   0.13904   0.14733   0.15813   0.16497

  Beta  occ. eigenvalues --  -19.03974 -14.23561 -14.21868 -14.20963 -10.11720
  Beta  occ. eigenvalues --  -10.11660 -10.10304 -10.10051 -10.06715 -10.06535
  Beta  occ. eigenvalues --  -10.06223  -0.95407  -0.86937  -0.80972  -0.73668
  Beta  occ. eigenvalues --   -0.68921  -0.63823  -0.60741  -0.58446  -0.50210
  Beta  occ. eigenvalues --   -0.49325  -0.43801  -0.42517  -0.39570  -0.38372
  Beta  occ. eigenvalues --   -0.36150  -0.35861  -0.35049  -0.34230  -0.32453
  Beta  occ. eigenvalues --   -0.31480  -0.30026  -0.27515  -0.26381  -0.25124
  Beta  occ. eigenvalues --   -0.23940  -0.21079  -0.18125  -0.15202  -0.11773
  Beta  occ. eigenvalues --   -0.08767
  Beta virt. eigenvalues --    0.06982   0.07790   0.08016   0.09258   0.09978
  Beta virt. eigenvalues --    0.10081   0.10139   0.10718   0.11848   0.12232
  Beta virt. eigenvalues --    0.12600   0.13213   0.14085   0.15214   0.15937

 Mulliken charges and spin densities:
               1          2
     1  C    0.775972  -1.097644
     2  O   -0.238750   0.037723
     3  C   -0.762366   0.618405
     4  C    0.498006  -0.344238
     5  C    0.263344  -0.557506
     6  C    1.049879  -1.161172
     7  C    0.379398  -0.465970
     8  C   -1.065710   0.757227
     9  N   -0.321729  -0.046662
    10  N   -0.359963   0.121851
    11  N    0.268315  -0.591540
    12  H   -0.456226   0.607656
    13  H   -0.132852   0.255067
    14  H   -0.173540   0.334740
    15  H    0.107066   0.039905
    16  H    0.041176   0.104387
    17  H    0.096036   0.071166
    18  H   -0.015171   0.295966
    19  H   -0.089679   0.359352
    20  H   -0.146794   0.428464
    21  H   -0.502838   0.784833
    22  H   -0.213575   0.447990
 Sum of Mulliken charges =  -1.00000   1.00000

 Dipole moment (field-independent basis, Debye):
    X=             -3.8397    Y=              4.7951    Z=             -0.4637  Tot=              6.1604
 Quadrupole moment (field-independent basis, Debye-Ang):
   XX=           -144.2272   YY=            -99.1237   ZZ=            -91.7460
   XY=              4.0618   XZ=             -0.1031   YZ=              0.6342

 Summary of Natural Population Analysis:

                                       Natural Population
                Natural  -----------------------------------------------
    Atom  No    Charge         Core      Valence    Rydberg      Total
 -----------------------------------------------------------------------
      C    1   -0.09682      0.99959     2.08796    0.00927     3.09682
      O    2   -0.29709      0.99987     3.28675    0.01048     4.29709
      C    3    0.13036      0.99932     1.85577    0.01455     2.86964
      C    4   -0.12931      0.99951     2.12085    0.00895     3.12931
      C    5   -0.11161      0.99958     2.10237    0.00967     3.11161
      C    6   -0.12629      0.99952     2.11811    0.00865     3.12629
      C    7    0.06586      0.99945     1.92195    0.01273     2.93414
      C    8    0.05782      0.99940     1.93017    0.01261     2.94218
      N    9   -0.40306      0.99972     2.89241    0.01093     3.90306
      N   10   -0.24372      0.99969     2.72797    0.01605     3.74372
      N   11   -0.32520      0.99978     2.81290    0.01252     3.82520
      H   12    0.09004      0.00000     0.40814    0.00182     0.40996
      H   13    0.08066      0.00000     0.41792    0.00142     0.41934
      H   14    0.08586      0.00000     0.41257    0.00157     0.41414
      H   15    0.10186      0.00000     0.39717    0.00097     0.39814
      H   16    0.09644      0.00000     0.40277    0.00079     0.40356
      H   17    0.10868      0.00000     0.38996    0.00136     0.39132
      H   18    0.18893      0.00000     0.30875    0.00232     0.31107
      H   19    0.19069      0.00000     0.30608    0.00323     0.30931
      H   20    0.18311      0.00000     0.31227    0.00462     0.31689
      H   21    0.18136      0.00000     0.30620    0.01243     0.31864
      H   22    0.17144      0.00000     0.32500    0.00356     0.32856
 =======================================================================
   * Total *    0.00000     10.99545    29.84404    0.16051    41.00000

 Normal termination of Gaussian 16 at Tue Dec  8 21:00:24 2020.
