 Gaussian 16, Revision A.03,

 -----------------------------------------------------------
 # opt freq B3LYP/6-31G(d) empiricaldispersion=gd3bj scf=xqc
 -----------------------------------------------------------

 -------------------------------
 CID_61273160_JID_10371_neutraal
 -------------------------------
 Symbolic Z-matrix:
 Charge =  0 Multiplicity = 1

 SCF Done:  E(RB3LYP) =  -863.098139601     A.U. after   16 cycles
 SCF Done:  E(RB3LYP) =  -863.107857308     A.U. after   13 cycles
 SCF Done:  E(RB3LYP) =  -863.109588256     A.U. after   13 cycles
 SCF Done:  E(RB3LYP) =  -863.110033825     A.U. after   13 cycles
 SCF Done:  E(RB3LYP) =  -863.110506172     A.U. after   12 cycles
 SCF Done:  E(RB3LYP) =  -863.110676923     A.U. after   12 cycles
 SCF Done:  E(RB3LYP) =  -863.110788425     A.U. after   11 cycles
 SCF Done:  E(RB3LYP) =  -863.110800905     A.U. after   10 cycles
 SCF Done:  E(RB3LYP) =  -863.110811415     A.U. after    9 cycles
 SCF Done:  E(RB3LYP) =  -863.110814378     A.U. after   10 cycles
 SCF Done:  E(RB3LYP) =  -863.110816734     A.U. after    9 cycles
 SCF Done:  E(RB3LYP) =  -863.110817249     A.U. after   10 cycles
 SCF Done:  E(RB3LYP) =  -863.110817932     A.U. after    8 cycles
 SCF Done:  E(RB3LYP) =  -863.110817913     A.U. after    8 cycles
 SCF Done:  E(RB3LYP) =  -863.110817953     A.U. after    7 cycles
 SCF Done:  E(RB3LYP) =  -863.110817938     A.U. after    6 cycles
 Optimization completed.
    -- Stationary point found.
 Normal termination of Gaussian 16 at Mon Dec 14 13:54:12 2020.

 --------------------------------------------------------------------
 #N Geom=AllCheck Guess=TCheck SCRF=Check GenChk RB3LYP/6-31G(d) Freq
 --------------------------------------------------------------------

 Structure from the checkpoint file:  "JID_10371.chk"
 -------------------------------
 CID_61273160_JID_10371_neutraal
 -------------------------------
 Charge =  0 Multiplicity = 1

 SCF Done:  E(RB3LYP) =  -863.110817938     A.U. after    1 cycles

  Exact polarizability: 256.995  14.354 179.495  -2.164 -22.158 143.498
 Approx polarizability: 362.505  43.901 317.596  -9.084 -62.822 219.904

                      1                      2                      3
                      A                      A                      A
 Frequencies --     18.7967                40.3484                57.5832
 Red. masses --      2.8051                 3.8404                 3.0741
 Frc consts  --      0.0006                 0.0037                 0.0060
 IR Inten    --      0.0375                 0.3084                 0.2661

                      4                      5                      6
                      A                      A                      A
 Frequencies --     69.2641                75.9256                97.5373
 Red. masses --      3.6571                 3.3126                 3.8608
 Frc consts  --      0.0103                 0.0113                 0.0216
 IR Inten    --      0.5712                 0.9341                 1.0027

                      7                      8                      9
                      A                      A                      A
 Frequencies --    105.9269               121.6951               201.1874
 Red. masses --      5.8798                 2.2169                 3.1077
 Frc consts  --      0.0389                 0.0193                 0.0741
 IR Inten    --      2.2307                 1.8206                 3.9945

                     10                     11                     12
                      A                      A                      A
 Frequencies --    210.2776               226.2083               235.3353
 Red. masses --      3.7961                 1.6384                 1.7592
 Frc consts  --      0.0989                 0.0494                 0.0574
 IR Inten    --      2.2702                 0.5337                 1.8072

                     13                     14                     15
                      A                      A                      A
 Frequencies --    240.5597               265.2570               271.9602
 Red. masses --      1.5163                 2.5988                 2.6554
 Frc consts  --      0.0517                 0.1077                 0.1157
 IR Inten    --      1.0198                 0.5531                 0.2393

                     16                     17                     18
                      A                      A                      A
 Frequencies --    283.0468               291.7839               322.1423
 Red. masses --      1.9998                 1.4215                 2.4953
 Frc consts  --      0.0944                 0.0713                 0.1526
 IR Inten    --      0.7969                 0.1445                23.7710

                     19                     20                     21
                      A                      A                      A
 Frequencies --    347.9180               353.4485               364.1027
 Red. masses --      2.5820                 1.3202                 1.4512
 Frc consts  --      0.1841                 0.0972                 0.1134
 IR Inten    --      2.2124                14.0478                 2.6503

                     22                     23                     24
                      A                      A                      A
 Frequencies --    366.7548               394.1370               399.6325
 Red. masses --      2.3694                 2.6158                 3.3141
 Frc consts  --      0.1878                 0.2394                 0.3118
 IR Inten    --      0.6094                 2.4216                 2.9353

                     25                     26                     27
                      A                      A                      A
 Frequencies --    414.8132               426.0446               441.1807
 Red. masses --      2.2289                 2.6767                 3.0101
 Frc consts  --      0.2260                 0.2863                 0.3452
 IR Inten    --      0.6733                 0.4558                 2.5076

                     28                     29                     30
                      A                      A                      A
 Frequencies --    480.3645               490.0963               553.7037
 Red. masses --      3.5229                 3.1698                 2.8608
 Frc consts  --      0.4789                 0.4486                 0.5168
 IR Inten    --      4.0116                12.9801                 4.8063

                     31                     32                     33
                      A                      A                      A
 Frequencies --    575.7399               625.5796               638.4360
 Red. masses --      4.0342                 5.0525                 5.8945
 Frc consts  --      0.7879                 1.1650                 1.4156
 IR Inten    --     12.2036                 6.5366                 0.1904

                     34                     35                     36
                      A                      A                      A
 Frequencies --    663.2381               684.4092               711.0448
 Red. masses --      5.9122                 4.2988                 4.3613
 Frc consts  --      1.5323                 1.1864                 1.2992
 IR Inten    --      6.8975                 2.4838                21.3757

                     37                     38                     39
                      A                      A                      A
 Frequencies --    721.0142               738.6462               763.7208
 Red. masses --      2.0547                 1.9143                 3.5090
 Frc consts  --      0.6293                 0.6154                 1.2059
 IR Inten    --     22.7173               230.8081                64.3652

                     40                     41                     42
                      A                      A                      A
 Frequencies --    778.6956               787.3176               799.4254
 Red. masses --      2.9100                 1.5778                 2.1546
 Frc consts  --      1.0396                 0.5762                 0.8113
 IR Inten    --     36.7336                 0.8465                32.2135

                     43                     44                     45
                      A                      A                      A
 Frequencies --    847.5065               871.7147               874.6161
 Red. masses --      2.8055                 1.4044                 2.2293
 Frc consts  --      1.1873                 0.6288                 1.0048
 IR Inten    --      9.1548                 2.6504                 3.2785

                     46                     47                     48
                      A                      A                      A
 Frequencies --    925.8489               939.4350               942.7182
 Red. masses --      1.4485                 1.7472                 1.4387
 Frc consts  --      0.7316                 0.9085                 0.7533
 IR Inten    --      5.5338                 0.6655                 3.0078

                     49                     50                     51
                      A                      A                      A
 Frequencies --    949.3575               963.3767               982.6440
 Red. masses --      1.8016                 2.8080                 1.3327
 Frc consts  --      0.9567                 1.5355                 0.7582
 IR Inten    --      1.8722                 7.4077                 0.4787

                     52                     53                     54
                      A                      A                      A
 Frequencies --    983.7171              1001.6255              1010.3961
 Red. masses --      1.1969                 1.2453                 4.1886
 Frc consts  --      0.6824                 0.7361                 2.5194
 IR Inten    --      0.2360                 0.9138                 2.8129

                     55                     56                     57
                      A                      A                      A
 Frequencies --   1020.3577              1054.1859              1059.1453
 Red. masses --      6.0900                 1.7692                 2.1589
 Frc consts  --      3.7357                 1.1584                 1.4269
 IR Inten    --      0.0677                 3.3875                 6.8933

                     58                     59                     60
                      A                      A                      A
 Frequencies --   1070.6229              1077.8832              1108.5739
 Red. masses --      1.5340                 1.8447                 2.1751
 Frc consts  --      1.0360                 1.2627                 1.5749
 IR Inten    --      1.7787                 5.2594                 4.4060

                     61                     62                     63
                      A                      A                      A
 Frequencies --   1113.5225              1123.6825              1146.9045
 Red. masses --      1.6217                 2.0120                 2.5017
 Frc consts  --      1.1848                 1.4968                 1.9388
 IR Inten    --      5.5853                 3.3766                17.5435

                     64                     65                     66
                      A                      A                      A
 Frequencies --   1181.1019              1194.8318              1214.6557
 Red. masses --      2.5177                 1.0986                 1.1729
 Frc consts  --      2.0693                 0.9241                 1.0196
 IR Inten    --      4.4258                 0.0400                 3.2522

                     67                     68                     69
                      A                      A                      A
 Frequencies --   1229.4585              1244.5386              1255.7991
 Red. masses --      2.9560                 2.7452                 3.4404
 Frc consts  --      2.6326                 2.5052                 3.1967
 IR Inten    --     59.7135                27.4866               180.1937

                     70                     71                     72
                      A                      A                      A
 Frequencies --   1276.2604              1300.4854              1318.1995
 Red. masses --      2.8461                 2.4470                 1.3907
 Frc consts  --      2.7313                 2.4383                 1.4238
 IR Inten    --      4.8740                19.1623                11.1435

                     73                     74                     75
                      A                      A                      A
 Frequencies --   1320.9108              1345.2541              1362.0619
 Red. masses --      2.4695                 2.9721                 1.4567
 Frc consts  --      2.5387                 3.1690                 1.5923
 IR Inten    --     26.1985                 5.6174                16.0447

                     76                     77                     78
                      A                      A                      A
 Frequencies --   1372.0671              1404.7301              1411.2724
 Red. masses --      1.8660                 1.2909                 1.3360
 Frc consts  --      2.0697                 1.5008                 1.5678
 IR Inten    --      1.5423                 4.6089                 6.8694

                     79                     80                     81
                      A                      A                      A
 Frequencies --   1421.4355              1424.4243              1446.5264
 Red. masses --      1.2476                 1.2590                 1.2750
 Frc consts  --      1.4852                 1.5050                 1.5718
 IR Inten    --     11.2616                16.7656                11.1150

                     82                     83                     84
                      A                      A                      A
 Frequencies --   1452.7483              1459.2056              1497.4306
 Red. masses --      1.2347                 3.3898                 2.2298
 Frc consts  --      1.5353                 4.2527                 2.9459
 IR Inten    --     26.6545                61.1265                 9.2814

                     85                     86                     87
                      A                      A                      A
 Frequencies --   1503.4892              1509.6481              1513.8518
 Red. masses --      1.0596                 1.0766                 1.0909
 Frc consts  --      1.4112                 1.4457                 1.4730
 IR Inten    --      2.1529                 3.0649                 4.4379

                     88                     89                     90
                      A                      A                      A
 Frequencies --   1525.0449              1526.9941              1530.0644
 Red. masses --      1.0498                 1.0572                 1.0487
 Frc consts  --      1.4385                 1.4523                 1.4465
 IR Inten    --      3.0460                14.2690                 3.7231

                     91                     92                     93
                      A                      A                      A
 Frequencies --   1533.2471              1536.3410              1543.4794
 Red. masses --      1.0535                 1.0574                 1.0560
 Frc consts  --      1.4592                 1.4705                 1.4822
 IR Inten    --     14.8652                13.2926                 4.9850

                     94                     95                     96
                      A                      A                      A
 Frequencies --   1549.3552              1562.7356              1633.0692
 Red. masses --      2.3957                 1.0550                 5.1943
 Frc consts  --      3.3883                 1.5180                 8.1618
 IR Inten    --      6.5095                11.4921                 2.5532

                     97                     98                     99
                      A                      A                      A
 Frequencies --   1652.8437              1664.7679              1726.4411
 Red. masses --      1.2440                 5.4450                 7.5560
 Frc consts  --      2.0024                 8.8912                13.2692
 IR Inten    --    130.8100                 6.5358                33.2698

                    100                    101                    102
                      A                      A                      A
 Frequencies --   1758.8296              3036.5827              3047.8819
 Red. masses --      8.5779                 1.0664                 1.0433
 Frc consts  --     15.6342                 5.7932                 5.7101
 IR Inten    --    433.4311                26.2171                24.3921

                    103                    104                    105
                      A                      A                      A
 Frequencies --   3055.2184              3058.3058              3066.5491
 Red. masses --      1.0363                 1.0382                 1.0369
 Frc consts  --      5.6995                 5.7211                 5.7452
 IR Inten    --     24.4058                16.5144                25.7298

                    106                    107                    108
                      A                      A                      A
 Frequencies --   3080.8662              3104.9195              3108.0610
 Red. masses --      1.0941                 1.0985                 1.0707
 Frc consts  --      6.1185                 6.2396                 6.0937
 IR Inten    --     16.4906                41.5835                36.0026

                    109                    110                    111
                      A                      A                      A
 Frequencies --   3119.7496              3120.9372              3130.6320
 Red. masses --      1.1025                 1.1026                 1.1016
 Frc consts  --      6.3223                 6.3276                 6.3615
 IR Inten    --      7.6753                13.0596                77.5932

                    112                    113                    114
                      A                      A                      A
 Frequencies --   3148.5509              3150.7876              3162.9161
 Red. masses --      1.1030                 1.1014                 1.0967
 Frc consts  --      6.4422                 6.4425                 6.4639
 IR Inten    --     21.0043                 7.6577                17.4546

                    115                    116                    117
                      A                      A                      A
 Frequencies --   3176.9615              3184.9972              3187.5319
 Red. masses --      1.0953                 1.0851                 1.0981
 Frc consts  --      6.5135                 6.4853                 6.5733
 IR Inten    --     22.9171                 1.9237                 1.6443

                    118                    119                    120
                      A                      A                      A
 Frequencies --   3192.7901              3203.8579              3209.8521
 Red. masses --      1.0882                 1.0914                 1.0939
 Frc consts  --      6.5360                 6.6006                 6.6403
 IR Inten    --      9.0015                16.5661                19.0720

                    121                    122                    123
                      A                      A                      A
 Frequencies --   3215.3268              3498.8362              3611.0682
 Red. masses --      1.0977                 1.0482                 1.0966
 Frc consts  --      6.6863                 7.5600                 8.4252
 IR Inten    --     16.2896                20.4475                18.4539

 - Thermochemistry -
 -------------------
 Temperature   298.150 Kelvin.  Pressure   1.00000 Atm.
 Atom     1 has atomic number  6 and mass  12.00000

 Molecular mass:   273.18411 amu.
 Principal axes and moments of inertia in atomic units:
                           1         2         3
     Eigenvalues --  3132.549047646.328508069.71342
           X            0.99987  -0.01442   0.00659
           Y            0.01415   0.99911   0.03967
           Z           -0.00715  -0.03957   0.99919
 This molecule is an asymmetric top.
 Rotational symmetry number  1.
 Warning -- assumption of classical behavior for rotation
           may cause significant error
 Rotational temperatures (Kelvin)      0.02765     0.01133     0.01073
 Rotational constants (GHZ):           0.57613     0.23603     0.22364
 Zero-point vibrational energy     980931.3 (Joules/Mol)
                                  234.44822 (Kcal/Mol)
 Warning -- explicit consideration of  31 degrees of freedom as
           vibrations may cause significant error
 Vibrational temperatures:     27.04    58.05    82.85    99.66   109.24
          (Kelvin)            140.33   152.41   175.09   289.46   302.54
                              325.46   338.59   346.11   381.65   391.29
                              407.24   419.81   463.49   500.58   508.53
                              523.86   527.68   567.08   574.98   596.82
                              612.98   634.76   691.14   705.14   796.66
                              828.36   900.07   918.57   954.25   984.71
                             1023.03  1037.38  1062.75  1098.82  1120.37
                             1132.77  1150.19  1219.37  1254.20  1258.38
                             1332.09  1351.64  1356.36  1365.91  1386.08
                             1413.81  1415.35  1441.12  1453.73  1468.07
                             1516.74  1523.87  1540.39  1550.83  1594.99
                             1602.11  1616.73  1650.14  1699.34  1719.10
                             1747.62  1768.92  1790.61  1806.81  1836.25
                             1871.11  1896.60  1900.50  1935.52  1959.70
                             1974.10  2021.09  2030.51  2045.13  2049.43
                             2081.23  2090.18  2099.47  2154.47  2163.19
                             2172.05  2178.10  2194.20  2197.00  2201.42
                             2206.00  2210.45  2220.72  2229.18  2248.43
                             2349.62  2378.07  2395.23  2483.96  2530.56
                             4368.97  4385.22  4395.78  4400.22  4412.08
                             4432.68  4467.29  4471.81  4488.62  4490.33
                             4504.28  4530.06  4533.28  4550.73  4570.94
                             4582.50  4586.15  4593.71  4609.64  4618.26
                             4626.14  5034.04  5195.52

 Zero-point correction=                           0.373617 (Hartree/Particle)
 Thermal correction to Energy=                    0.393554
 Thermal correction to Enthalpy=                  0.394498
 Thermal correction to Gibbs Free Energy=         0.325330
 Sum of electronic and zero-point Energies=           -862.737201
 Sum of electronic and thermal Energies=              -862.717264
 Sum of electronic and thermal Enthalpies=            -862.716320
 Sum of electronic and thermal Free Energies=         -862.785488

                     E (Thermal)             CV                S
                      KCal/Mol        Cal/Mol-Kelvin    Cal/Mol-Kelvin
 Total                  246.959             77.976            145.578
 Electronic               0.000              0.000              0.000
 Translational            0.889              2.981             42.714
 Rotational               0.889              2.981             33.624
 Vibrational            245.181             72.014             69.240
 Vibration     1          0.593              1.986              6.757
 Vibration     2          0.594              1.981              5.242
 Vibration     3          0.596              1.974              4.538
 Vibration     4          0.598              1.969              4.174
 Vibration     5          0.599              1.965              3.994
 Vibration     6          0.603              1.951              3.503
 Vibration     7          0.605              1.944              3.342
 Vibration     8          0.609              1.931              3.073
 Vibration     9          0.638              1.838              2.122
 Vibration    10          0.642              1.825              2.041
 Vibration    11          0.650              1.801              1.909
 Vibration    12          0.655              1.787              1.838
 Vibration    13          0.658              1.778              1.799
 Vibration    14          0.671              1.737              1.627
 Vibration    15          0.675              1.725              1.584
 Vibration    16          0.682              1.705              1.515
 Vibration    17          0.687              1.689              1.464
 Vibration    18          0.707              1.631              1.299
 Vibration    19          0.726              1.580              1.176
 Vibration    20          0.730              1.568              1.151
 Vibration    21          0.738              1.546              1.105
 Vibration    22          0.740              1.541              1.093
 Vibration    23          0.761              1.483              0.984
 Vibration    24          0.766              1.471              0.964
 Vibration    25          0.778              1.438              0.910
 Vibration    26          0.788              1.414              0.872
 Vibration    27          0.801              1.380              0.823
 Vibration    28          0.837              1.294              0.709
 Vibration    29          0.846              1.272              0.683
 Vibration    30          0.909              1.132              0.537
 Vibration    31          0.932              1.084              0.493

 Optimization completed.
    -- Stationary point found.
 Normal termination of Gaussian 16 at Mon Dec 14 14:21:14 2020.

 ----------------------------------------------------------------------
 # B3LYP/6-311++G(d,p) empiricaldispersion=gd3bj scf=xqc pop=npa geom=c
 heck
 ----------------------------------------------------------------------

 ---------------------------------------
 CID_61273160_JID_10371_Energie_neutraal
 ---------------------------------------
 Structure from the checkpoint file:  "JID_10371.chk"
 Charge =  0 Multiplicity = 1

 SCF Done:  E(RB3LYP) =  -863.347889828     A.U. after   17 cycles
 Normal termination of Gaussian 16 at Mon Dec 14 14:33:29 2020.

 ----------------------------------------------------------------------
 # B3LYP/6-311++G(d,p) empiricaldispersion=gd3bj scf=xqc pop=npa geom=c
 heck
 ----------------------------------------------------------------------

 -------------------------------------
 CID_61273160_JID_10371_Energie_kation
 -------------------------------------
 Structure from the checkpoint file:  "JID_10371.chk"
 Charge =  1 Multiplicity = 2

 SCF Done:  E(UB3LYP) =  -863.085667857     A.U. after   24 cycles
 Normal termination of Gaussian 16 at Mon Dec 14 14:56:31 2020.
 Gaussian 16:  ES64L-G16RevA.03 25-Dec-2016

 ----------------------------------------------------------------------
 # B3LYP/6-311++G(d,p) empiricaldispersion=gd3bj scf=xqc pop=npa geom=c
 heck
 ----------------------------------------------------------------------

 ------------------------------------
 CID_61273160_JID_10371_Energie_anion
 ------------------------------------
 Structure from the checkpoint file:  "JID_10371.chk"
 Charge = -1 Multiplicity = 2

                         Standard orientation:
 ---------------------------------------------------------------------
 Center     Atomic      Atomic             Coordinates (Angstroms)
 Number     Number       Type             X           Y           Z
 ---------------------------------------------------------------------
      1          6           0        1.321507   -1.191863   -2.855218
      2          6           0        0.006889   -1.528795   -2.143768
      3          6           0        0.109076   -1.784622   -0.634259
      4          7           0        0.326718   -0.598133    0.245951
      5          6           0       -0.664920    0.409175    0.057926
      6          6           0       -0.079988    1.588682   -0.278125
      7          6           0        1.367588    1.395703   -0.243441
      8          8           0        2.212896    2.289774   -0.320578
      9          7           0        1.586066    0.039438    0.010609
     10          6           0        2.741030   -0.359155    0.885488
     11          6           0        4.038165   -0.023922    0.134092
     12          6           0        2.644320    0.413086    2.212618
     13          6           0        2.716965   -1.863157    1.175984
     14          7           0       -0.592811    2.853258   -0.524800
     15          6           0       -2.080432    0.104231    0.246691
     16          6           0       -3.059269    0.793774   -0.491313
     17          6           0       -4.411991    0.525212   -0.294488
     18          6           0       -4.811445   -0.436450    0.635353
     19          6           0       -3.846714   -1.127781    1.372192
     20          6           0       -2.494055   -0.859468    1.183825
     21          1           0        1.703279   -0.211248   -2.567076
     22          1           0        1.180803   -1.197580   -3.942184
     23          1           0        2.096627   -1.930894   -2.616107
     24          1           0       -0.734976   -0.742762   -2.328687
     25          1           0       -0.409357   -2.446895   -2.580884
     26          1           0       -0.824611   -2.230318   -0.282060
     27          1           0        0.902253   -2.500725   -0.425389
     28          1           0        4.108062    1.043824   -0.070141
     29          1           0        4.896778   -0.334598    0.739867
     30          1           0        4.072303   -0.565490   -0.817227
     31          1           0        1.699407    0.178417    2.715176
     32          1           0        3.467993    0.131872    2.877603
     33          1           0        2.696285    1.490187    2.036581
     34          1           0        1.786358   -2.169187    1.660318
     35          1           0        2.864790   -2.453905    0.267013
     36          1           0        3.544604   -2.091615    1.854948
     37          1           0       -1.440228    3.075911   -0.014311
     38          1           0        0.130843    3.556981   -0.395846
     39          1           0       -2.749201    1.521526   -1.235224
     40          1           0       -5.156092    1.061750   -0.876517
     41          1           0       -5.866590   -0.645432    0.785962
     42          1           0       -4.150682   -1.872482    2.102545
     43          1           0       -1.741990   -1.375369    1.772608
 ---------------------------------------------------------------------

 SCF Done:  E(UB3LYP) =  -863.350228470     A.U. after   32 cycles

 The electronic state is 2-A.
 Alpha  occ. eigenvalues --  -18.93796 -14.22250 -14.21784 -14.18130 -10.10868
 Alpha  occ. eigenvalues --  -10.10656 -10.07738 -10.06068 -10.05420 -10.04930
 Alpha  occ. eigenvalues --  -10.04894 -10.04709 -10.04693 -10.04415 -10.03708
 Alpha  occ. eigenvalues --  -10.03616 -10.02991 -10.02825 -10.02802 -10.02248
 Alpha  occ. eigenvalues --   -0.90737  -0.86013  -0.77522  -0.74012  -0.71447
 Alpha  occ. eigenvalues --   -0.68332  -0.65198  -0.62928  -0.60790  -0.59424
 Alpha  occ. eigenvalues --   -0.58519  -0.58114  -0.55171  -0.50029  -0.47716
 Alpha  occ. eigenvalues --   -0.47197  -0.45894  -0.43632  -0.41725  -0.38586
 Alpha  occ. eigenvalues --   -0.37523  -0.37082  -0.35700  -0.34018  -0.33695
 Alpha  occ. eigenvalues --   -0.33167  -0.32630  -0.32255  -0.31121  -0.30475
 Alpha  occ. eigenvalues --   -0.29763  -0.28732  -0.28639  -0.28602  -0.27910
 Alpha  occ. eigenvalues --   -0.26722  -0.26445  -0.26079  -0.25369  -0.25034
 Alpha  occ. eigenvalues --   -0.24104  -0.23584  -0.23042  -0.22697  -0.22224
 Alpha  occ. eigenvalues --   -0.21287  -0.20588  -0.19465  -0.18245  -0.13755
 Alpha  occ. eigenvalues --   -0.12323  -0.11318  -0.09799  -0.06137   0.05058
 Alpha virt. eigenvalues --    0.07271   0.08236   0.08645   0.09353   0.09805
 Alpha virt. eigenvalues --    0.10075   0.10335   0.10950   0.11176   0.11510
 Alpha virt. eigenvalues --    0.11887   0.12406   0.12991   0.13350   0.13523

  Beta  occ. eigenvalues --  -18.93606 -14.22192 -14.21690 -14.18102 -10.10829
  Beta  occ. eigenvalues --  -10.10500 -10.07719 -10.06068 -10.05420 -10.04894
  Beta  occ. eigenvalues --  -10.04761 -10.04703 -10.04694 -10.04267 -10.03762
  Beta  occ. eigenvalues --  -10.03659 -10.02799 -10.02685 -10.02655 -10.01905
  Beta  occ. eigenvalues --   -0.90470  -0.85729  -0.77372  -0.73839  -0.71120
  Beta  occ. eigenvalues --   -0.68260  -0.64991  -0.62610  -0.60513  -0.59051
  Beta  occ. eigenvalues --   -0.58495  -0.58099  -0.55048  -0.49489  -0.47641
  Beta  occ. eigenvalues --   -0.47071  -0.45654  -0.43415  -0.41567  -0.38463
  Beta  occ. eigenvalues --   -0.37384  -0.36965  -0.35544  -0.33873  -0.33657
  Beta  occ. eigenvalues --   -0.33050  -0.32456  -0.32162  -0.30961  -0.30308
  Beta  occ. eigenvalues --   -0.29619  -0.28631  -0.28579  -0.28479  -0.27823
  Beta  occ. eigenvalues --   -0.26508  -0.26249  -0.25995  -0.25070  -0.24902
  Beta  occ. eigenvalues --   -0.23695  -0.23458  -0.22822  -0.22329  -0.22082
  Beta  occ. eigenvalues --   -0.21074  -0.20469  -0.18714  -0.17852  -0.12573
  Beta  occ. eigenvalues --   -0.11549  -0.10919  -0.08904  -0.04987
  Beta virt. eigenvalues --    0.07207   0.08186   0.08591   0.09279   0.09696
  Beta virt. eigenvalues --    0.10003   0.10169   0.10432   0.10919   0.11131
  Beta virt. eigenvalues --    0.11491   0.12088   0.12373   0.12934   0.13333

 Mulliken charges and spin densities:
               1          2
     1  C   -0.559679  -0.004498
     2  C   -0.411465  -0.008938
     3  C   -0.148894   0.003595
     4  N    0.668858   0.007229
     5  C    0.373108   0.093680
     6  C   -0.382417   0.053944
     7  C   -0.544312   0.126002
     8  O   -0.398098   0.068954
     9  N    0.067308   0.076110
    10  C   -0.203616  -0.046866
    11  C   -0.419667   0.003355
    12  C   -0.441616  -0.005328
    13  C   -0.432383   0.005556
    14  N   -0.419168   0.032698
    15  C    0.421766   0.056880
    16  C   -0.195425   0.134850
    17  C   -0.478125  -0.020312
    18  C   -0.363941   0.265206
    19  C   -0.423155  -0.024121
    20  C   -0.065179   0.154132
    21  H    0.221137   0.000487
    22  H    0.120491   0.002079
    23  H    0.108264   0.001760
    24  H    0.164176  -0.002278
    25  H    0.119305   0.020341
    26  H    0.135965   0.003208
    27  H    0.088162   0.000665
    28  H    0.206780  -0.001008
    29  H    0.130820   0.001567
    30  H    0.095909   0.000886
    31  H    0.147412  -0.001524
    32  H    0.110364   0.015033
    33  H    0.171079   0.015369
    34  H    0.160116   0.000216
    35  H    0.136503  -0.000525
    36  H    0.128336   0.001711
    37  H    0.226038   0.000048
    38  H    0.244555   0.000249
    39  H    0.175151  -0.005804
    40  H    0.120584   0.002140
    41  H    0.090737  -0.022155
    42  H    0.125971   0.003205
    43  H    0.128247  -0.007800
 Sum of Mulliken charges =  -1.00000   1.00000

 Dipole moment (field-independent basis, Debye):
    X=              2.9756    Y=             -3.5248    Z=              0.5615  Tot=              4.6469
 Quadrupole moment (field-independent basis, Debye-Ang):
   XX=           -174.8180   YY=           -141.4513   ZZ=           -138.6980
   XY=            -11.6983   XZ=              4.8945   YZ=              2.5259

 Summary of Natural Population Analysis:

                                       Natural Population
                Natural  -----------------------------------------------
    Atom  No    Charge         Core      Valence    Rydberg      Total
 -----------------------------------------------------------------------
      C    1   -0.28575      0.99967     2.28154    0.00454     3.28575
      C    2   -0.20055      0.99964     2.19483    0.00609     3.20055
      C    3   -0.08153      0.99959     2.07271    0.00923     3.08153
      N    4   -0.15498      0.99969     2.64175    0.01354     3.65498
      C    5    0.09608      0.99943     1.88980    0.01469     2.90392
      C    6    0.04315      0.99934     1.94681    0.01070     2.95685
      C    7    0.33287      0.99957     1.64379    0.02377     2.66713
      O    8   -0.33766      0.99988     3.33155    0.00623     4.33766
      N    9   -0.17358      0.99961     2.65887    0.01509     3.67358
      C   10    0.07257      0.99959     1.91537    0.01247     2.92743
      C   11   -0.29182      0.99961     2.28650    0.00571     3.29182
      C   12   -0.29658      0.99962     2.29149    0.00547     3.29658
      C   13   -0.29035      0.99962     2.28508    0.00565     3.29035
      N   14   -0.40334      0.99972     2.89324    0.01039     3.90334
      C   15   -0.01685      0.99948     2.00760    0.00977     3.01685
      C   16   -0.07222      0.99954     2.06473    0.00795     3.07222
      C   17   -0.12078      0.99958     2.11187    0.00934     3.12078
      C   18   -0.05066      0.99957     2.04099    0.01009     3.05066
      C   19   -0.12261      0.99957     2.11363    0.00940     3.12261
      C   20   -0.07065      0.99954     2.06290    0.00821     3.07065
      H   21    0.10993      0.00000     0.38924    0.00082     0.39007
      H   22    0.08972      0.00000     0.40932    0.00096     0.41028
      H   23    0.08830      0.00000     0.41062    0.00108     0.41170
      H   24    0.10713      0.00000     0.39183    0.00104     0.39287
      H   25    0.08846      0.00000     0.40979    0.00175     0.41154
      H   26    0.10404      0.00000     0.39500    0.00096     0.39596
      H   27    0.09002      0.00000     0.40900    0.00098     0.40998
      H   28    0.12219      0.00000     0.37688    0.00093     0.37781
      H   29    0.08908      0.00000     0.41012    0.00079     0.41092
      H   30    0.09818      0.00000     0.40090    0.00092     0.40182
      H   31    0.10341      0.00000     0.39575    0.00084     0.39659
      H   32    0.09097      0.00000     0.40811    0.00092     0.40903
      H   33    0.11246      0.00000     0.38666    0.00088     0.38754
      H   34    0.10788      0.00000     0.39114    0.00098     0.39212
      H   35    0.09759      0.00000     0.40151    0.00090     0.40241
      H   36    0.09626      0.00000     0.40295    0.00079     0.40374
      H   37    0.18252      0.00000     0.31593    0.00155     0.31748
      H   38    0.18760      0.00000     0.31053    0.00187     0.31240
      H   39    0.09816      0.00000     0.40030    0.00154     0.40184
      H   40    0.09022      0.00000     0.40875    0.00103     0.40978
      H   41    0.08553      0.00000     0.41341    0.00106     0.41447
      H   42    0.09005      0.00000     0.40893    0.00103     0.40995
      H   43    0.09555      0.00000     0.40290    0.00155     0.40445
 =======================================================================
   * Total *    0.00000     19.99185    53.78461    0.22353    74.00000

 Normal termination of Gaussian 16 at Mon Dec 14 15:26:40 2020.
