 Gaussian 16, Revision A.03,

 -----------------------------------------------------------
 # opt freq B3LYP/6-31G(d) empiricaldispersion=gd3bj scf=xqc
 -----------------------------------------------------------

 ------------------------------
 CID_90049515_JID_6782_neutraal
 ------------------------------
 Symbolic Z-matrix:
 Charge =  0 Multiplicity = 1

 SCF Done:  E(RB3LYP) =  -835.820163143     A.U. after   15 cycles
 SCF Done:  E(RB3LYP) =  -835.824869337     A.U. after   12 cycles
 SCF Done:  E(RB3LYP) =  -835.825143887     A.U. after   13 cycles
 SCF Done:  E(RB3LYP) =  -835.826428742     A.U. after   12 cycles
 SCF Done:  E(RB3LYP) =  -835.826679928     A.U. after   11 cycles
 SCF Done:  E(RB3LYP) =  -835.826945847     A.U. after   13 cycles
 SCF Done:  E(RB3LYP) =  -835.827512280     A.U. after   12 cycles
 SCF Done:  E(RB3LYP) =  -835.828241776     A.U. after   12 cycles
 SCF Done:  E(RB3LYP) =  -835.828824498     A.U. after   15 cycles
 SCF Done:  E(RB3LYP) =  -835.829176091     A.U. after   12 cycles
 SCF Done:  E(RB3LYP) =  -835.829843601     A.U. after    8 cycles
 SCF Done:  E(RB3LYP) =  -835.829843702     A.U. after    7 cycles
 SCF Done:  E(RB3LYP) =  -835.829843888     A.U. after    8 cycles
 SCF Done:  E(RB3LYP) =  -835.829843983     A.U. after    8 cycles
 SCF Done:  E(RB3LYP) =  -835.829843998     A.U. after    7 cycles
 Optimization completed.
    -- Stationary point found.
 Normal termination of Gaussian 16 at Fri Dec 11 00:44:29 2020.

 --------------------------------------------------------------------
 #N Geom=AllCheck Guess=TCheck SCRF=Check GenChk RB3LYP/6-31G(d) Freq
 --------------------------------------------------------------------

 Structure from the checkpoint file:  "JID_6782.chk"
 ------------------------------
 CID_90049515_JID_6782_neutraal
 ------------------------------
 Charge =  0 Multiplicity = 1

 SCF Done:  E(RB3LYP) =  -835.829843998     A.U. after    1 cycles

  Exact polarizability: 148.903   0.298 113.280   0.181   2.777  91.308
 Approx polarizability: 193.154  -2.569 184.868   2.990  10.282 138.805

                      1                      2                      3
                      A                      A                      A
 Frequencies --     15.1157                26.8182                34.0623
 Red. masses --      6.5197                 6.9964                 4.7979
 Frc consts  --      0.0009                 0.0030                 0.0033
 IR Inten    --      1.6730                 0.1046                 2.2956

                      4                      5                      6
                      A                      A                      A
 Frequencies --     50.8073                62.1213                68.5460
 Red. masses --      3.9468                 1.5426                 3.6136
 Frc consts  --      0.0060                 0.0035                 0.0100
 IR Inten    --      1.9483                 1.0620                 2.9376

                      7                      8                      9
                      A                      A                      A
 Frequencies --     90.8791               120.5466               134.7011
 Red. masses --      5.3349                 3.2227                 1.5135
 Frc consts  --      0.0260                 0.0276                 0.0162
 IR Inten    --      0.6196                 3.6295                 0.9948

                     10                     11                     12
                      A                      A                      A
 Frequencies --    159.4339               195.5267               222.9394
 Red. masses --      3.4161                 5.3211                 2.1690
 Frc consts  --      0.0512                 0.1199                 0.0635
 IR Inten    --      0.1446                 0.4710                 3.7020

                     13                     14                     15
                      A                      A                      A
 Frequencies --    261.3494               291.3780               336.0877
 Red. masses --      3.3626                 4.9986                 5.5700
 Frc consts  --      0.1353                 0.2500                 0.3707
 IR Inten    --      4.0150                 0.9828                 3.1894

                     16                     17                     18
                      A                      A                      A
 Frequencies --    375.2314               398.9233               412.8142
 Red. masses --      3.4391                 2.8066                 2.8902
 Frc consts  --      0.2853                 0.2632                 0.2902
 IR Inten    --      2.8808                26.8106                 1.4002

                     19                     20                     21
                      A                      A                      A
 Frequencies --    435.9543               528.0369               561.1457
 Red. masses --      3.1337                 2.8385                 4.9330
 Frc consts  --      0.3509                 0.4663                 0.9152
 IR Inten    --      3.8562                28.7371                 5.3731

                     22                     23                     24
                      A                      A                      A
 Frequencies --    607.4721               614.2756               639.3085
 Red. masses --      2.8462                 5.1227                 2.9646
 Frc consts  --      0.6188                 1.1389                 0.7139
 IR Inten    --     44.5933                 8.3910                25.4857

                     25                     26                     27
                      A                      A                      A
 Frequencies --    687.5283               699.8740               747.8827
 Red. masses --      3.0935                 3.3086                 8.8679
 Frc consts  --      0.8615                 0.9548                 2.9224
 IR Inten    --     24.2194                55.6981                 5.2298

                     28                     29                     30
                      A                      A                      A
 Frequencies --    774.1316               819.6002               826.2453
 Red. masses --      5.7648                 4.4307                 2.6224
 Frc consts  --      2.0355                 1.7536                 1.0548
 IR Inten    --     44.3943                 9.7887                11.6043

                     31                     32                     33
                      A                      A                      A
 Frequencies --    862.1854               892.6517               944.3797
 Red. masses --      1.5952                 4.4658                 5.2664
 Frc consts  --      0.6987                 2.0966                 2.7673
 IR Inten    --     27.7423                16.1031                26.8429

                     34                     35                     36
                      A                      A                      A
 Frequencies --    962.9909               987.3061              1002.0922
 Red. masses --      2.4138                 4.1752                 3.1065
 Frc consts  --      1.3188                 2.3979                 1.8380
 IR Inten    --      5.9271                61.8859                 3.9263

                     37                     38                     39
                      A                      A                      A
 Frequencies --   1025.8772              1043.2873              1087.4317
 Red. masses --      3.2562                 4.5503                 3.1949
 Frc consts  --      2.0191                 2.9181                 2.2259
 IR Inten    --     12.1035                 2.2184                34.1764

                     40                     41                     42
                      A                      A                      A
 Frequencies --   1096.7070              1141.1421              1144.3986
 Red. masses --      1.3673                 1.7263                 1.2238
 Frc consts  --      0.9690                 1.3245                 0.9443
 IR Inten    --      4.1116                72.5474                 0.5669

                     43                     44                     45
                      A                      A                      A
 Frequencies --   1167.5270              1190.6186              1217.3062
 Red. masses --      1.7139                 1.3813                 2.9143
 Frc consts  --      1.3764                 1.1537                 2.5444
 IR Inten    --     65.1697                27.9380               465.5361

                     46                     47                     48
                      A                      A                      A
 Frequencies --   1249.6712              1264.9256              1302.6040
 Red. masses --      1.4327                 2.0391                 5.9140
 Frc consts  --      1.3182                 1.9223                 5.9123
 IR Inten    --     90.8005                15.1501                48.9001

                     49                     50                     51
                      A                      A                      A
 Frequencies --   1329.8548              1350.3003              1381.0542
 Red. masses --      1.4278                 1.5851                 2.4630
 Frc consts  --      1.4877                 1.7028                 2.7678
 IR Inten    --      3.1513                 9.3198                49.0128

                     52                     53                     54
                      A                      A                      A
 Frequencies --   1409.1776              1454.4343              1462.1846
 Red. masses --      1.4527                 1.6837                 1.3433
 Frc consts  --      1.6997                 2.0985                 1.6921
 IR Inten    --     66.4204               104.4949                65.0691

                     55                     56                     57
                      A                      A                      A
 Frequencies --   1472.1247              1489.4322              1490.8943
 Red. masses --      4.7172                 1.1304                 1.1837
 Frc consts  --      6.0231                 1.4775                 1.5502
 IR Inten    --     65.0926                 4.9046                15.0420

                     58                     59                     60
                      A                      A                      A
 Frequencies --   1501.8172              1519.3052              1522.6852
 Red. masses --      1.1938                 1.0453                 6.7838
 Frc consts  --      1.5864                 1.4216                 9.2671
 IR Inten    --     78.8785                 3.7873                 1.7895

                     61                     62                     63
                      A                      A                      A
 Frequencies --   1530.3462              1531.7031              1568.8209
 Red. masses --      1.0463                 1.0491                 1.2966
 Frc consts  --      1.4437                 1.4502                 1.8803
 IR Inten    --     17.8602                14.1060                65.9853

                     64                     65                     66
                      A                      A                      A
 Frequencies --   1658.1756              1796.9175              1863.9941
 Red. masses --      7.5876                 9.8768                 9.7414
 Frc consts  --     12.2919                18.7897                19.9417
 IR Inten    --     23.3535               404.3711               324.4809

                     67                     68                     69
                      A                      A                      A
 Frequencies --   3030.8438              3037.7984              3067.2433
 Red. masses --      1.0423                 1.0434                 1.0675
 Frc consts  --      5.6414                 5.6729                 5.9173
 IR Inten    --     29.0673               104.0293                 4.6900

                     70                     71                     72
                      A                      A                      A
 Frequencies --   3083.5686              3086.0043              3115.0947
 Red. masses --      1.1009                 1.1020                 1.0574
 Frc consts  --      6.1672                 6.1834                 6.0455
 IR Inten    --     66.8165                 1.4341                15.9445

                     73                     74                     75
                      A                      A                      A
 Frequencies --   3164.7395              3173.7202              3195.2511
 Red. masses --      1.0964                 1.1097                 1.0965
 Frc consts  --      6.4698                 6.5856                 6.5957
 IR Inten    --      0.9215                 2.6255                 0.9958

                     76                     77                     78
                      A                      A                      A
 Frequencies --   3207.7936              3324.4753              3686.5248
 Red. masses --      1.0952                 1.0989                 1.0641
 Frc consts  --      6.6398                 7.1557                 8.5202
 IR Inten    --      2.8161                 3.6436                53.0144

 - Thermochemistry -
 -------------------
 Temperature   298.150 Kelvin.  Pressure   1.00000 Atm.
 Atom     1 has atomic number  6 and mass  12.00000

 Molecular mass:   228.07462 amu.
 Principal axes and moments of inertia in atomic units:
                           1         2         3
     Eigenvalues --  1772.221527579.613648479.49118
           X            0.99997   0.00407  -0.00669
           Y           -0.00420   0.99981  -0.01895
           Z            0.00661   0.01898   0.99980
 This molecule is an asymmetric top.
 Rotational symmetry number  1.
 Warning -- assumption of classical behavior for rotation
           may cause significant error
 Rotational temperatures (Kelvin)      0.04887     0.01143     0.01021
 Rotational constants (GHZ):           1.01835     0.23810     0.21284
 Zero-point vibrational energy     575930.8 (Joules/Mol)
                                  137.65078 (Kcal/Mol)
 Warning -- explicit consideration of  23 degrees of freedom as
           vibrations may cause significant error
 Vibrational temperatures:     21.75    38.59    49.01    73.10    89.38
          (Kelvin)             98.62   130.75   173.44   193.80   229.39
                              281.32   320.76   376.02   419.23   483.56
                              539.87   573.96   593.95   627.24   759.73
                              807.36   874.02   883.81   919.82   989.20
                             1006.96  1076.04  1113.80  1179.22  1188.78
                             1240.49  1284.33  1358.75  1385.53  1420.51
                             1441.79  1476.01  1501.06  1564.57  1577.92
                             1641.85  1646.53  1679.81  1713.03  1751.43
                             1798.00  1819.95  1874.16  1913.36  1942.78
                             1987.03  2027.49  2092.61  2103.76  2118.06
                             2142.96  2145.06  2160.78  2185.94  2190.80
                             2201.83  2203.78  2257.18  2385.74  2585.36
                             2681.87  4360.71  4370.71  4413.08  4436.57
                             4440.07  4481.93  4553.35  4566.28  4597.25
                             4615.30  4783.18  5304.09

 Zero-point correction=                           0.219360 (Hartree/Particle)
 Thermal correction to Energy=                    0.235643
 Thermal correction to Enthalpy=                  0.236588
 Thermal correction to Gibbs Free Energy=         0.171358
 Sum of electronic and zero-point Energies=           -835.610484
 Sum of electronic and thermal Energies=              -835.594201
 Sum of electronic and thermal Enthalpies=            -835.593256
 Sum of electronic and thermal Free Energies=         -835.658486

                     E (Thermal)             CV                S
                      KCal/Mol        Cal/Mol-Kelvin    Cal/Mol-Kelvin
 Total                  147.868             56.606            137.286
 Electronic               0.000              0.000              0.000
 Translational            0.889              2.981             42.176
 Rotational               0.889              2.981             33.099
 Vibrational            146.091             50.644             62.012
 Vibration     1          0.593              1.986              7.190
 Vibration     2          0.593              1.984              6.052
 Vibration     3          0.594              1.983              5.578
 Vibration     4          0.595              1.977              4.786
 Vibration     5          0.597              1.972              4.389
 Vibration     6          0.598              1.969              4.195
 Vibration     7          0.602              1.956              3.641
 Vibration     8          0.609              1.932              3.092
 Vibration     9          0.613              1.919              2.878
 Vibration    10          0.621              1.892              2.556
 Vibration    11          0.636              1.846              2.175
 Vibration    12          0.649              1.806              1.935
 Vibration    13          0.669              1.743              1.653
 Vibration    14          0.687              1.690              1.466
 Vibration    15          0.717              1.603              1.231
 Vibration    16          0.746              1.523              1.058
 Vibration    17          0.765              1.472              0.967
 Vibration    18          0.777              1.442              0.917
 Vibration    19          0.796              1.392              0.839
 Vibration    20          0.883              1.188              0.592
 Vibration    21          0.917              1.115              0.522
 Vibration    22          0.966              1.016              0.437
 Vibration    23          0.974              1.002              0.426

 Optimization completed.
    -- Stationary point found.
 Normal termination of Gaussian 16 at Fri Dec 11 00:52:36 2020.

 ----------------------------------------------------------------------
 # B3LYP/6-311++G(d,p) empiricaldispersion=gd3bj scf=xqc pop=npa geom=c
 heck
 ----------------------------------------------------------------------

 --------------------------------------
 CID_90049515_JID_6782_Energie_neutraal
 --------------------------------------
 Structure from the checkpoint file:  "JID_6782.chk"
 Charge =  0 Multiplicity = 1

 SCF Done:  E(RB3LYP) =  -836.079643112     A.U. after   15 cycles
 Normal termination of Gaussian 16 at Fri Dec 11 00:56:24 2020.

 ----------------------------------------------------------------------
 # B3LYP/6-311++G(d,p) empiricaldispersion=gd3bj scf=xqc pop=npa geom=c
 heck
 ----------------------------------------------------------------------

 ------------------------------------
 CID_90049515_JID_6782_Energie_kation
 ------------------------------------
 Structure from the checkpoint file:  "JID_6782.chk"
 Charge =  1 Multiplicity = 2

 SCF Done:  E(UB3LYP) =  -835.754122869     A.U. after   27 cycles
 Normal termination of Gaussian 16 at Fri Dec 11 01:06:13 2020.
 Gaussian 16:  ES64L-G16RevA.03 25-Dec-2016

 ----------------------------------------------------------------------
 # B3LYP/6-311++G(d,p) empiricaldispersion=gd3bj scf=xqc pop=npa geom=c
 heck
 ----------------------------------------------------------------------

 -----------------------------------
 CID_90049515_JID_6782_Energie_anion
 -----------------------------------
 Structure from the checkpoint file:  "JID_6782.chk"
 Charge = -1 Multiplicity = 2

                         Standard orientation:
 ---------------------------------------------------------------------
 Center     Atomic      Atomic             Coordinates (Angstroms)
 Number     Number       Type             X           Y           Z
 ---------------------------------------------------------------------
      1          6           0       -4.023766   -1.994136    0.494271
      2          7           0       -3.559213   -0.621342    0.392293
      3          6           0       -4.332440    0.386228    1.100004
      4          6           0       -2.523010   -0.340407   -0.443980
      5          8           0       -1.884450   -1.166643   -1.080095
      6          8           0       -2.265129    1.002049   -0.495606
      7          6           0       -1.113442    1.354255   -1.285062
      8          6           0        0.159163    1.147099   -0.534713
      9          6           0        0.913871    0.050050   -0.250246
     10          6           0        1.982158    0.568812    0.537031
     11          7           0        1.878140    1.871192    0.707333
     12          8           0        0.716910    2.243539    0.031641
     13          6           0        3.138902   -0.157849    1.163833
     14          6           0        3.983487   -0.898426    0.142278
     15          8           0        5.122533   -0.633628   -0.158339
     16          8           0        3.295037   -1.929539   -0.410628
     17          1           0       -5.037707   -2.092380    0.083603
     18          1           0       -4.044905   -2.306466    1.545551
     19          1           0       -3.345042   -2.636773   -0.063921
     20          1           0       -4.454230    0.082482    2.146594
     21          1           0       -3.818817    1.343918    1.065802
     22          1           0       -5.331601    0.498086    0.656624
     23          1           0       -1.111477    0.762982   -2.201855
     24          1           0       -1.241470    2.412753   -1.514529
     25          1           0        0.731149   -0.967998   -0.551594
     26          1           0        3.779740    0.558329    1.679093
     27          1           0        2.761503   -0.889296    1.888944
     28          1           0        3.891631   -2.334578   -1.067983
 ---------------------------------------------------------------------

 SCF Done:  E(UB3LYP) =  -836.073724778     A.U. after   33 cycles
 SCF Done:  E(UB3LYP) =  -836.073724778     a.u. after    1 cycles

 The electronic state is 2-A.
 Alpha  occ. eigenvalues --  -19.10068 -19.08317 -19.06965 -19.02756 -18.99862
 Alpha  occ. eigenvalues --  -14.25256 -14.25050 -10.22248 -10.21695 -10.14775
 Alpha  occ. eigenvalues --  -10.13458 -10.11530 -10.10449 -10.10449 -10.10377
 Alpha  occ. eigenvalues --  -10.07368  -1.03993  -1.02328  -1.01408  -0.93505
 Alpha  occ. eigenvalues --   -0.92054  -0.85059  -0.77942  -0.71216  -0.66878
 Alpha  occ. eigenvalues --   -0.64777  -0.62787  -0.59080  -0.53910  -0.50491
 Alpha  occ. eigenvalues --   -0.49012  -0.45998  -0.44298  -0.42467  -0.40735
 Alpha  occ. eigenvalues --   -0.39918  -0.39664  -0.38855  -0.37229  -0.36818
 Alpha  occ. eigenvalues --   -0.35712  -0.34908  -0.34558  -0.32177  -0.31944
 Alpha  occ. eigenvalues --   -0.31071  -0.31066  -0.30885  -0.29876  -0.29224
 Alpha  occ. eigenvalues --   -0.28327  -0.26820  -0.24183  -0.21633  -0.21176
 Alpha  occ. eigenvalues --   -0.20749  -0.18882  -0.18324  -0.16546  -0.15303
 Alpha  occ. eigenvalues --    0.03940
 Alpha virt. eigenvalues --    0.05586   0.06286   0.07361   0.07968   0.08369
 Alpha virt. eigenvalues --    0.08676   0.09033   0.10595   0.10760   0.11434
 Alpha virt. eigenvalues --    0.11909   0.12264   0.12473   0.13322   0.13565

  Beta  occ. eigenvalues --  -19.09937 -19.08279 -19.06935 -19.02704 -18.99855
  Beta  occ. eigenvalues --  -14.25255 -14.24881 -10.22246 -10.21619 -10.14773
  Beta  occ. eigenvalues --  -10.13362 -10.11504 -10.10447 -10.10400 -10.10340
  Beta  occ. eigenvalues --  -10.07376  -1.03767  -1.02228  -1.01368  -0.93413
  Beta  occ. eigenvalues --   -0.92024  -0.85043  -0.77748  -0.71055  -0.66761
  Beta  occ. eigenvalues --   -0.64717  -0.62719  -0.58997  -0.53796  -0.50391
  Beta  occ. eigenvalues --   -0.48892  -0.45869  -0.44239  -0.42365  -0.40595
  Beta  occ. eigenvalues --   -0.39843  -0.39600  -0.38798  -0.36985  -0.36632
  Beta  occ. eigenvalues --   -0.35466  -0.34855  -0.34401  -0.32113  -0.31831
  Beta  occ. eigenvalues --   -0.31013  -0.30996  -0.30841  -0.29833  -0.29180
  Beta  occ. eigenvalues --   -0.28225  -0.26774  -0.23973  -0.21555  -0.20925
  Beta  occ. eigenvalues --   -0.20551  -0.18854  -0.17987  -0.15995  -0.15207
  Beta virt. eigenvalues --    0.06243   0.06659   0.07383   0.07873   0.08464
  Beta virt. eigenvalues --    0.08636   0.09378   0.09638   0.10618   0.10838
  Beta virt. eigenvalues --    0.11496   0.12280   0.12408   0.12582   0.13407

 Mulliken charges and spin densities:
               1          2
     1  C    0.661404  -0.947999
     2  N   -0.373585   0.266422
     3  C    1.004893  -1.313778
     4  C   -0.353363   0.251153
     5  O   -0.333413   0.003388
     6  O   -0.038799   0.019548
     7  C   -0.140126  -0.665534
     8  C   -0.600549   0.526822
     9  C    0.196424   0.009442
    10  C    0.361963   0.322963
    11  N   -0.454728   0.112292
    12  O    0.191261   0.018422
    13  C    0.346261  -0.905372
    14  C   -0.183953   0.157753
    15  O   -0.310632   0.034269
    16  O   -0.161674   0.010143
    17  H   -0.282377   0.431909
    18  H   -0.214977   0.355491
    19  H   -0.006175   0.182165
    20  H   -0.337552   0.476217
    21  H   -0.027221   0.221755
    22  H   -0.449748   0.607848
    23  H    0.118369   0.081879
    24  H    0.072428   0.113736
    25  H    0.273735  -0.016115
    26  H    0.160269   0.042759
    27  H   -0.116541   0.319309
    28  H   -0.001595   0.283115
 Sum of Mulliken charges =  -1.00000   1.00000

 Dipole moment (field-independent basis, Debye):
    X=              2.7187    Y=              0.5396    Z=             -2.2071  Tot=              3.5431
 Quadrupole moment (field-independent basis, Debye-Ang):
   XX=           -200.3511   YY=           -126.1227   ZZ=           -116.4651
   XY=             -7.1856   XZ=              6.3780   YZ=             -2.9212

 Summary of Natural Population Analysis:

                                       Natural Population
                Natural  -----------------------------------------------
    Atom  No    Charge         Core      Valence    Rydberg      Total
 -----------------------------------------------------------------------
      C    1   -0.17541      0.99964     2.16776    0.00802     3.17541
      N    2   -0.25663      0.99966     2.74677    0.01021     3.75663
      C    3   -0.17490      0.99964     2.16718    0.00808     3.17490
      C    4    0.46570      0.99963     1.50860    0.02608     2.53430
      O    5   -0.34079      0.99987     3.33580    0.00512     4.34079
      O    6   -0.28404      0.99986     3.27609    0.00808     4.28404
      C    7   -0.03701      0.99950     2.02575    0.01176     3.03701
      C    8    0.16835      0.99949     1.81841    0.01375     2.83165
      C    9   -0.16267      0.99943     2.15589    0.00734     3.16267
      C   10    0.07854      0.99960     1.90655    0.01532     2.92146
      N   11   -0.06358      0.99966     2.55071    0.01321     3.56358
      O   12   -0.15651      0.99985     3.14771    0.00895     4.15651
      C   13   -0.25075      0.99954     2.24153    0.00968     3.25075
      C   14    0.41885      0.99974     1.55578    0.02563     2.58115
      O   15   -0.30116      0.99987     3.29508    0.00621     4.30116
      O   16   -0.34634      0.99988     3.33998    0.00649     4.34634
      H   17    0.09309      0.00000     0.40534    0.00158     0.40691
      H   18    0.09416      0.00000     0.40455    0.00129     0.40584
      H   19    0.11405      0.00000     0.38491    0.00104     0.38595
      H   20    0.09527      0.00000     0.40305    0.00167     0.40473
      H   21    0.11195      0.00000     0.38648    0.00157     0.38805
      H   22    0.09389      0.00000     0.40374    0.00237     0.40611
      H   23    0.10698      0.00000     0.39184    0.00119     0.39302
      H   24    0.10156      0.00000     0.39693    0.00152     0.39844
      H   25    0.12727      0.00000     0.37156    0.00116     0.37273
      H   26    0.12016      0.00000     0.37852    0.00132     0.37984
      H   27    0.12015      0.00000     0.37813    0.00172     0.37985
      H   28    0.23984      0.00000     0.25561    0.00455     0.26016
 =======================================================================
   * Total *   -0.00000     15.99486    43.80024    0.20490    60.00000

 Normal termination of Gaussian 16 at Fri Dec 11 01:18:00 2020.
