 Gaussian 16, Revision A.03,

 -----------------------------------------------------------
 # opt freq B3LYP/6-31G(d) empiricaldispersion=gd3bj scf=xqc
 -----------------------------------------------------------

 -------------------------------
 CID_133668244_JID_2963_neutraal
 -------------------------------
 Symbolic Z-matrix:
 Charge =  0 Multiplicity = 1

 SCF Done:  E(RB3LYP) =  -522.478856090     A.U. after   13 cycles
 SCF Done:  E(RB3LYP) =  -522.481867389     A.U. after   11 cycles
 SCF Done:  E(RB3LYP) =  -522.481269446     A.U. after   12 cycles
 SCF Done:  E(RB3LYP) =  -522.483201328     A.U. after   11 cycles
 SCF Done:  E(RB3LYP) =  -522.483692025     A.U. after   11 cycles
 SCF Done:  E(RB3LYP) =  -522.484038047     A.U. after   11 cycles
 SCF Done:  E(RB3LYP) =  -522.484200517     A.U. after   10 cycles
 SCF Done:  E(RB3LYP) =  -522.484303081     A.U. after   11 cycles
 SCF Done:  E(RB3LYP) =  -522.484419527     A.U. after   10 cycles
 SCF Done:  E(RB3LYP) =  -522.484382240     A.U. after    9 cycles
 SCF Done:  E(RB3LYP) =  -522.486773292     A.U. after    9 cycles
 SCF Done:  E(RB3LYP) =  -522.486776530     A.U. after    9 cycles
 SCF Done:  E(RB3LYP) =  -522.486777278     A.U. after    9 cycles
 SCF Done:  E(RB3LYP) =  -522.486777691     A.U. after    8 cycles
 SCF Done:  E(RB3LYP) =  -522.486777833     A.U. after    7 cycles
 SCF Done:  E(RB3LYP) =  -522.486777856     A.U. after    6 cycles
 Optimization completed.
    -- Stationary point found.
 Normal termination of Gaussian 16 at Wed Dec  9 18:41:58 2020.

 --------------------------------------------------------------------
 #N Geom=AllCheck Guess=TCheck SCRF=Check GenChk RB3LYP/6-31G(d) Freq
 --------------------------------------------------------------------

 Structure from the checkpoint file:  "JID_2963.chk"
 -------------------------------
 CID_133668244_JID_2963_neutraal
 -------------------------------
 Charge =  0 Multiplicity = 1

 SCF Done:  E(RB3LYP) =  -522.486777856     A.U. after    1 cycles

  Exact polarizability: 110.451   5.153 115.466   3.046  -1.512 107.692
 Approx polarizability: 145.773   3.541 166.195   5.968  -7.073 158.156

                      1                      2                      3
                      A                      A                      A
 Frequencies --     26.6265                60.4294                79.7462
 Red. masses --      3.2512                 3.9571                 2.3339
 Frc consts  --      0.0014                 0.0085                 0.0087
 IR Inten    --      0.2578                 0.1650                 0.1842

                      4                      5                      6
                      A                      A                      A
 Frequencies --    113.7368               133.3438               150.4496
 Red. masses --      2.9870                 2.4605                 2.4513
 Frc consts  --      0.0228                 0.0258                 0.0327
 IR Inten    --      0.3183                 0.3262                 1.6190

                      7                      8                      9
                      A                      A                      A
 Frequencies --    217.5582               231.3688               268.8470
 Red. masses --      1.0976                 2.3383                 2.3729
 Frc consts  --      0.0306                 0.0738                 0.1011
 IR Inten    --      0.1764                 0.2998                 5.1720

                     10                     11                     12
                      A                      A                      A
 Frequencies --    288.7069               313.2620               355.9879
 Red. masses --      1.5639                 1.9772                 2.2620
 Frc consts  --      0.0768                 0.1143                 0.1689
 IR Inten    --      0.0910                 0.4223                 0.0815

                     13                     14                     15
                      A                      A                      A
 Frequencies --    371.9908               407.2782               425.6553
 Red. masses --      2.2348                 2.0337                 4.4795
 Frc consts  --      0.1822                 0.1988                 0.4782
 IR Inten    --      1.4372                 0.1301                 4.0642

                     16                     17                     18
                      A                      A                      A
 Frequencies --    435.7148               461.8888               541.5795
 Red. masses --      1.9090                 1.7586                 3.0024
 Frc consts  --      0.2135                 0.2210                 0.5189
 IR Inten    --      1.0688                 2.6294                12.9013

                     19                     20                     21
                      A                      A                      A
 Frequencies --    618.2657               664.2396               684.1465
 Red. masses --      3.1784                 1.5321                 3.2438
 Frc consts  --      0.7158                 0.3983                 0.8945
 IR Inten    --      1.8210                17.3740                 2.6344

                     22                     23                     24
                      A                      A                      A
 Frequencies --    772.8680               827.0066               856.8753
 Red. masses --      2.2441                 2.3652                 2.4520
 Frc consts  --      0.7898                 0.9531                 1.0607
 IR Inten    --      0.3119                 1.9096                 0.8993

                     25                     26                     27
                      A                      A                      A
 Frequencies --    881.1745               915.4036               929.2907
 Red. masses --      2.3832                 2.5034                 1.3595
 Frc consts  --      1.0903                 1.2359                 0.6917
 IR Inten    --      8.0083                18.1280                39.7271

                     28                     29                     30
                      A                      A                      A
 Frequencies --    939.6913               941.2641               972.9133
 Red. masses --      1.6167                 1.7980                 1.7018
 Frc consts  --      0.8411                 0.9386                 0.9491
 IR Inten    --      2.2169                 2.0223                 0.6935

                     31                     32                     33
                      A                      A                      A
 Frequencies --    980.4998               994.6347              1013.5027
 Red. masses --      1.7486                 1.5696                 2.1566
 Frc consts  --      0.9905                 0.9149                 1.3052
 IR Inten    --     25.1661                15.5956                 3.2140

                     34                     35                     36
                      A                      A                      A
 Frequencies --   1032.9912              1052.2362              1090.2399
 Red. masses --      1.1797                 1.6597                 1.9831
 Frc consts  --      0.7417                 1.0827                 1.3888
 IR Inten    --     17.6408                23.0042                25.0595

                     37                     38                     39
                      A                      A                      A
 Frequencies --   1129.9412              1140.5004              1143.1479
 Red. masses --      1.9917                 1.8909                 1.9013
 Frc consts  --      1.4982                 1.4491                 1.4639
 IR Inten    --      4.1637                 1.0416                 9.6134

                     40                     41                     42
                      A                      A                      A
 Frequencies --   1177.7748              1179.8268              1206.6452
 Red. masses --      3.2864                 1.9726                 3.3079
 Frc consts  --      2.6859                 1.6178                 2.8377
 IR Inten    --     80.3022                11.9038                47.5919

                     43                     44                     45
                      A                      A                      A
 Frequencies --   1225.7347              1269.3432              1279.7050
 Red. masses --      1.9156                 1.2811                 1.1455
 Frc consts  --      1.6957                 1.2162                 1.1052
 IR Inten    --     17.6306                 2.5972                 6.5636

                     46                     47                     48
                      A                      A                      A
 Frequencies --   1323.8343              1336.4993              1347.6312
 Red. masses --      1.5975                 1.2682                 1.1668
 Frc consts  --      1.6496                 1.3347                 1.2485
 IR Inten    --     20.0068                 2.1183                 5.0603

                     49                     50                     51
                      A                      A                      A
 Frequencies --   1362.0950              1376.2466              1382.4603
 Red. masses --      1.4474                 1.5377                 1.3103
 Frc consts  --      1.5821                 1.7160                 1.4755
 IR Inten    --      2.7582                 6.5322                22.2463

                     52                     53                     54
                      A                      A                      A
 Frequencies --   1396.9456              1409.0838              1414.4708
 Red. masses --      1.2318                 1.4108                 1.4032
 Frc consts  --      1.4163                 1.6504                 1.6541
 IR Inten    --      3.4560                28.3082                14.7988

                     55                     56                     57
                      A                      A                      A
 Frequencies --   1423.3207              1427.5132              1434.6912
 Red. masses --      1.2886                 1.2484                 1.4228
 Frc consts  --      1.5380                 1.4988                 1.7255
 IR Inten    --     10.1096                13.1388                29.7228

                     58                     59                     60
                      A                      A                      A
 Frequencies --   1447.4150              1472.6296              1507.6037
 Red. masses --      1.2857                 1.1787                 1.0726
 Frc consts  --      1.5870                 1.5061                 1.4364
 IR Inten    --     12.1689                 0.6395                 0.1992

                     61                     62                     63
                      A                      A                      A
 Frequencies --   1510.3143              1516.1616              1517.9162
 Red. masses --      1.1163                 1.0554                 1.0979
 Frc consts  --      1.5003                 1.4295                 1.4904
 IR Inten    --      5.3194                 2.9442                 0.5830

                     64                     65                     66
                      A                      A                      A
 Frequencies --   1521.0418              1524.4241              1530.4219
 Red. masses --      1.0857                 1.0592                 1.0645
 Frc consts  --      1.4800                 1.4503                 1.4690
 IR Inten    --      6.4034                 0.5168                 6.5655

                     67                     68                     69
                      A                      A                      A
 Frequencies --   1547.0731              1731.4988              2995.6626
 Red. masses --      1.0636                 4.4461                 1.0704
 Frc consts  --      1.4999                 7.8538                 5.6593
 IR Inten    --      2.6332                 7.0656                16.8290

                     70                     71                     72
                      A                      A                      A
 Frequencies --   3004.9626              3012.5052              3021.7047
 Red. masses --      1.0693                 1.0639                 1.0785
 Frc consts  --      5.6889                 5.6886                 5.8018
 IR Inten    --     38.0055                76.6093                24.4524

                     73                     74                     75
                      A                      A                      A
 Frequencies --   3029.8178              3044.7788              3049.8839
 Red. masses --      1.0635                 1.0763                 1.0451
 Frc consts  --      5.7519                 5.8787                 5.7274
 IR Inten    --     70.0053                27.7031                19.1187

                     76                     77                     78
                      A                      A                      A
 Frequencies --   3053.8130              3060.3279              3082.5783
 Red. masses --      1.0454                 1.0995                 1.0989
 Frc consts  --      5.7441                 6.0668                 6.1521
 IR Inten    --     16.4326                40.1975                34.0824

                     79                     80                     81
                      A                      A                      A
 Frequencies --   3107.2168              3109.5800              3112.9750
 Red. masses --      1.0966                 1.0973                 1.0980
 Frc consts  --      6.2380                 6.2512                 6.2691
 IR Inten    --      6.6862                20.3491                79.7565

                     82                     83                     84
                      A                      A                      A
 Frequencies --   3115.0390              3133.9780              3141.3570
 Red. masses --      1.0988                 1.0843                 1.1011
 Frc consts  --      6.2821                 6.2749                 6.4018
 IR Inten    --     53.4053                28.4629                20.9204

                     85                     86                     87
                      A                      A                      A
 Frequencies --   3154.3850              3159.1362              3236.2020
 Red. masses --      1.0981                 1.0649                 1.1163
 Frc consts  --      6.4375                 6.2616                 6.8880
 IR Inten    --     25.5485                 5.5382                22.5785

 - Thermochemistry -
 -------------------
 Temperature   298.150 Kelvin.  Pressure   1.00000 Atm.
 Atom     1 has atomic number  6 and mass  12.00000

 Molecular mass:   169.14666 amu.
 Principal axes and moments of inertia in atomic units:
                           1         2         3
     Eigenvalues --  1425.009242652.904182849.58453
           X            0.99965   0.02474  -0.00908
           Y           -0.02452   0.99942   0.02352
           Z            0.00965  -0.02329   0.99968
 This molecule is an asymmetric top.
 Rotational symmetry number  1.
 Warning -- assumption of classical behavior for rotation
           may cause significant error
 Rotational temperatures (Kelvin)      0.06078     0.03265     0.03040
 Rotational constants (GHZ):           1.26648     0.68029     0.63333
 Zero-point vibrational energy     741034.1 (Joules/Mol)
                                  177.11140 (Kcal/Mol)
 Warning -- explicit consideration of  19 degrees of freedom as
           vibrations may cause significant error
 Vibrational temperatures:     38.31    86.94   114.74   163.64   191.85
          (Kelvin)            216.46   313.02   332.89   386.81   415.38
                              450.71   512.19   535.21   585.98   612.42
                              626.90   664.55   779.21   889.55   955.69
                              984.33  1111.98  1189.88  1232.85  1267.81
                             1317.06  1337.04  1352.01  1354.27  1399.81
                             1410.72  1431.06  1458.20  1486.24  1513.93
                             1568.61  1625.73  1640.93  1644.73  1694.56
                             1697.51  1736.09  1763.56  1826.30  1841.21
                             1904.70  1922.92  1938.94  1959.75  1980.11
                             1989.05  2009.89  2027.36  2035.11  2047.84
                             2053.87  2064.20  2082.51  2118.79  2169.11
                             2173.01  2181.42  2183.94  2188.44  2193.31
                             2201.94  2225.89  2491.24  4310.09  4323.47
                             4334.32  4347.56  4359.23  4380.76  4388.10
                             4393.76  4403.13  4435.14  4470.59  4473.99
                             4478.88  4481.85  4509.10  4519.71  4538.46
                             4545.29  4656.17

 Zero-point correction=                           0.282245 (Hartree/Particle)
 Thermal correction to Energy=                    0.295336
 Thermal correction to Enthalpy=                  0.296281
 Thermal correction to Gibbs Free Energy=         0.242425
 Sum of electronic and zero-point Energies=           -522.204533
 Sum of electronic and thermal Energies=              -522.191442
 Sum of electronic and thermal Enthalpies=            -522.190497
 Sum of electronic and thermal Free Energies=         -522.244353

                     E (Thermal)             CV                S
                      KCal/Mol        Cal/Mol-Kelvin    Cal/Mol-Kelvin
 Total                  185.326             49.656            113.348
 Electronic               0.000              0.000              0.000
 Translational            0.889              2.981             41.285
 Rotational               0.889              2.981             30.755
 Vibrational            183.549             43.694             41.308
 Vibration     1          0.593              1.984              6.066
 Vibration     2          0.597              1.973              4.443
 Vibration     3          0.600              1.963              3.897
 Vibration     4          0.607              1.938              3.204
 Vibration     5          0.613              1.920              2.897
 Vibration     6          0.618              1.902              2.667
 Vibration     7          0.646              1.814              1.979
 Vibration     8          0.653              1.793              1.868
 Vibration     9          0.673              1.730              1.604
 Vibration    10          0.685              1.695              1.482
 Vibration    11          0.701              1.648              1.345
 Vibration    12          0.731              1.563              1.140
 Vibration    13          0.744              1.530              1.072
 Vibration    14          0.772              1.454              0.936
 Vibration    15          0.787              1.414              0.873
 Vibration    16          0.796              1.392              0.840
 Vibration    17          0.820              1.335              0.761
 Vibration    18          0.897              1.158              0.562
 Vibration    19          0.978              0.993              0.419

                           ! Non-Optimized Parameters !
 Normal termination of Gaussian 16 at Wed Dec  9 18:50:56 2020.

 ----------------------------------------------------------------------
 # B3LYP/6-311++G(d,p) empiricaldispersion=gd3bj scf=xqc pop=npa geom=c
 heck
 ----------------------------------------------------------------------

 ---------------------------------------
 CID_133668244_JID_2963_Energie_neutraal
 ---------------------------------------
 Structure from the checkpoint file:  "JID_2963.chk"
 Charge =  0 Multiplicity = 1

 SCF Done:  E(RB3LYP) =  -522.634470867     A.U. after   13 cycles
 Normal termination of Gaussian 16 at Wed Dec  9 18:54:42 2020.

 ----------------------------------------------------------------------
 # B3LYP/6-311++G(d,p) empiricaldispersion=gd3bj scf=xqc pop=npa geom=c
 heck
 ----------------------------------------------------------------------

 -------------------------------------
 CID_133668244_JID_2963_Energie_kation
 -------------------------------------
 Structure from the checkpoint file:  "JID_2963.chk"
 Charge =  1 Multiplicity = 2

 SCF Done:  E(UB3LYP) =  -522.362048386     A.U. after   19 cycles
 Normal termination of Gaussian 16 at Wed Dec  9 19:02:16 2020.
 Gaussian 16:  ES64L-G16RevA.03 25-Dec-2016

 ----------------------------------------------------------------------
 # B3LYP/6-311++G(d,p) empiricaldispersion=gd3bj scf=xqc pop=npa geom=c
 heck
 ----------------------------------------------------------------------

 ------------------------------------
 CID_133668244_JID_2963_Energie_anion
 ------------------------------------
 Structure from the checkpoint file:  "JID_2963.chk"
 Charge = -1 Multiplicity = 2

                         Standard orientation:
 ---------------------------------------------------------------------
 Center     Atomic      Atomic             Coordinates (Angstroms)
 Number     Number       Type             X           Y           Z
 ---------------------------------------------------------------------
      1          6           0       -1.963424   -1.861870   -0.245195
      2          6           0       -0.903963   -0.916083   -0.844521
      3          6           0       -1.558027    0.258980   -1.579427
      4          8           0       -2.087702    1.208953   -0.664763
      5          6           0       -1.040776    1.777816    0.113498
      6          6           0       -0.345551    0.719762    0.974888
      7          7           0        0.069830   -0.369612    0.095353
      8          6           0        1.080177   -1.280693    0.594222
      9          6           0        2.422630   -1.115251   -0.156380
     10          6           0        3.039578    0.232157    0.083017
     11          6           0        3.003524    1.250246   -0.777521
     12          6           0       -1.210525    0.314684    2.183888
     13          1           0       -2.718141   -1.302869    0.313187
     14          1           0       -1.507416   -2.593779    0.429750
     15          1           0       -2.475016   -2.414089   -1.042977
     16          1           0       -0.330145   -1.482473   -1.592226
     17          1           0       -0.811048    0.744939   -2.227542
     18          1           0       -2.397071   -0.080789   -2.193982
     19          1           0       -1.503581    2.549304    0.735975
     20          1           0       -0.298246    2.247200   -0.550900
     21          1           0        0.579046    1.175127    1.352195
     22          1           0        1.240718   -1.111521    1.667126
     23          1           0        0.746736   -2.323936    0.499236
     24          1           0        3.109866   -1.910894    0.165949
     25          1           0        2.237328   -1.257454   -1.227975
     26          1           0        3.505536    0.378298    1.059412
     27          1           0        3.437067    2.218770   -0.542460
     28          1           0        2.538502    1.147139   -1.755203
     29          1           0       -0.788876   -0.555633    2.698244
     30          1           0       -1.263395    1.138513    2.906243
     31          1           0       -2.230912    0.071322    1.877769
 ---------------------------------------------------------------------

 SCF Done:  E(UB3LYP) =  -522.617874526     A.U. after   32 cycles

 The electronic state is 2-A.
 Alpha  occ. eigenvalues --  -19.02526 -14.19073 -10.11189 -10.11141 -10.09654
 Alpha  occ. eigenvalues --  -10.09607 -10.08775 -10.06942 -10.06176 -10.05810
 Alpha  occ. eigenvalues --  -10.05221 -10.05002  -0.94136  -0.81806  -0.69449
 Alpha  occ. eigenvalues --   -0.69117  -0.64436  -0.60075  -0.59422  -0.56260
 Alpha  occ. eigenvalues --   -0.51999  -0.51168  -0.45083  -0.42644  -0.40569
 Alpha  occ. eigenvalues --   -0.38503  -0.37971  -0.36149  -0.35697  -0.34580
 Alpha  occ. eigenvalues --   -0.32939  -0.31771  -0.30235  -0.29535  -0.28625
 Alpha  occ. eigenvalues --   -0.28211  -0.28087  -0.27447  -0.25631  -0.25053
 Alpha  occ. eigenvalues --   -0.23947  -0.23417  -0.22421  -0.20713  -0.16638
 Alpha  occ. eigenvalues --   -0.15319  -0.09799   0.04715
 Alpha virt. eigenvalues --    0.06870   0.07524   0.07609   0.08988   0.09367
 Alpha virt. eigenvalues --    0.09774   0.09887   0.10189   0.10664   0.11582
 Alpha virt. eigenvalues --    0.12166   0.12462   0.12884   0.13339   0.13726

  Beta  occ. eigenvalues --  -19.02521 -14.19075 -10.11181 -10.11127 -10.09640
  Beta  occ. eigenvalues --  -10.09599 -10.08747 -10.06925 -10.06157 -10.05785
  Beta  occ. eigenvalues --  -10.05196 -10.04971  -0.94125  -0.81792  -0.69405
  Beta  occ. eigenvalues --   -0.69091  -0.64398  -0.60028  -0.59385  -0.56221
  Beta  occ. eigenvalues --   -0.51953  -0.51109  -0.45011  -0.42595  -0.40526
  Beta  occ. eigenvalues --   -0.38486  -0.37941  -0.36098  -0.35660  -0.34541
  Beta  occ. eigenvalues --   -0.32903  -0.31741  -0.30193  -0.29500  -0.28593
  Beta  occ. eigenvalues --   -0.28176  -0.28053  -0.27410  -0.25596  -0.25010
  Beta  occ. eigenvalues --   -0.23922  -0.23378  -0.22387  -0.20689  -0.16592
  Beta  occ. eigenvalues --   -0.15259  -0.09789
  Beta virt. eigenvalues --    0.06938   0.07760   0.08080   0.08216   0.09430
  Beta virt. eigenvalues --    0.09804   0.10248   0.10321   0.10559   0.10943
  Beta virt. eigenvalues --    0.12068   0.12597   0.13054   0.13162   0.13647

 Mulliken charges and spin densities:
               1          2
     1  C    1.376146  -1.945572
     2  C   -1.179232   1.294401
     3  C    0.193244  -0.691618
     4  O   -0.109095   0.002260
     5  C    0.340493  -0.873002
     6  C   -0.964804   0.936142
     7  N    0.453700  -0.127802
     8  C    0.769303  -0.968537
     9  C    0.604639  -1.073292
    10  C   -0.778569   1.019987
    11  C    0.784224  -1.324373
    12  C    0.403032  -0.944138
    13  H    0.051832   0.101001
    14  H   -0.149454   0.286753
    15  H   -0.230002   0.368459
    16  H   -0.466286   0.647556
    17  H    0.033082   0.104039
    18  H   -0.110968   0.282613
    19  H   -0.037706   0.204287
    20  H    0.104503   0.040074
    21  H   -0.070990   0.254155
    22  H   -0.202996   0.341358
    23  H   -0.392618   0.539583
    24  H   -0.260571   0.408843
    25  H   -0.215543   0.349790
    26  H   -0.572892   0.733262
    27  H   -0.008321   0.121300
    28  H   -0.096730   0.214832
    29  H   -0.187922   0.332436
    30  H   -0.137895   0.270218
    31  H    0.058396   0.094983
 Sum of Mulliken charges =  -1.00000   1.00000

 Dipole moment (field-independent basis, Debye):
    X=             -1.9861    Y=              3.6820    Z=             -1.1338  Tot=              4.3345
 Quadrupole moment (field-independent basis, Debye-Ang):
   XX=           -132.7375   YY=           -123.1911   ZZ=           -118.7163
   XY=              0.3033   XZ=             -3.8829   YZ=             -1.9574

 Summary of Natural Population Analysis:

                                       Natural Population
                Natural  -----------------------------------------------
    Atom  No    Charge         Core      Valence    Rydberg      Total
 -----------------------------------------------------------------------
      C    1   -0.29620      0.99964     2.29056    0.00600     3.29620
      C    2   -0.01510      0.99958     2.00145    0.01407     3.01510
      C    3   -0.00867      0.99954     1.99564    0.01348     3.00867
      O    4   -0.30232      0.99989     3.29368    0.00875     4.30232
      C    5   -0.00913      0.99954     1.99714    0.01245     3.00913
      C    6   -0.01530      0.99958     2.00286    0.01286     3.01530
      N    7   -0.29711      0.99968     2.78014    0.01728     3.79711
      C    8   -0.07644      0.99959     2.06455    0.01231     3.07644
      C    9   -0.21047      0.99960     2.20059    0.01028     3.21047
      C   10   -0.07924      0.99956     2.06884    0.01083     3.07924
      C   11   -0.19384      0.99955     2.18700    0.00729     3.19384
      C   12   -0.29620      0.99964     2.29065    0.00592     3.29620
      H   13    0.09848      0.00000     0.40005    0.00147     0.40152
      H   14    0.10221      0.00000     0.39656    0.00123     0.39779
      H   15    0.09827      0.00000     0.40043    0.00129     0.40173
      H   16    0.09791      0.00000     0.40008    0.00201     0.40209
      H   17    0.08065      0.00000     0.41772    0.00163     0.41935
      H   18    0.09051      0.00000     0.40828    0.00121     0.40949
      H   19    0.08927      0.00000     0.40961    0.00112     0.41073
      H   20    0.08262      0.00000     0.41585    0.00153     0.41738
      H   21    0.10076      0.00000     0.39732    0.00192     0.39924
      H   22    0.09364      0.00000     0.40438    0.00199     0.40636
      H   23    0.09621      0.00000     0.40147    0.00232     0.40379
      H   24    0.10179      0.00000     0.39634    0.00187     0.39821
      H   25    0.09792      0.00000     0.40043    0.00165     0.40208
      H   26    0.09133      0.00000     0.40730    0.00137     0.40867
      H   27    0.09076      0.00000     0.40807    0.00117     0.40924
      H   28    0.09004      0.00000     0.40839    0.00158     0.40996
      H   29    0.10201      0.00000     0.39692    0.00107     0.39799
      H   30    0.09665      0.00000     0.40224    0.00111     0.40335
      H   31    0.09900      0.00000     0.39960    0.00141     0.40100
 =======================================================================
   * Total *   -0.00000     11.99539    34.84414    0.16046    47.00000

 Normal termination of Gaussian 16 at Wed Dec  9 19:15:06 2020.
