 Gaussian 16, Revision A.03,

 -----------------------------------------------------------
 # opt freq B3LYP/6-31G(d) empiricaldispersion=gd3bj scf=xqc
 -----------------------------------------------------------

 -------------------------------
 CID_151041879_JID_2262_neutraal
 -------------------------------
 Symbolic Z-matrix:
 Charge =  0 Multiplicity = 1

 SCF Done:  E(RB3LYP) =  -641.140905310     A.U. after   15 cycles
 SCF Done:  E(RB3LYP) =  -641.143007384     A.U. after   15 cycles
 SCF Done:  E(RB3LYP) =  -641.143250228     A.U. after   15 cycles
 SCF Done:  E(RB3LYP) =  -641.144934243     A.U. after   15 cycles
 SCF Done:  E(RB3LYP) =  -641.145893106     A.U. after   13 cycles
 SCF Done:  E(RB3LYP) =  -641.146611829     A.U. after   13 cycles
 SCF Done:  E(RB3LYP) =  -641.147259312     A.U. after   15 cycles
 SCF Done:  E(RB3LYP) =  -641.147841973     A.U. after   15 cycles
 SCF Done:  E(RB3LYP) =  -641.148220982     A.U. after   13 cycles
 SCF Done:  E(RB3LYP) =  -641.148375586     A.U. after   13 cycles
 SCF Done:  E(RB3LYP) =  -641.148675666     A.U. after   10 cycles
 SCF Done:  E(RB3LYP) =  -641.148676266     A.U. after   10 cycles
 SCF Done:  E(RB3LYP) =  -641.148676810     A.U. after   10 cycles
 SCF Done:  E(RB3LYP) =  -641.148676996     A.U. after   10 cycles
 SCF Done:  E(RB3LYP) =  -641.148677049     A.U. after    9 cycles
 SCF Done:  E(RB3LYP) =  -641.148677061     A.U. after    8 cycles
 Optimization completed.
    -- Stationary point found.
 Normal termination of Gaussian 16 at Wed Dec  9 17:00:50 2020.

 --------------------------------------------------------------------
 #N Geom=AllCheck Guess=TCheck SCRF=Check GenChk RB3LYP/6-31G(d) Freq
 --------------------------------------------------------------------

 Structure from the checkpoint file:  "JID_2262.chk"
 -------------------------------
 CID_151041879_JID_2262_neutraal
 -------------------------------
 Charge =  0 Multiplicity = 1

 SCF Done:  E(RB3LYP) =  -641.148677061     A.U. after    1 cycles

  Exact polarizability: 107.092  18.553  96.665   4.054  -0.355  62.072
 Approx polarizability: 170.715  47.106 144.951   6.930   1.111  91.534

                      1                      2                      3
                      A                      A                      A
 Frequencies --      8.6207                50.5625                55.7787
 Red. masses --      5.0025                 5.3924                 5.4830
 Frc consts  --      0.0002                 0.0081                 0.0101
 IR Inten    --      1.5126                 0.1894                 0.4649

                      4                      5                      6
                      A                      A                      A
 Frequencies --     74.4739               102.3687               109.5991
 Red. masses --      3.0307                 3.2406                 4.4390
 Frc consts  --      0.0099                 0.0200                 0.0314
 IR Inten    --      2.5532                 1.1287                 1.0120

                      7                      8                      9
                      A                      A                      A
 Frequencies --    153.3782               168.1529               245.3512
 Red. masses --      5.5237                 4.3340                 1.3405
 Frc consts  --      0.0766                 0.0722                 0.0475
 IR Inten    --      0.4062                 5.0552                 0.4000

                     10                     11                     12
                      A                      A                      A
 Frequencies --    262.2828               288.1830               304.3542
 Red. masses --      4.0276                 4.2269                 2.3884
 Frc consts  --      0.1632                 0.2068                 0.1304
 IR Inten    --      6.3159                12.9854                 0.9840

                     13                     14                     15
                      A                      A                      A
 Frequencies --    343.2534               404.5075               488.5361
 Red. masses --      3.6304                 5.5431                 3.1029
 Frc consts  --      0.2520                 0.5344                 0.4363
 IR Inten    --      3.9679                 8.0170                16.1334

                     16                     17                     18
                      A                      A                      A
 Frequencies --    546.9234               570.8228               642.0036
 Red. masses --      2.1086                13.1186                 6.4325
 Frc consts  --      0.3716                 2.5185                 1.5621
 IR Inten    --     77.1617                13.9308                 1.1752

                     19                     20                     21
                      A                      A                      A
 Frequencies --    657.8792               741.0390               780.1175
 Red. masses --      4.3035                 2.8934                 4.9274
 Frc consts  --      1.0974                 0.9361                 1.7668
 IR Inten    --      9.5571                58.1609                97.9318

                     22                     23                     24
                      A                      A                      A
 Frequencies --    834.8109               861.5123               868.5832
 Red. masses --      1.0957                 3.3487                 2.8136
 Frc consts  --      0.4499                 1.4644                 1.2507
 IR Inten    --      1.2277                13.0281                 9.8560

                     25                     26                     27
                      A                      A                      A
 Frequencies --    891.6531              1004.4185              1021.4187
 Red. masses --      2.2285                 3.5283                 2.4934
 Frc consts  --      1.0439                 2.0972                 1.5326
 IR Inten    --     15.2703                49.6617                 3.5733

                     28                     29                     30
                      A                      A                      A
 Frequencies --   1050.8139              1113.5170              1120.2662
 Red. masses --      3.1539                 4.7475                 3.5272
 Frc consts  --      2.0519                 3.4682                 2.6081
 IR Inten    --     28.9793                72.0102                39.3305

                     31                     32                     33
                      A                      A                      A
 Frequencies --   1129.2745              1170.2257              1202.6399
 Red. masses --      2.5339                 2.6308                 1.5156
 Frc consts  --      1.9039                 2.1226                 1.2916
 IR Inten    --     13.8465                28.8079                 7.9812

                     34                     35                     36
                      A                      A                      A
 Frequencies --   1266.4809              1291.4685              1297.7629
 Red. masses --      1.1404                 1.3623                 1.1330
 Frc consts  --      1.0778                 1.3388                 1.1243
 IR Inten    --      3.2073                 4.6926                 2.4064

                     37                     38                     39
                      A                      A                      A
 Frequencies --   1344.6923              1373.5425              1401.8250
 Red. masses --      2.7627                 3.1823                 1.3923
 Frc consts  --      2.9433                 3.5373                 1.6120
 IR Inten    --    156.4547               312.9823                20.3047

                     40                     41                     42
                      A                      A                      A
 Frequencies --   1412.4644              1442.0524              1445.3165
 Red. masses --      1.2518                 1.7998                 1.2682
 Frc consts  --      1.4714                 2.2051                 1.5608
 IR Inten    --      9.6773                69.4867                 8.4609

                     43                     44                     45
                      A                      A                      A
 Frequencies --   1448.7121              1509.9954              1514.8297
 Red. masses --      1.3456                 1.0885                 1.0392
 Frc consts  --      1.6639                 1.4623                 1.4050
 IR Inten    --     23.4893                 7.7264                 1.9401

                     46                     47                     48
                      A                      A                      A
 Frequencies --   1529.3620              1534.9747              1555.4059
 Red. masses --      1.0981                 1.0514                 1.0927
 Frc consts  --      1.5133                 1.4596                 1.5575
 IR Inten    --      5.5742                 4.8337                 1.5839

                     49                     50                     51
                      A                      A                      A
 Frequencies --   1826.8527              2272.1689              3042.5766
 Red. masses --     10.1856                13.6364                 1.0561
 Frc consts  --     20.0283                41.4793                 5.7603
 IR Inten    --    356.0305               434.7285                34.4154

                     52                     53                     54
                      A                      A                      A
 Frequencies --   3056.1180              3065.8124              3079.9524
 Red. masses --      1.0675                 1.0374                 1.0589
 Frc consts  --      5.8744                 5.7449                 5.9184
 IR Inten    --     26.8536                16.8864                21.1307

                     55                     56                     57
                      A                      A                      A
 Frequencies --   3083.8404              3132.8804              3132.9311
 Red. masses --      1.1083                 1.1037                 1.1025
 Frc consts  --      6.2101                 6.3825                 6.3760
 IR Inten    --     39.2246                 5.9675                38.4255

                     58                     59                     60
                      A                      A                      A
 Frequencies --   3139.6197              3157.9913              3573.2584
 Red. masses --      1.1030                 1.1021                 1.0773
 Frc consts  --      6.4061                 6.4759                 8.1041
 IR Inten    --     18.4880                14.7591                25.9246

 - Thermochemistry -
 -------------------
 Temperature   298.150 Kelvin.  Pressure   1.00000 Atm.
 Atom     1 has atomic number  6 and mass  12.00000

 Molecular mass:   174.07529 amu.
 Principal axes and moments of inertia in atomic units:
                           1         2         3
     Eigenvalues --  1822.362642227.813503785.14761
           X            0.98543   0.17006   0.00250
           Y           -0.17004   0.98540  -0.00836
           Z           -0.00389   0.00781   0.99996
 This molecule is an asymmetric top.
 Rotational symmetry number  1.
 Warning -- assumption of classical behavior for rotation
           may cause significant error
 Rotational temperatures (Kelvin)      0.04753     0.03888     0.02288
 Rotational constants (GHZ):           0.99033     0.81010     0.47680
 Zero-point vibrational energy     455778.5 (Joules/Mol)
                                  108.93367 (Kcal/Mol)
 Warning -- explicit consideration of  17 degrees of freedom as
           vibrations may cause significant error
 Vibrational temperatures:     12.40    72.75    80.25   107.15   147.29
          (Kelvin)            157.69   220.68   241.93   353.01   377.37
                              414.63   437.90   493.87   582.00   702.89
                              786.90   821.29   923.70   946.54  1066.19
                             1122.42  1201.11  1239.52  1249.70  1282.89
                             1445.13  1469.59  1511.89  1602.10  1611.81
                             1624.77  1683.69  1730.33  1822.18  1858.14
                             1867.19  1934.71  1976.22  2016.91  2032.22
                             2074.79  2079.49  2084.37  2172.55  2179.50
                             2200.41  2208.49  2237.88  2628.43  3269.14
                             4377.59  4397.07  4411.02  4431.36  4436.96
                             4507.52  4507.59  4517.21  4543.65  5141.12

 Zero-point correction=                           0.173597 (Hartree/Particle)
 Thermal correction to Energy=                    0.186592
 Thermal correction to Enthalpy=                  0.187536
 Thermal correction to Gibbs Free Energy=         0.131087
 Sum of electronic and zero-point Energies=           -640.975080
 Sum of electronic and thermal Energies=              -640.962086
 Sum of electronic and thermal Enthalpies=            -640.961141
 Sum of electronic and thermal Free Energies=         -641.017590

                     E (Thermal)             CV                S
                      KCal/Mol        Cal/Mol-Kelvin    Cal/Mol-Kelvin
 Total                  117.088             44.297            118.807
 Electronic               0.000              0.000              0.000
 Translational            0.889              2.981             41.370
 Rotational               0.889              2.981             31.108
 Vibrational            115.310             38.336             46.328
 Vibration     1          0.593              1.987              8.306
 Vibration     2          0.595              1.977              4.795
 Vibration     3          0.596              1.975              4.601
 Vibration     4          0.599              1.966              4.031
 Vibration     5          0.604              1.947              3.409
 Vibration     6          0.606              1.942              3.276
 Vibration     7          0.619              1.899              2.630
 Vibration     8          0.625              1.882              2.456
 Vibration     9          0.660              1.770              1.764
 Vibration    10          0.670              1.742              1.647
 Vibration    11          0.685              1.696              1.485
 Vibration    12          0.695              1.665              1.393
 Vibration    13          0.722              1.589              1.197
 Vibration    14          0.770              1.460              0.946
 Vibration    15          0.844              1.275              0.687
 Vibration    16          0.902              1.146              0.551
 Vibration    17          0.927              1.094              0.503

 Optimization completed.
    -- Stationary point found.
 Normal termination of Gaussian 16 at Wed Dec  9 17:05:27 2020.

 ----------------------------------------------------------------------
 # B3LYP/6-311++G(d,p) empiricaldispersion=gd3bj scf=xqc pop=npa geom=c
 heck
 ----------------------------------------------------------------------

 ---------------------------------------
 CID_151041879_JID_2262_Energie_neutraal
 ---------------------------------------
 Structure from the checkpoint file:  "JID_2262.chk"
 Charge =  0 Multiplicity = 1

 SCF Done:  E(RB3LYP) =  -641.342035449     A.U. after   15 cycles
 Normal termination of Gaussian 16 at Wed Dec  9 17:07:55 2020.

 ----------------------------------------------------------------------
 # B3LYP/6-311++G(d,p) empiricaldispersion=gd3bj scf=xqc pop=npa geom=c
 heck
 ----------------------------------------------------------------------

 -------------------------------------
 CID_151041879_JID_2262_Energie_kation
 -------------------------------------
 Structure from the checkpoint file:  "JID_2262.chk"
 Charge =  1 Multiplicity = 2

 SCF Done:  E(UB3LYP) =  -641.001956382     A.U. after   27 cycles
 Normal termination of Gaussian 16 at Wed Dec  9 17:13:08 2020.
 Gaussian 16:  ES64L-G16RevA.03 25-Dec-2016

 ----------------------------------------------------------------------
 # B3LYP/6-311++G(d,p) empiricaldispersion=gd3bj scf=xqc pop=npa geom=c
 heck
 ----------------------------------------------------------------------

 ------------------------------------
 CID_151041879_JID_2262_Energie_anion
 ------------------------------------
 Structure from the checkpoint file:  "JID_2262.chk"
 Charge = -1 Multiplicity = 2

                         Standard orientation:
 ---------------------------------------------------------------------
 Center     Atomic      Atomic             Coordinates (Angstroms)
 Number     Number       Type             X           Y           Z
 ---------------------------------------------------------------------
      1          6           0       -2.933722   -1.756500    0.212023
      2          6           0       -2.364386   -0.431745    0.682817
      3          8           0       -1.908879    0.261782   -0.492697
      4          7           0       -1.511511    1.568197   -0.159822
      5          6           0       -0.152721    1.837033   -0.144007
      6          8           0        0.304854    2.946959   -0.325918
      7          8           0        0.566239    0.744423    0.191622
      8          6           0        1.983677    0.962813    0.273199
      9          6           0        2.605108   -0.362419    0.675352
     10          7           0        2.450004   -1.397130   -0.364669
     11          7           0        1.356025   -1.971832   -0.393130
     12          7           0        0.412431   -2.600015   -0.521474
     13          1           0       -3.778293   -1.595250   -0.465519
     14          1           0       -3.284708   -2.335923    1.072664
     15          1           0       -2.169389   -2.337686   -0.310077
     16          1           0       -3.119817    0.179943    1.191924
     17          1           0       -1.517789   -0.577535    1.364773
     18          1           0       -2.030115    2.241151   -0.714781
     19          1           0        2.359014    1.298714   -0.697209
     20          1           0        2.199325    1.736171    1.017696
     21          1           0        3.681750   -0.225824    0.801640
     22          1           0        2.185939   -0.698712    1.632187
 ---------------------------------------------------------------------

 SCF Done:  E(UB3LYP) =  -641.332027089     A.U. after   32 cycles

 The electronic state is 2-A.
 Alpha  occ. eigenvalues --  -19.07074 -19.06889 -19.01019 -14.33855 -14.28694
 Alpha  occ. eigenvalues --  -14.23901 -14.22937 -10.22732 -10.12505 -10.12014
 Alpha  occ. eigenvalues --  -10.10202 -10.06475  -1.02818  -1.00547  -0.98397
 Alpha  occ. eigenvalues --   -0.92854  -0.84923  -0.77634  -0.67929  -0.64881
 Alpha  occ. eigenvalues --   -0.57641  -0.52473  -0.49684  -0.45545  -0.43770
 Alpha  occ. eigenvalues --   -0.42761  -0.39177  -0.38719  -0.37748  -0.37222
 Alpha  occ. eigenvalues --   -0.36669  -0.34441  -0.32836  -0.31954  -0.29868
 Alpha  occ. eigenvalues --   -0.29584  -0.29305  -0.27478  -0.26641  -0.26165
 Alpha  occ. eigenvalues --   -0.21296  -0.20433  -0.18936  -0.17902  -0.16992
 Alpha  occ. eigenvalues --   -0.13052   0.04784
 Alpha virt. eigenvalues --    0.06433   0.07908   0.08190   0.09151   0.09927
 Alpha virt. eigenvalues --    0.10498   0.10819   0.11170   0.12181   0.12964
 Alpha virt. eigenvalues --    0.13732   0.14327   0.14939   0.15494   0.16113

  Beta  occ. eigenvalues --  -19.07070 -19.06874 -19.01015 -14.33656 -14.28679
  Beta  occ. eigenvalues --  -14.23578 -14.22993 -10.22725 -10.12481 -10.11998
  Beta  occ. eigenvalues --  -10.10093 -10.06465  -1.02797  -1.00132  -0.98383
  Beta  occ. eigenvalues --   -0.92838  -0.84699  -0.77604  -0.67821  -0.64846
  Beta  occ. eigenvalues --   -0.57479  -0.52423  -0.49596  -0.45503  -0.43720
  Beta  occ. eigenvalues --   -0.42675  -0.39089  -0.38113  -0.37537  -0.37080
  Beta  occ. eigenvalues --   -0.36540  -0.34403  -0.32338  -0.31743  -0.29794
  Beta  occ. eigenvalues --   -0.29508  -0.29059  -0.27421  -0.26548  -0.26075
  Beta  occ. eigenvalues --   -0.21276  -0.20421  -0.18907  -0.17404  -0.16976
  Beta  occ. eigenvalues --   -0.12950
  Beta virt. eigenvalues --    0.06987   0.08167   0.08424   0.09267   0.10331
  Beta virt. eigenvalues --    0.10550   0.10847   0.11193   0.11572   0.12533
  Beta virt. eigenvalues --    0.13134   0.13885   0.14585   0.15109   0.15456

 Mulliken charges and spin densities:
               1          2
     1  C   -0.003784  -0.497715
     2  C    0.086708  -0.271065
     3  O    0.016553   0.019160
     4  N   -0.406824   0.046020
     5  C    0.219278   0.019443
     6  O   -0.321121   0.009833
     7  O   -0.173140   0.033153
     8  C   -0.299626   0.242341
     9  C    1.844639  -2.540279
    10  N   -1.153987   0.702909
    11  N    0.539011  -0.057208
    12  N    0.245972  -0.182483
    13  H   -0.001823   0.138895
    14  H   -0.035096   0.159127
    15  H    0.121243   0.096339
    16  H   -0.378343   0.523173
    17  H    0.174121  -0.020268
    18  H    0.037748   0.275238
    19  H   -0.078110   0.296257
    20  H   -0.239806   0.417454
    21  H   -0.737867   0.938219
    22  H   -0.455746   0.651458
 Sum of Mulliken charges =  -1.00000   1.00000

 Dipole moment (field-independent basis, Debye):
    X=             -4.2584    Y=              0.0141    Z=             -1.4747  Tot=              4.5065
 Quadrupole moment (field-independent basis, Debye-Ang):
   XX=           -129.9595   YY=           -110.0549   ZZ=            -95.6476
   XY=              0.4334   XZ=             -3.5331   YZ=             -2.8473

 Summary of Natural Population Analysis:

                                       Natural Population
                Natural  -----------------------------------------------
    Atom  No    Charge         Core      Valence    Rydberg      Total
 -----------------------------------------------------------------------
      C    1   -0.29969      0.99965     2.29491    0.00513     3.29969
      C    2   -0.00840      0.99960     1.99608    0.01271     3.00840
      O    3   -0.21789      0.99989     3.20669    0.01131     4.21789
      N    4   -0.17583      0.99964     2.66268    0.01351     3.67583
      C    5    0.45689      0.99972     1.51964    0.02375     2.54311
      O    6   -0.32240      0.99987     3.31705    0.00547     4.32240
      O    7   -0.28120      0.99986     3.27255    0.00880     4.28120
      C    8   -0.01850      0.99955     2.00617    0.01277     3.01850
      C    9   -0.09996      0.99958     2.08728    0.01309     3.09996
      N   10   -0.20716      0.99971     2.69290    0.01455     3.70716
      N   11    0.13435      0.99970     2.35015    0.01580     3.36565
      N   12   -0.01997      0.99981     2.50617    0.01400     3.51997
      H   13    0.09605      0.00000     0.40250    0.00145     0.40395
      H   14    0.09958      0.00000     0.39955    0.00087     0.40042
      H   15    0.11396      0.00000     0.38429    0.00175     0.38604
      H   16    0.08113      0.00000     0.41662    0.00225     0.41887
      H   17    0.08755      0.00000     0.41055    0.00190     0.41245
      H   18    0.18861      0.00000     0.30921    0.00218     0.31139
      H   19    0.09510      0.00000     0.40352    0.00138     0.40490
      H   20    0.09598      0.00000     0.40256    0.00146     0.40402
      H   21    0.10673      0.00000     0.38809    0.00519     0.39327
      H   22    0.09508      0.00000     0.40215    0.00277     0.40492
 =======================================================================
   * Total *   -0.00000     11.99658    33.83131    0.17211    46.00000

 Normal termination of Gaussian 16 at Wed Dec  9 17:19:15 2020.
