 Gaussian 16, Revision A.03,

 -----------------------------------------------------------
 # opt freq B3LYP/6-31G(d) empiricaldispersion=gd3bj scf=xqc
 -----------------------------------------------------------

 -------------------------------
 CID_135043819_JID_5316_neutraal
 -------------------------------
 Symbolic Z-matrix:
 Charge =  0 Multiplicity = 1

 SCF Done:  E(RB3LYP) =  -667.590404896     A.U. after   15 cycles
 SCF Done:  E(RB3LYP) =  -667.597931812     A.U. after   15 cycles
 SCF Done:  E(RB3LYP) =  -667.599882023     A.U. after   14 cycles
 SCF Done:  E(RB3LYP) =  -667.601688077     A.U. after   13 cycles
 SCF Done:  E(RB3LYP) =  -667.603036764     A.U. after   14 cycles
 SCF Done:  E(RB3LYP) =  -667.604087702     A.U. after   15 cycles
 SCF Done:  E(RB3LYP) =  -667.605081327     A.U. after   14 cycles
 SCF Done:  E(RB3LYP) =  -667.604955849     A.U. after   14 cycles
 SCF Done:  E(RB3LYP) =  -667.605853733     A.U. after   14 cycles
 SCF Done:  E(RB3LYP) =  -667.605969076     A.U. after   12 cycles
 SCF Done:  E(RB3LYP) =  -667.605978862     A.U. after   12 cycles
 SCF Done:  E(RB3LYP) =  -667.606013532     A.U. after   11 cycles
 SCF Done:  E(RB3LYP) =  -667.606018413     A.U. after   10 cycles
 SCF Done:  E(RB3LYP) =  -667.606018846     A.U. after    8 cycles
 SCF Done:  E(RB3LYP) =  -667.606018967     A.U. after    8 cycles
 Optimization completed.
    -- Stationary point found.
 Normal termination of Gaussian 16 at Thu Dec 10 15:35:17 2020.

 --------------------------------------------------------------------
 #N Geom=AllCheck Guess=TCheck SCRF=Check GenChk RB3LYP/6-31G(d) Freq
 --------------------------------------------------------------------

 Structure from the checkpoint file:  "JID_5316.chk"
 -------------------------------
 CID_135043819_JID_5316_neutraal
 -------------------------------
 Charge =  0 Multiplicity = 1

 SCF Done:  E(RB3LYP) =  -667.606018967     A.U. after    1 cycles

  Exact polarizability: 150.095 -11.921 131.455  33.807   4.231 132.129
 Approx polarizability: 240.792 -19.940 181.493  96.975   7.289 263.786

                      1                      2                      3
                      A                      A                      A
 Frequencies --     33.2658                45.7561                72.3905
 Red. masses --      6.5599                 4.6448                 5.0743
 Frc consts  --      0.0043                 0.0057                 0.0157
 IR Inten    --      0.3824                 0.1361                 0.4600

                      4                      5                      6
                      A                      A                      A
 Frequencies --    102.4493               121.1151               126.9094
 Red. masses --      3.1610                 5.1557                 3.2223
 Frc consts  --      0.0195                 0.0446                 0.0306
 IR Inten    --      0.3565                 1.5666                 0.1408

                      7                      8                      9
                      A                      A                      A
 Frequencies --    151.3628               188.5819               216.3780
 Red. masses --      3.7950                 3.6130                 3.2532
 Frc consts  --      0.0512                 0.0757                 0.0897
 IR Inten    --      0.2607                 0.4249                 0.9378

                     10                     11                     12
                      A                      A                      A
 Frequencies --    247.0521               276.2803               306.7074
 Red. masses --      3.7294                 2.1344                 3.0850
 Frc consts  --      0.1341                 0.0960                 0.1710
 IR Inten    --      6.1035                 4.5452                 2.8961

                     13                     14                     15
                      A                      A                      A
 Frequencies --    375.0739               391.0664               405.5647
 Red. masses --      3.5517                 2.3248                 2.6030
 Frc consts  --      0.2944                 0.2095                 0.2523
 IR Inten    --      4.2701                 1.2972                 1.9767

                     16                     17                     18
                      A                      A                      A
 Frequencies --    442.0305               462.8457               484.2249
 Red. masses --      2.8460                 2.6004                 3.3645
 Frc consts  --      0.3276                 0.3282                 0.4648
 IR Inten    --      0.5380                 4.5123                 3.0371

                     19                     20                     21
                      A                      A                      A
 Frequencies --    497.0531               529.1534               575.4157
 Red. masses --      2.9557                10.3101                 2.8042
 Frc consts  --      0.4302                 1.7009                 0.5470
 IR Inten    --      4.7864                 9.2859                 1.2746

                     22                     23                     24
                      A                      A                      A
 Frequencies --    602.3240               653.7138               693.8294
 Red. masses --      4.4558                 6.3059                 1.6771
 Frc consts  --      0.9524                 1.5877                 0.4757
 IR Inten    --      4.9822                11.8626                 0.0358

                     25                     26                     27
                      A                      A                      A
 Frequencies --    728.1382               733.2174               773.4056
 Red. masses --      1.4236                 1.7165                 3.0489
 Frc consts  --      0.4447                 0.5437                 1.0745
 IR Inten    --      0.4409                 2.5260                 0.2130

                     28                     29                     30
                      A                      A                      A
 Frequencies --    817.6152               845.3612               876.7435
 Red. masses --      2.2848                 5.5211                 1.3723
 Frc consts  --      0.8999                 2.3247                 0.6215
 IR Inten    --      9.9453                20.5733                61.1346

                     31                     32                     33
                      A                      A                      A
 Frequencies --    886.0532               902.9063               925.8385
 Red. masses --      2.6934                 1.7234                 1.3875
 Frc consts  --      1.2459                 0.8278                 0.7008
 IR Inten    --      4.2695                 6.7574                29.9245

                     34                     35                     36
                      A                      A                      A
 Frequencies --    934.4796               949.0728               951.4721
 Red. masses --      1.7509                 1.7164                 1.9633
 Frc consts  --      0.9008                 0.9109                 1.0472
 IR Inten    --     18.9034                 7.2999                 6.6898

                     37                     38                     39
                      A                      A                      A
 Frequencies --    976.5802              1034.7012              1044.1481
 Red. masses --      2.3304                 1.1447                 1.8685
 Frc consts  --      1.3095                 0.7221                 1.2002
 IR Inten    --      5.7823                10.6039                 1.1927

                     40                     41                     42
                      A                      A                      A
 Frequencies --   1061.2671              1079.2929              1082.6868
 Red. masses --      1.9105                 2.1781                 2.0774
 Frc consts  --      1.2678                 1.4949                 1.4347
 IR Inten    --      3.1253                41.6085                32.6350

                     43                     44                     45
                      A                      A                      A
 Frequencies --   1117.6846              1147.7047              1203.1274
 Red. masses --      2.5417                 1.7707                 1.2863
 Frc consts  --      1.8708                 1.3743                 1.0970
 IR Inten    --    100.8657                12.6768                10.7895

                     46                     47                     48
                      A                      A                      A
 Frequencies --   1214.0855              1233.8948              1253.8681
 Red. masses --      1.7451                 1.6722                 3.6476
 Frc consts  --      1.5156                 1.5000                 3.3788
 IR Inten    --     24.8017                 2.8738                 3.5661

                     49                     50                     51
                      A                      A                      A
 Frequencies --   1309.0577              1314.6255              1337.1399
 Red. masses --      1.2025                 1.1693                 1.3671
 Frc consts  --      1.2141                 1.1907                 1.4401
 IR Inten    --      8.5150                 6.1444                 2.5080

                     52                     53                     54
                      A                      A                      A
 Frequencies --   1366.1925              1376.6251              1389.4820
 Red. masses --      1.2517                 1.5853                 3.7601
 Frc consts  --      1.3765                 1.7701                 4.2771
 IR Inten    --      1.9161                21.1185               115.3888

                     55                     56                     57
                      A                      A                      A
 Frequencies --   1392.1323              1401.6951              1406.8580
 Red. masses --      1.5040                 1.4039                 1.3942
 Frc consts  --      1.7174                 1.6252                 1.6258
 IR Inten    --      9.8170                18.9866                12.1962

                     58                     59                     60
                      A                      A                      A
 Frequencies --   1410.2024              1432.7551              1456.8454
 Red. masses --      1.3396                 1.9732                 1.2252
 Frc consts  --      1.5696                 2.3865                 1.5321
 IR Inten    --      5.1185                 1.0034                 7.8696

                     61                     62                     63
                      A                      A                      A
 Frequencies --   1475.7544              1503.4873              1513.7032
 Red. masses --      1.2442                 1.0889                 1.0821
 Frc consts  --      1.5965                 1.4502                 1.4608
 IR Inten    --      1.4094                 2.7775                 2.0756

                     64                     65                     66
                      A                      A                      A
 Frequencies --   1514.4398              1530.3751              1691.6363
 Red. masses --      1.0880                 1.0963                 4.5941
 Frc consts  --      1.4702                 1.5128                 7.7457
 IR Inten    --      8.5814                 5.0853                18.1940

                     67                     68                     69
                      A                      A                      A
 Frequencies --   1710.3364              1723.5045              2267.9431
 Red. masses --      5.2592                 5.5908                13.9431
 Frc consts  --      9.0643                 9.7848                42.2545
 IR Inten    --     92.1534                 1.8199               586.2217

                     70                     71                     72
                      A                      A                      A
 Frequencies --   3021.1328              3038.8701              3044.1851
 Red. masses --      1.0695                 1.0708                 1.0576
 Frc consts  --      5.7516                 5.8264                 5.7747
 IR Inten    --     24.8217                 5.6115                32.5029

                     73                     74                     75
                      A                      A                      A
 Frequencies --   3056.2921              3065.1374              3080.4941
 Red. masses --      1.0784                 1.0681                 1.0908
 Frc consts  --      5.9349                 5.9121                 6.0988
 IR Inten    --     46.7329                33.8165                24.6873

                     76                     77                     78
                      A                      A                      A
 Frequencies --   3083.5358              3089.7522              3121.0718
 Red. masses --      1.1063                 1.0985                 1.0969
 Frc consts  --      6.1974                 6.1787                 6.2955
 IR Inten    --     25.3199                28.6920                35.9991

                     79                     80                     81
                      A                      A                      A
 Frequencies --   3154.5367              3169.6273              3176.5535
 Red. masses --      1.0851                 1.0886                 1.0642
 Frc consts  --      6.3618                 6.4437                 6.3269
 IR Inten    --      8.5511                18.6979                 4.9927

                     82                     83                     84
                      A                      A                      A
 Frequencies --   3193.2272              3252.7320              3279.7312
 Red. masses --      1.0594                 1.1159                 1.1180
 Frc consts  --      6.3645                 6.9562                 7.0856
 IR Inten    --      0.2244                15.8060                 5.3077

 - Thermochemistry -
 -------------------
 Temperature   298.150 Kelvin.  Pressure   1.00000 Atm.
 Atom     1 has atomic number  6 and mass  12.00000

 Molecular mass:   205.12151 amu.
 Principal axes and moments of inertia in atomic units:
                           1         2         3
     Eigenvalues --  2270.892693605.225524246.84342
           X            0.99947  -0.03246  -0.00287
           Y            0.03248   0.99946   0.00490
           Z            0.00271  -0.00499   0.99998
 This molecule is an asymmetric top.
 Rotational symmetry number  1.
 Warning -- assumption of classical behavior for rotation
           may cause significant error
 Rotational temperatures (Kelvin)      0.03814     0.02402     0.02039
 Rotational constants (GHZ):           0.79473     0.50059     0.42496
 Zero-point vibrational energy     658697.1 (Joules/Mol)
                                  157.43239 (Kcal/Mol)
 Warning -- explicit consideration of  22 degrees of freedom as
           vibrations may cause significant error
 Vibrational temperatures:     47.86    65.83   104.15   147.40   174.26
          (Kelvin)            182.59   217.78   271.33   311.32   355.45
                              397.51   441.28   539.65   562.66   583.52
                              635.98   665.93   696.69   715.15   761.33
                              827.89   866.61   940.55   998.27  1047.63
                             1054.94  1112.76  1176.37  1216.29  1261.44
                             1274.83  1299.08  1332.08  1344.51  1365.50
                             1368.96  1405.08  1488.70  1502.30  1526.93
                             1552.86  1557.74  1608.10  1651.29  1731.03
                             1746.80  1775.30  1804.04  1883.44  1891.45
                             1923.85  1965.65  1980.66  1999.15  2002.97
                             2016.73  2024.15  2028.97  2061.41  2096.08
                             2123.28  2163.18  2177.88  2178.94  2201.87
                             2433.89  2460.79  2479.74  3263.06  4346.74
                             4372.26  4379.90  4397.32  4410.05  4432.14
                             4436.52  4445.46  4490.53  4538.67  4560.39
                             4570.35  4594.34  4679.96  4718.80

 Zero-point correction=                           0.250884 (Hartree/Particle)
 Thermal correction to Energy=                    0.265366
 Thermal correction to Enthalpy=                  0.266310
 Thermal correction to Gibbs Free Energy=         0.208924
 Sum of electronic and zero-point Energies=           -667.355134
 Sum of electronic and thermal Energies=              -667.340653
 Sum of electronic and thermal Enthalpies=            -667.339709
 Sum of electronic and thermal Free Energies=         -667.397095

                     E (Thermal)             CV                S
                      KCal/Mol        Cal/Mol-Kelvin    Cal/Mol-Kelvin
 Total                  166.519             55.057            120.779
 Electronic               0.000              0.000              0.000
 Translational            0.889              2.981             41.860
 Rotational               0.889              2.981             31.920
 Vibrational            164.742             49.095             47.000
 Vibration     1          0.594              1.983              5.624
 Vibration     2          0.595              1.979              4.993
 Vibration     3          0.598              1.967              4.087
 Vibration     4          0.605              1.947              3.407
 Vibration     5          0.609              1.932              3.083
 Vibration     6          0.611              1.926              2.992
 Vibration     7          0.619              1.901              2.655
 Vibration     8          0.633              1.856              2.242
 Vibration     9          0.645              1.816              1.989
 Vibration    10          0.661              1.768              1.752
 Vibration    11          0.678              1.717              1.557
 Vibration    12          0.697              1.661              1.380
 Vibration    13          0.746              1.523              1.059
 Vibration    14          0.759              1.489              0.996
 Vibration    15          0.771              1.458              0.942
 Vibration    16          0.802              1.378              0.820
 Vibration    17          0.820              1.332              0.758
 Vibration    18          0.840              1.285              0.699
 Vibration    19          0.853              1.257              0.666
 Vibration    20          0.884              1.185              0.589
 Vibration    21          0.932              1.084              0.494
 Vibration    22          0.961              1.027              0.446

                           ! Non-Optimized Parameters !
 Normal termination of Gaussian 16 at Thu Dec 10 15:46:41 2020.

 ----------------------------------------------------------------------
 # B3LYP/6-311++G(d,p) empiricaldispersion=gd3bj scf=xqc pop=npa geom=c
 heck
 ----------------------------------------------------------------------

 ---------------------------------------
 CID_135043819_JID_5316_Energie_neutraal
 ---------------------------------------
 Structure from the checkpoint file:  "JID_5316.chk"
 Charge =  0 Multiplicity = 1

 SCF Done:  E(RB3LYP) =  -667.789399495     A.U. after   17 cycles
 Normal termination of Gaussian 16 at Thu Dec 10 15:52:05 2020.

 ----------------------------------------------------------------------
 # B3LYP/6-311++G(d,p) empiricaldispersion=gd3bj scf=xqc pop=npa geom=c
 heck
 ----------------------------------------------------------------------

 -------------------------------------
 CID_135043819_JID_5316_Energie_kation
 -------------------------------------
 Structure from the checkpoint file:  "JID_5316.chk"
 Charge =  1 Multiplicity = 2

 SCF Done:  E(UB3LYP) =  -667.496758526     A.U. after   27 cycles
 Normal termination of Gaussian 16 at Thu Dec 10 16:04:38 2020.
 Gaussian 16:  ES64L-G16RevA.03 25-Dec-2016

 ----------------------------------------------------------------------
 # B3LYP/6-311++G(d,p) empiricaldispersion=gd3bj scf=xqc pop=npa geom=c
 heck
 ----------------------------------------------------------------------

 ------------------------------------
 CID_135043819_JID_5316_Energie_anion
 ------------------------------------
 Structure from the checkpoint file:  "JID_5316.chk"
 Charge = -1 Multiplicity = 2

                         Standard orientation:
 ---------------------------------------------------------------------
 Center     Atomic      Atomic             Coordinates (Angstroms)
 Number     Number       Type             X           Y           Z
 ---------------------------------------------------------------------
      1          6           0        3.343221   -2.222709    0.126376
      2          6           0        2.185474   -1.819087   -0.414297
      3          6           0        1.668535   -0.449861   -0.430736
      4          6           0        0.515443   -0.189211   -1.075430
      5          6           0       -0.104137    1.169911   -1.234160
      6          6           0        0.765470    2.296501   -0.651585
      7          6           0        1.579410    1.869156    0.573671
      8          6           0        2.447135    0.645918    0.262124
      9          8           0       -1.484459    1.189139   -0.794695
     10          6           0       -1.761569    1.169753    0.592621
     11          6           0       -1.488628   -0.145791    1.293108
     12          6           0       -0.902695   -0.221479    2.494316
     13          7           0       -1.946672   -1.344687    0.703511
     14          7           0       -2.489857   -1.324061   -0.410467
     15          7           0       -3.002718   -1.512198   -1.411718
     16          1           0        4.026960   -1.540083    0.622132
     17          1           0        3.647908   -3.263775    0.084167
     18          1           0        1.551253   -2.557293   -0.904473
     19          1           0       -0.019278   -1.003180   -1.561468
     20          1           0       -0.233392    1.359337   -2.306443
     21          1           0        0.128885    3.161728   -0.433812
     22          1           0        1.462538    2.614701   -1.438092
     23          1           0        2.210013    2.699426    0.911997
     24          1           0        0.913215    1.616132    1.403551
     25          1           0        3.300747    0.935571   -0.369073
     26          1           0        2.877218    0.257355    1.192185
     27          1           0       -1.242262    1.971334    1.131631
     28          1           0       -2.836881    1.381600    0.649093
     29          1           0       -0.782224   -1.170754    3.003577
     30          1           0       -0.540262    0.672809    2.987255
 ---------------------------------------------------------------------

 SCF Done:  E(UB3LYP) =  -667.784210432     A.U. after   33 cycles
 SCF Done:  E(UB3LYP) =  -667.784210467     a.u. after    2 cycles

 The electronic state is 2-A.
 Alpha  occ. eigenvalues --  -18.99865 -14.34738 -14.24881 -14.23833 -10.10404
 Alpha  occ. eigenvalues --  -10.09743 -10.08547 -10.05519 -10.05299 -10.04795
 Alpha  occ. eigenvalues --  -10.03314 -10.03059 -10.02508 -10.01747 -10.01667
 Alpha  occ. eigenvalues --   -1.01166  -0.90936  -0.85550  -0.71393  -0.67680
 Alpha  occ. eigenvalues --   -0.65377  -0.62307  -0.59324  -0.56292  -0.51335
 Alpha  occ. eigenvalues --   -0.49721  -0.48827  -0.43730  -0.39916  -0.39311
 Alpha  occ. eigenvalues --   -0.38784  -0.37367  -0.36589  -0.35267  -0.33932
 Alpha  occ. eigenvalues --   -0.33263  -0.32384  -0.30971  -0.30409  -0.28736
 Alpha  occ. eigenvalues --   -0.28444  -0.27913  -0.27042  -0.25879  -0.23404
 Alpha  occ. eigenvalues --   -0.22446  -0.21738  -0.20543  -0.19751  -0.18415
 Alpha  occ. eigenvalues --   -0.17872  -0.16994  -0.13745  -0.10431  -0.09434
 Alpha  occ. eigenvalues --    0.05393
 Alpha virt. eigenvalues --    0.07774   0.08577   0.08905   0.09223   0.09436
 Alpha virt. eigenvalues --    0.09894   0.10855   0.11080   0.11880   0.12113
 Alpha virt. eigenvalues --    0.12601   0.13215   0.14238   0.14745   0.14847

  Beta  occ. eigenvalues --  -18.99800 -14.34571 -14.24727 -14.23904 -10.10395
  Beta  occ. eigenvalues --  -10.09752 -10.08423 -10.05515 -10.05297 -10.04805
  Beta  occ. eigenvalues --  -10.03191 -10.02994 -10.02350 -10.01512 -10.01456
  Beta  occ. eigenvalues --   -1.00907  -0.90795  -0.85464  -0.71220  -0.67409
  Beta  occ. eigenvalues --   -0.65110  -0.62135  -0.59029  -0.56148  -0.51028
  Beta  occ. eigenvalues --   -0.49574  -0.48553  -0.43399  -0.39739  -0.39074
  Beta  occ. eigenvalues --   -0.38437  -0.37146  -0.36352  -0.35123  -0.33747
  Beta  occ. eigenvalues --   -0.32937  -0.32290  -0.30844  -0.30228  -0.28648
  Beta  occ. eigenvalues --   -0.28322  -0.27778  -0.26902  -0.25733  -0.23266
  Beta  occ. eigenvalues --   -0.22367  -0.21646  -0.20112  -0.19548  -0.18336
  Beta  occ. eigenvalues --   -0.17790  -0.16049  -0.13619  -0.09519  -0.08124
  Beta virt. eigenvalues --    0.07723   0.08792   0.08930   0.09363   0.09552
  Beta virt. eigenvalues --    0.10219   0.10647   0.10902   0.11166   0.11845
  Beta virt. eigenvalues --    0.12043   0.12765   0.13290   0.14308   0.14790

 Mulliken charges and spin densities:
               1          2
     1  C   -0.785526   0.263142
     2  C   -0.169225   0.100540
     3  C    1.380950  -0.124449
     4  C   -0.736586   0.354393
     5  C   -0.304446  -0.008070
     6  C   -0.291656  -0.255437
     7  C    0.139880   0.053108
     8  C   -0.968470  -0.064594
     9  O   -0.014200   0.011902
    10  C    0.332598  -0.691135
    11  C    0.019696   0.395806
    12  C   -0.631259   0.096303
    13  N   -0.083403   0.004109
    14  N    0.244697   0.036264
    15  N   -0.209006   0.053716
    16  H    0.090932   0.000935
    17  H    0.099076  -0.004984
    18  H    0.126908  -0.002478
    19  H    0.115767   0.008735
    20  H   -0.013477   0.197354
    21  H    0.030727   0.135593
    22  H    0.137097  -0.015436
    23  H    0.144555   0.007079
    24  H    0.111795  -0.071052
    25  H    0.087369   0.053786
    26  H    0.126472  -0.014518
    27  H    0.032325   0.090814
    28  H   -0.111914   0.288771
    29  H    0.116779  -0.006412
    30  H   -0.018454   0.106214
 Sum of Mulliken charges =  -1.00000   1.00000

 Dipole moment (field-independent basis, Debye):
    X=              1.2977    Y=              2.6562    Z=              0.6061  Tot=              3.0177
 Quadrupole moment (field-independent basis, Debye-Ang):
   XX=           -133.5527   YY=           -112.7601   ZZ=           -115.0503
   XY=              8.6283   XZ=             -0.3570   YZ=              1.6958

 Summary of Natural Population Analysis:

                                       Natural Population
                Natural  -----------------------------------------------
    Atom  No    Charge         Core      Valence    Rydberg      Total
 -----------------------------------------------------------------------
      C    1   -0.16141      0.99960     2.15427    0.00754     3.16141
      C    2   -0.08794      0.99954     2.07892    0.00947     3.08794
      C    3   -0.00460      0.99945     1.99463    0.01052     3.00460
      C    4   -0.06815      0.99947     2.05851    0.01017     3.06815
      C    5    0.05333      0.99950     1.93054    0.01662     2.94667
      C    6   -0.20382      0.99961     2.19492    0.00928     3.20382
      C    7   -0.19075      0.99963     2.18344    0.00767     3.19075
      C    8   -0.19939      0.99960     2.19169    0.00810     3.19939
      O    9   -0.30164      0.99989     3.29071    0.01105     4.30164
      C   10   -0.02945      0.99951     2.01595    0.01398     3.02945
      C   11    0.06983      0.99945     1.91718    0.01354     2.93017
      C   12   -0.18308      0.99951     2.17535    0.00822     3.18308
      N   13   -0.18568      0.99963     2.67234    0.01371     3.68568
      N   14    0.13499      0.99970     2.34900    0.01631     3.36501
      N   15   -0.03242      0.99982     2.52012    0.01248     3.53242
      H   16    0.08218      0.00000     0.41684    0.00099     0.41782
      H   17    0.08385      0.00000     0.41514    0.00101     0.41615
      H   18    0.08826      0.00000     0.41025    0.00149     0.41174
      H   19    0.09259      0.00000     0.40608    0.00133     0.40741
      H   20    0.09550      0.00000     0.40315    0.00134     0.40450
      H   21    0.09982      0.00000     0.39911    0.00107     0.40018
      H   22    0.09675      0.00000     0.40236    0.00089     0.40325
      H   23    0.08971      0.00000     0.40933    0.00096     0.41029
      H   24    0.09969      0.00000     0.39869    0.00161     0.40031
      H   25    0.09578      0.00000     0.40291    0.00131     0.40422
      H   26    0.10221      0.00000     0.39676    0.00104     0.39779
      H   27    0.08461      0.00000     0.41411    0.00128     0.41539
      H   28    0.09456      0.00000     0.40388    0.00156     0.40544
      H   29    0.09552      0.00000     0.40342    0.00107     0.40448
      H   30    0.08914      0.00000     0.40998    0.00088     0.41086
 =======================================================================
   * Total *    0.00000     14.99392    39.81957    0.18651    55.00000

 Normal termination of Gaussian 16 at Thu Dec 10 16:28:25 2020.
