 Gaussian 16, Revision A.03,

 -----------------------------------------------------------
 # opt freq B3LYP/6-31G(d) empiricaldispersion=gd3bj scf=xqc
 -----------------------------------------------------------

 ------------------------------
 CID_12962620_JID_2873_neutraal
 ------------------------------
 Symbolic Z-matrix:
 Charge =  0 Multiplicity = 1

 SCF Done:  E(RB3LYP) =  -914.858393199     A.U. after   14 cycles
 SCF Done:  E(RB3LYP) =  -914.863159518     A.U. after   12 cycles
 SCF Done:  E(RB3LYP) =  -914.863888174     A.U. after   12 cycles
 SCF Done:  E(RB3LYP) =  -914.864118393     A.U. after   12 cycles
 SCF Done:  E(RB3LYP) =  -914.864236117     A.U. after   12 cycles
 SCF Done:  E(RB3LYP) =  -914.864305397     A.U. after   11 cycles
 SCF Done:  E(RB3LYP) =  -914.864329846     A.U. after   10 cycles
 SCF Done:  E(RB3LYP) =  -914.864332674     A.U. after    8 cycles
 SCF Done:  E(RB3LYP) =  -914.864333460     A.U. after    8 cycles
 SCF Done:  E(RB3LYP) =  -914.864333657     A.U. after    8 cycles
 SCF Done:  E(RB3LYP) =  -914.864333703     A.U. after    7 cycles
 SCF Done:  E(RB3LYP) =  -914.864333735     A.U. after    7 cycles
 SCF Done:  E(RB3LYP) =  -914.864333759     A.U. after    7 cycles
 Optimization completed.
    -- Stationary point found.
 Normal termination of Gaussian 16 at Wed Dec  9 18:10:11 2020.

 --------------------------------------------------------------------
 #N Geom=AllCheck Guess=TCheck SCRF=Check GenChk RB3LYP/6-31G(d) Freq
 --------------------------------------------------------------------

 Structure from the checkpoint file:  "JID_2873.chk"
 ------------------------------
 CID_12962620_JID_2873_neutraal
 ------------------------------
 Charge =  0 Multiplicity = 1

 SCF Done:  E(RB3LYP) =  -914.864333759     A.U. after    1 cycles

  Exact polarizability: 122.897  -6.730  95.142 -13.378  -8.276  97.537
 Approx polarizability: 172.154 -15.284 148.143 -33.575 -23.222 173.482

                      1                      2                      3
                      A                      A                      A
 Frequencies --     30.4851                39.6659                63.1663
 Red. masses --      4.4095                 3.8206                 4.1182
 Frc consts  --      0.0024                 0.0035                 0.0097
 IR Inten    --      0.9398                 1.0821                 0.3422

                      4                      5                      6
                      A                      A                      A
 Frequencies --    122.1074               136.3388               184.6470
 Red. masses --      4.2617                 4.4246                 3.2688
 Frc consts  --      0.0374                 0.0485                 0.0657
 IR Inten    --      0.1885                 0.5812                 0.4128

                      7                      8                      9
                      A                      A                      A
 Frequencies --    200.5682               243.8624               261.9631
 Red. masses --      1.5885                 2.5482                 7.0309
 Frc consts  --      0.0376                 0.0893                 0.2843
 IR Inten    --      0.4892                 0.4513                 0.7434

                     10                     11                     12
                      A                      A                      A
 Frequencies --    346.2958               379.4407               411.7875
 Red. masses --      2.6774                 1.5546                 2.6131
 Frc consts  --      0.1892                 0.1319                 0.2611
 IR Inten    --      3.6228                79.9402                42.1455

                     13                     14                     15
                      A                      A                      A
 Frequencies --    435.4974               459.6417               479.9570
 Red. masses --      3.4159                 4.8044                 4.6309
 Frc consts  --      0.3817                 0.5980                 0.6285
 IR Inten    --     32.7474                 2.1337                 4.7135

                     16                     17                     18
                      A                      A                      A
 Frequencies --    595.3971               610.5300               661.7554
 Red. masses --      4.2340                 4.8649                 5.4266
 Frc consts  --      0.8843                 1.0684                 1.4001
 IR Inten    --     11.0209                20.7525                 5.7788

                     19                     20                     21
                      A                      A                      A
 Frequencies --    690.9251               693.7678               772.4394
 Red. masses --      2.9618                 1.2219                 2.0927
 Frc consts  --      0.8330                 0.3465                 0.7357
 IR Inten    --     25.3499                 9.8745                31.7732

                     22                     23                     24
                      A                      A                      A
 Frequencies --    788.4630               820.5291               843.8715
 Red. masses --      1.8776                 1.9166                 1.8439
 Frc consts  --      0.6877                 0.7603                 0.7737
 IR Inten    --     30.6516                12.4626                14.1608

                     25                     26                     27
                      A                      A                      A
 Frequencies --    851.1772               866.8861               880.7476
 Red. masses --      3.6020                 1.9448                 2.1550
 Frc consts  --      1.5376                 0.8611                 0.9849
 IR Inten    --     14.7647                79.9772                34.5816

                     28                     29                     30
                      A                      A                      A
 Frequencies --    907.6591               931.2206               977.2451
 Red. masses --      1.3146                 2.4323                 2.8878
 Frc consts  --      0.6381                 1.2427                 1.6249
 IR Inten    --      2.0299                16.9078                 4.1169

                     31                     32                     33
                      A                      A                      A
 Frequencies --   1051.6009              1091.8933              1117.2247
 Red. masses --      2.6464                 4.1657                 1.2326
 Frc consts  --      1.7243                 2.9261                 0.9065
 IR Inten    --     36.3730               127.9396                18.2182

                     34                     35                     36
                      A                      A                      A
 Frequencies --   1118.9902              1142.2689              1173.6577
 Red. masses --      1.7327                 2.3285                 1.6207
 Frc consts  --      1.2783                 1.7901                 1.3154
 IR Inten    --      3.5342               116.1871                13.3848

                     37                     38                     39
                      A                      A                      A
 Frequencies --   1211.7916              1237.3905              1284.9042
 Red. masses --      1.7674                 1.4599                 1.4441
 Frc consts  --      1.5292                 1.3170                 1.4047
 IR Inten    --     28.8136                24.5780                10.1336

                     40                     41                     42
                      A                      A                      A
 Frequencies --   1315.2631              1331.4558              1343.9954
 Red. masses --      1.3818                 1.1248                 2.1742
 Frc consts  --      1.4084                 1.1748                 2.3139
 IR Inten    --     24.8793                 3.5967               217.4142

                     43                     44                     45
                      A                      A                      A
 Frequencies --   1413.7426              1420.0906              1442.0733
 Red. masses --      2.3942                 1.3821                 1.3764
 Frc consts  --      2.8194                 1.6422                 1.6865
 IR Inten    --     15.0390                 4.8852                95.2565

                     46                     47                     48
                      A                      A                      A
 Frequencies --   1446.1555              1478.9882              1515.6797
 Red. masses --      1.2857                 6.2811                 1.0413
 Frc consts  --      1.5843                 8.0950                 1.4094
 IR Inten    --      4.0091                20.8830                10.3052

                     49                     50                     51
                      A                      A                      A
 Frequencies --   1529.1335              1545.0930              1602.9437
 Red. masses --      1.0510                 1.0902                 6.0263
 Frc consts  --      1.4479                 1.5335                 9.1229
 IR Inten    --      0.7931                10.7897                 0.0350

                     52                     53                     54
                      A                      A                      A
 Frequencies --   1749.8003              3055.2484              3065.5864
 Red. masses --      8.3024                 1.0686                 1.0359
 Frc consts  --     14.9771                 5.8768                 5.7359
 IR Inten    --    122.5850                38.5634                 9.7234

                     55                     56                     57
                      A                      A                      A
 Frequencies --   3109.5230              3125.4717              3137.6096
 Red. masses --      1.0859                 1.0988                 1.1009
 Frc consts  --      6.1865                 6.3241                 6.3856
 IR Inten    --      9.2096                 3.6640                28.7322

                     58                     59                     60
                      A                      A                      A
 Frequencies --   3150.4077              3231.6913              3270.3419
 Red. masses --      1.1036                 1.0903                 1.0973
 Frc consts  --      6.4534                 6.7089                 6.9144
 IR Inten    --     26.5778                 0.4802                 0.9161

                     61                     62                     63
                      A                      A                      A
 Frequencies --   3287.1422              3475.1484              3719.8302
 Red. masses --      1.0934                 1.0743                 1.0650
 Frc consts  --      6.9606                 7.6437                 8.6823
 IR Inten    --      1.0694                 5.7305                29.7532

 - Thermochemistry -
 -------------------
 Temperature   298.150 Kelvin.  Pressure   1.00000 Atm.
 Atom     1 has atomic number  6 and mass  12.00000

 Molecular mass:   185.05105 amu.
 Principal axes and moments of inertia in atomic units:
                           1         2         3
     Eigenvalues --  1403.096653461.348003914.09166
           X            0.99948   0.03013   0.01182
           Y           -0.03004   0.99951  -0.00825
           Z           -0.01207   0.00789   0.99990
 This molecule is an asymmetric top.
 Rotational symmetry number  1.
 Warning -- assumption of classical behavior for rotation
           may cause significant error
 Rotational temperatures (Kelvin)      0.06173     0.02502     0.02213
 Rotational constants (GHZ):           1.28626     0.52140     0.46109
 Zero-point vibrational energy     483770.9 (Joules/Mol)
                                  115.62402 (Kcal/Mol)
 Warning -- explicit consideration of  17 degrees of freedom as
           vibrations may cause significant error
 Vibrational temperatures:     43.86    57.07    90.88   175.69   196.16
          (Kelvin)            265.67   288.57   350.86   376.91   498.24
                              545.93   592.47   626.58   661.32   690.55
                              856.64   878.42   952.12   994.09   998.18
                             1111.37  1134.42  1180.56  1214.14  1224.65
                             1247.26  1267.20  1305.92  1339.82  1406.04
                             1513.02  1570.99  1607.44  1609.98  1643.47
                             1688.63  1743.50  1780.33  1848.69  1892.37
                             1915.67  1933.71  2034.06  2043.19  2074.82
                             2080.70  2127.93  2180.73  2200.08  2223.04
                             2306.28  2517.57  4395.82  4410.70  4473.91
                             4496.86  4514.32  4532.73  4649.68  4705.29
                             4729.46  4999.96  5352.01

 Zero-point correction=                           0.184259 (Hartree/Particle)
 Thermal correction to Energy=                    0.196441
 Thermal correction to Enthalpy=                  0.197385
 Thermal correction to Gibbs Free Energy=         0.144315
 Sum of electronic and zero-point Energies=           -914.680075
 Sum of electronic and thermal Energies=              -914.667893
 Sum of electronic and thermal Enthalpies=            -914.666949
 Sum of electronic and thermal Free Energies=         -914.720019

                     E (Thermal)             CV                S
                      KCal/Mol        Cal/Mol-Kelvin    Cal/Mol-Kelvin
 Total                  123.269             45.028            111.696
 Electronic               0.000              0.000              0.000
 Translational            0.889              2.981             41.553
 Rotational               0.889              2.981             31.320
 Vibrational            121.491             39.066             38.824
 Vibration     1          0.594              1.984              5.798
 Vibration     2          0.594              1.981              5.276
 Vibration     3          0.597              1.972              4.356
 Vibration     4          0.610              1.931              3.067
 Vibration     5          0.614              1.917              2.855
 Vibration     6          0.631              1.861              2.281
 Vibration     7          0.638              1.839              2.128
 Vibration     8          0.659              1.773              1.775
 Vibration     9          0.669              1.742              1.649
 Vibration    10          0.724              1.583              1.183
 Vibration    11          0.749              1.514              1.041
 Vibration    12          0.776              1.445              0.920
 Vibration    13          0.796              1.393              0.841
 Vibration    14          0.818              1.340              0.767
 Vibration    15          0.836              1.295              0.710
 Vibration    16          0.953              1.042              0.458
 Vibration    17          0.970              1.010              0.432

 Optimization completed.
    -- Stationary point found.
 Normal termination of Gaussian 16 at Wed Dec  9 18:15:30 2020.

 ----------------------------------------------------------------------
 # B3LYP/6-311++G(d,p) empiricaldispersion=gd3bj scf=xqc pop=npa geom=c
 heck
 ----------------------------------------------------------------------

 --------------------------------------
 CID_12962620_JID_2873_Energie_neutraal
 --------------------------------------
 Structure from the checkpoint file:  "JID_2873.chk"
 Charge =  0 Multiplicity = 1

 SCF Done:  E(RB3LYP) =  -915.050026076     A.U. after   15 cycles
 Normal termination of Gaussian 16 at Wed Dec  9 18:18:10 2020.

 ----------------------------------------------------------------------
 # B3LYP/6-311++G(d,p) empiricaldispersion=gd3bj scf=xqc pop=npa geom=c
 heck
 ----------------------------------------------------------------------

 ------------------------------------
 CID_12962620_JID_2873_Energie_kation
 ------------------------------------
 Structure from the checkpoint file:  "JID_2873.chk"
 Charge =  1 Multiplicity = 2

 SCF Done:  E(UB3LYP) =  -914.734256984     A.U. after   31 cycles
 Normal termination of Gaussian 16 at Wed Dec  9 18:25:16 2020.
 Gaussian 16:  ES64L-G16RevA.03 25-Dec-2016

 ----------------------------------------------------------------------
 # B3LYP/6-311++G(d,p) empiricaldispersion=gd3bj scf=xqc pop=npa geom=c
 heck
 ----------------------------------------------------------------------

 -----------------------------------
 CID_12962620_JID_2873_Energie_anion
 -----------------------------------
 Structure from the checkpoint file:  "JID_2873.chk"
 Charge = -1 Multiplicity = 2

                         Standard orientation:
 ---------------------------------------------------------------------
 Center     Atomic      Atomic             Coordinates (Angstroms)
 Number     Number       Type             X           Y           Z
 ---------------------------------------------------------------------
      1          6           0       -2.452938   -2.113335   -0.627084
      2          6           0       -2.984050   -0.699888   -0.820162
      3          8           0       -1.939966    0.273840   -0.670838
      4          6           0       -1.520042    0.611305    0.583039
      5          7           0       -1.993854    0.285473    1.714469
      6          6           0       -0.256361    1.453037    0.471053
      7          6           0        0.938053    0.528187    0.311876
      8          6           0        1.891564    0.692820   -0.654372
      9         16           0        3.119159   -0.530621   -0.565456
     10          6           0        2.335290   -1.275892    0.794825
     11          6           0        1.196754   -0.608916    1.147398
     12          8           0       -0.351465    2.398899   -0.579327
     13          1           0       -1.645325   -2.312584   -1.337526
     14          1           0       -3.253080   -2.843049   -0.792186
     15          1           0       -2.057960   -2.255477    0.383112
     16          1           0       -3.353794   -0.550550   -1.836944
     17          1           0       -3.806238   -0.470249   -0.130986
     18          1           0       -2.805178   -0.332532    1.649938
     19          1           0       -0.167684    2.023227    1.399546
     20          1           0        1.941542    1.477994   -1.394252
     21          1           0        2.762621   -2.158522    1.251004
     22          1           0        0.551606   -0.898606    1.968848
     23          1           0       -0.674253    1.906153   -1.352653
 ---------------------------------------------------------------------

 SCF Done:  E(UB3LYP) =  -915.037247585     A.U. after   33 cycles
 SCF Done:  E(UB3LYP) =  -915.037247585     a.u. after    1 cycles

 The electronic state is 2-A.
 Alpha  occ. eigenvalues --  -88.78082 -19.06401 -19.03208 -14.19013 -10.16812
 Alpha  occ. eigenvalues --  -10.14208 -10.12479 -10.10285 -10.09819 -10.08704
 Alpha  occ. eigenvalues --  -10.07919 -10.05622  -7.86700  -5.82984  -5.82621
 Alpha  occ. eigenvalues --   -5.82312  -0.98556  -0.93542  -0.79790  -0.78491
 Alpha  occ. eigenvalues --   -0.67811  -0.65933  -0.63249  -0.59594  -0.54968
 Alpha  occ. eigenvalues --   -0.47928  -0.46667  -0.45196  -0.43975  -0.42648
 Alpha  occ. eigenvalues --   -0.39986  -0.36199  -0.35940  -0.33889  -0.32959
 Alpha  occ. eigenvalues --   -0.30619  -0.29935  -0.29491  -0.28392  -0.27650
 Alpha  occ. eigenvalues --   -0.26619  -0.25701  -0.24449  -0.23828  -0.20325
 Alpha  occ. eigenvalues --   -0.18173  -0.17362  -0.15621  -0.14453   0.04741
 Alpha virt. eigenvalues --    0.06818   0.06955   0.07617   0.08701   0.09151
 Alpha virt. eigenvalues --    0.09790   0.10079   0.11096   0.11289   0.11588
 Alpha virt. eigenvalues --    0.12273   0.12927   0.13543   0.13724   0.14017

  Beta  occ. eigenvalues --  -88.78073 -19.06399 -19.03199 -14.18966 -10.16780
  Beta  occ. eigenvalues --  -10.14209 -10.12432 -10.10244 -10.09769 -10.08692
  Beta  occ. eigenvalues --  -10.07910 -10.05564  -7.86691  -5.82979  -5.82615
  Beta  occ. eigenvalues --   -5.82283  -0.98533  -0.93521  -0.79713  -0.78434
  Beta  occ. eigenvalues --   -0.67746  -0.65868  -0.63175  -0.59526  -0.54873
  Beta  occ. eigenvalues --   -0.47846  -0.46553  -0.45151  -0.43917  -0.42598
  Beta  occ. eigenvalues --   -0.39927  -0.36135  -0.35875  -0.33842  -0.32917
  Beta  occ. eigenvalues --   -0.30578  -0.29880  -0.29434  -0.28287  -0.27557
  Beta  occ. eigenvalues --   -0.26539  -0.25650  -0.24394  -0.23755  -0.20297
  Beta  occ. eigenvalues --   -0.18083  -0.17291  -0.15498  -0.14229
  Beta virt. eigenvalues --    0.07139   0.07311   0.07630   0.08406   0.09350
  Beta virt. eigenvalues --    0.09570   0.10063   0.10510   0.11561   0.11721
  Beta virt. eigenvalues --    0.11916   0.12494   0.13064   0.13629   0.14066

 Mulliken charges and spin densities:
               1          2
     1  C    1.394725  -1.798196
     2  C    0.180503  -0.361224
     3  O   -0.105374   0.061210
     4  C   -0.013876  -0.049251
     5  N   -0.294657   0.079116
     6  C    1.159265  -1.764806
     7  C   -0.193365  -0.190657
     8  C   -0.111876   0.869370
     9  S    0.010945  -0.448993
    10  C   -0.034193  -0.391616
    11  C   -0.573319   0.536500
    12  O   -0.173688  -0.009618
    13  H    0.035643   0.120352
    14  H   -0.805666   0.974270
    15  H   -0.474836   0.602898
    16  H   -0.989645   1.173301
    17  H   -0.173766   0.309044
    18  H    0.065794   0.154378
    19  H    0.220264   0.010543
    20  H    0.007013   0.260406
    21  H   -0.265302   0.516964
    22  H   -0.034723   0.251765
    23  H    0.170134   0.094244
 Sum of Mulliken charges =  -1.00000   1.00000

 Dipole moment (field-independent basis, Debye):
    X=              7.8847    Y=              4.4108    Z=              1.3187  Tot=              9.1303
 Quadrupole moment (field-independent basis, Debye-Ang):
   XX=           -146.1404   YY=           -122.9823   ZZ=           -113.6645
   XY=            -16.1585   XZ=             -9.1620   YZ=             -2.8218

 Summary of Natural Population Analysis:

                                       Natural Population
                Natural  -----------------------------------------------
    Atom  No    Charge         Core      Valence    Rydberg      Total
 -----------------------------------------------------------------------
      C    1   -0.30018      0.99966     2.29484    0.00567     3.30018
      C    2   -0.01318      0.99958     2.00096    0.01265     3.01318
      O    3   -0.29463      0.99985     3.28305    0.01173     4.29463
      C    4    0.29698      0.99959     1.68276    0.02067     2.70302
      N    5   -0.35376      0.99969     2.84658    0.00749     3.85376
      C    6    0.03753      0.99945     1.94751    0.01551     2.96247
      C    7   -0.05437      0.99945     2.04207    0.01284     3.05437
      C    8   -0.18337      0.99945     2.17386    0.01006     3.18337
      S    9    0.19450      4.99946     2.78404    0.02200     7.80550
      C   10   -0.18696      0.99955     2.17558    0.01184     3.18696
      C   11   -0.12499      0.99949     2.11482    0.01068     3.12499
      O   12   -0.36677      0.99990     3.36093    0.00593     4.36677
      H   13    0.10326      0.00000     0.39509    0.00165     0.39674
      H   14    0.10957      0.00000     0.38586    0.00458     0.39043
      H   15    0.10078      0.00000     0.39713    0.00209     0.39922
      H   16    0.09813      0.00000     0.39836    0.00350     0.40187
      H   17    0.08451      0.00000     0.41289    0.00260     0.41549
      H   18    0.17086      0.00000     0.32689    0.00225     0.32914
      H   19    0.10374      0.00000     0.39468    0.00158     0.39626
      H   20    0.11541      0.00000     0.38344    0.00115     0.38459
      H   21    0.10945      0.00000     0.38960    0.00095     0.39055
      H   22    0.11729      0.00000     0.38149    0.00122     0.38271
      H   23    0.23620      0.00000     0.26071    0.00309     0.26380
 =======================================================================
   * Total *   -0.00000     15.99512    32.83315    0.17173    49.00000

 Normal termination of Gaussian 16 at Wed Dec  9 18:32:45 2020.
