 Gaussian 16, Revision A.03,

 -----------------------------------------------------------
 # opt freq B3LYP/6-31G(d) empiricaldispersion=gd3bj scf=xqc
 -----------------------------------------------------------

 -------------------------------
 CID_66414653_JID_10940_neutraal
 -------------------------------
 Symbolic Z-matrix:
 Charge =  0 Multiplicity = 1

 SCF Done:  E(RB3LYP) =  -910.138884121     A.U. after   16 cycles
 SCF Done:  E(RB3LYP) =  -910.144810795     A.U. after   15 cycles
 SCF Done:  E(RB3LYP) =  -910.142565205     A.U. after   14 cycles
 SCF Done:  E(RB3LYP) =  -910.144936204     A.U. after   14 cycles
 SCF Done:  E(RB3LYP) =  -910.145764596     A.U. after   13 cycles
 SCF Done:  E(RB3LYP) =  -910.145924134     A.U. after   13 cycles
 SCF Done:  E(RB3LYP) =  -910.146137575     A.U. after   14 cycles
 SCF Done:  E(RB3LYP) =  -910.146228265     A.U. after   14 cycles
 SCF Done:  E(RB3LYP) =  -910.146353388     A.U. after   13 cycles
 SCF Done:  E(RB3LYP) =  -910.146416352     A.U. after   13 cycles
 SCF Done:  E(RB3LYP) =  -910.146428972     A.U. after   10 cycles
 SCF Done:  E(RB3LYP) =  -910.146429162     A.U. after    9 cycles
 SCF Done:  E(RB3LYP) =  -910.146429515     A.U. after    9 cycles
 SCF Done:  E(RB3LYP) =  -910.146429606     A.U. after    8 cycles
 SCF Done:  E(RB3LYP) =  -910.146429647     A.U. after    7 cycles
 SCF Done:  E(RB3LYP) =  -910.146429665     A.U. after    7 cycles
 Optimization completed.
    -- Stationary point found.
 Normal termination of Gaussian 16 at Mon Dec 14 17:55:57 2020.

 --------------------------------------------------------------------
 #N Geom=AllCheck Guess=TCheck SCRF=Check GenChk RB3LYP/6-31G(d) Freq
 --------------------------------------------------------------------

 Structure from the checkpoint file:  "JID_10940.chk"
 -------------------------------
 CID_66414653_JID_10940_neutraal
 -------------------------------
 Charge =  0 Multiplicity = 1

 SCF Done:  E(RB3LYP) =  -910.146429665     A.U. after    1 cycles

  Exact polarizability: 194.630  29.842 177.272  36.288   8.332 145.018
 Approx polarizability: 302.561  65.576 305.646  89.446  21.532 280.009

                      1                      2                      3
                      A                      A                      A
 Frequencies --     12.7436                24.6394                44.3579
 Red. masses --      9.0349                 5.4063                 7.7104
 Frc consts  --      0.0009                 0.0019                 0.0089
 IR Inten    --      0.6761                 0.1759                 0.1074

                      4                      5                      6
                      A                      A                      A
 Frequencies --     62.1880                97.9325               141.2401
 Red. masses --      6.5943                 5.9945                 5.8786
 Frc consts  --      0.0150                 0.0339                 0.0691
 IR Inten    --      0.1164                 0.8836                 0.5585

                      7                      8                      9
                      A                      A                      A
 Frequencies --    168.6886               199.8161               212.0543
 Red. masses --      5.5157                 3.7836                 5.0446
 Frc consts  --      0.0925                 0.0890                 0.1336
 IR Inten    --      2.0573                 1.4396                 0.6679

                     10                     11                     12
                      A                      A                      A
 Frequencies --    231.0365               240.1669               312.7874
 Red. masses --      4.1171                 4.4433                 3.0117
 Frc consts  --      0.1295                 0.1510                 0.1736
 IR Inten    --      9.1135                 2.8380                 1.9880

                     13                     14                     15
                      A                      A                      A
 Frequencies --    358.2711               396.6847               426.9094
 Red. masses --      5.7188                 4.6098                 3.0487
 Frc consts  --      0.4325                 0.4274                 0.3274
 IR Inten    --      2.8648                 4.7970                21.2194

                     16                     17                     18
                      A                      A                      A
 Frequencies --    437.5165               456.2705               479.1917
 Red. masses --      3.4171                 4.7460                 1.9459
 Frc consts  --      0.3854                 0.5821                 0.2633
 IR Inten    --      1.4025                 3.7804                53.2430

                     19                     20                     21
                      A                      A                      A
 Frequencies --    497.7376               526.0945               554.6296
 Red. masses --      2.7747                 3.8043                 5.7372
 Frc consts  --      0.4050                 0.6204                 1.0398
 IR Inten    --     17.1352                22.9476                 2.3542

                     22                     23                     24
                      A                      A                      A
 Frequencies --    559.1796               585.0850               588.3753
 Red. masses --      6.2842                 4.4613                 4.9443
 Frc consts  --      1.1577                 0.8998                 1.0085
 IR Inten    --      1.2535                 9.1742                 4.9493

                     25                     26                     27
                      A                      A                      A
 Frequencies --    599.1506               662.7327               684.7769
 Red. masses --      2.6839                 3.2900                 4.4344
 Frc consts  --      0.5677                 0.8514                 1.2251
 IR Inten    --     15.2602                 9.3220                20.4392

                     28                     29                     30
                      A                      A                      A
 Frequencies --    690.8137               714.3091               752.0500
 Red. masses --      2.2983                 2.4519                 3.9232
 Frc consts  --      0.6462                 0.7371                 1.3073
 IR Inten    --     14.1289                51.4834                28.6377

                     31                     32                     33
                      A                      A                      A
 Frequencies --    764.4736               783.5542               795.3258
 Red. masses --      3.6181                 4.1028                 1.8352
 Frc consts  --      1.2458                 1.4841                 0.6839
 IR Inten    --     65.0724                31.9880                22.6162

                     34                     35                     36
                      A                      A                      A
 Frequencies --    807.9078               809.7761               819.0872
 Red. masses --      1.7297                 1.5783                 3.0522
 Frc consts  --      0.6652                 0.6098                 1.2065
 IR Inten    --      2.5951                10.4607                28.6539

                     37                     38                     39
                      A                      A                      A
 Frequencies --    832.7866               888.6504               906.5932
 Red. masses --      4.1238                 1.6069                 4.9808
 Frc consts  --      1.6851                 0.7477                 2.4120
 IR Inten    --     22.3894                23.8810                 1.4494

                     40                     41                     42
                      A                      A                      A
 Frequencies --    915.4086               923.4720               953.8331
 Red. masses --      1.4544                 4.2522                 1.3797
 Frc consts  --      0.7181                 2.1366                 0.7396
 IR Inten    --      7.9476                16.8559                 0.1619

                     43                     44                     45
                      A                      A                      A
 Frequencies --    977.5308               981.7037               998.0941
 Red. masses --      1.2777                 1.2973                 2.0906
 Frc consts  --      0.7194                 0.7366                 1.2270
 IR Inten    --      0.3294                 1.2772                 0.4393

                     46                     47                     48
                      A                      A                      A
 Frequencies --   1017.4144              1070.5450              1084.3356
 Red. masses --      5.7802                 2.8761                 3.5677
 Frc consts  --      3.5253                 1.9421                 2.4715
 IR Inten    --      1.4921                 1.3878                19.6706

                     49                     50                     51
                      A                      A                      A
 Frequencies --   1099.3875              1115.4166              1120.4398
 Red. masses --      2.6492                 1.5051                 1.6578
 Frc consts  --      1.8865                 1.1033                 1.2262
 IR Inten    --     48.8839                35.0910                13.5255

                     52                     53                     54
                      A                      A                      A
 Frequencies --   1124.6831              1166.2875              1203.5854
 Red. masses --      1.9705                 1.4182                 1.1387
 Frc consts  --      1.4685                 1.1366                 0.9719
 IR Inten    --     22.6361                 4.3821                 0.2751

                     55                     56                     57
                      A                      A                      A
 Frequencies --   1244.7189              1263.4440              1291.3725
 Red. masses --      1.4345                 2.1099                 1.6922
 Frc consts  --      1.3094                 1.9844                 1.6626
 IR Inten    --     16.4131                 3.1634                26.1903

                     58                     59                     60
                      A                      A                      A
 Frequencies --   1295.1869              1349.3721              1353.2344
 Red. masses --      1.6576                 1.7029                 3.1016
 Frc consts  --      1.6383                 1.8269                 3.3465
 IR Inten    --     38.6426                54.3757                11.5547

                     61                     62                     63
                      A                      A                      A
 Frequencies --   1366.7222              1375.4539              1386.3039
 Red. masses --      3.6571                 4.0284                 2.5172
 Frc consts  --      4.0248                 4.4903                 2.8502
 IR Inten    --     26.5895                34.8183                24.8238

                     64                     65                     66
                      A                      A                      A
 Frequencies --   1401.0584              1401.3135              1459.4773
 Red. masses --      2.2889                 3.2709                 2.8629
 Frc consts  --      2.6472                 3.7844                 3.5930
 IR Inten    --    109.8214               182.8617                45.0109

                     67                     68                     69
                      A                      A                      A
 Frequencies --   1460.4151              1470.5936              1517.0088
 Red. masses --      2.3300                 2.4111                 1.1051
 Frc consts  --      2.9279                 3.0722                 1.4983
 IR Inten    --     14.8995                11.1749                 7.3869

                     70                     71                     72
                      A                      A                      A
 Frequencies --   1539.5311              1543.6010              1555.7652
 Red. masses --      2.6097                 3.0357                 1.7180
 Frc consts  --      3.6443                 4.2616                 2.4500
 IR Inten    --     58.6640                 3.0723                77.3915

                     73                     74                     75
                      A                      A                      A
 Frequencies --   1593.2731              1628.9228              1630.2597
 Red. masses --      5.9044                 6.3797                 6.3923
 Frc consts  --      8.8310                 9.9736                10.0096
 IR Inten    --     37.7063                74.6275               152.6591

                     76                     77                     78
                      A                      A                      A
 Frequencies --   1645.2647              1663.8823              1685.0852
 Red. masses --      5.3979                 6.1977                 7.6682
 Frc consts  --      8.6088                10.1094                12.8288
 IR Inten    --    124.9903                17.1826                20.6924

                     79                     80                     81
                      A                      A                      A
 Frequencies --   3069.6490              3121.7624              3180.6416
 Red. masses --      1.0661                 1.0983                 1.0890
 Frc consts  --      5.9186                 6.3060                 6.4910
 IR Inten    --     47.1415                14.9232                20.7352

                     82                     83                     84
                      A                      A                      A
 Frequencies --   3201.2272              3209.3613              3219.0377
 Red. masses --      1.0878                 1.0900                 1.0931
 Frc consts  --      6.5677                 6.6147                 6.6738
 IR Inten    --     10.7516                10.4458                12.0366

                     85                     86                     87
                      A                      A                      A
 Frequencies --   3224.7482              3237.3398              3264.5884
 Red. masses --      1.0952                 1.0906                 1.0927
 Frc consts  --      6.7100                 6.7345                 6.8612
 IR Inten    --      9.1256                 3.5595                 2.6593

                     88                     89                     90
                      A                      A                      A
 Frequencies --   3265.9179              3549.3551              3666.0558
 Red. masses --      1.0966                 1.0748                 1.0804
 Frc consts  --      6.8916                 7.9774                 8.5554
 IR Inten    --      0.9674                 7.0641                94.3043

 - Thermochemistry -
 -------------------
 Temperature   298.150 Kelvin.  Pressure   1.00000 Atm.
 Atom     1 has atomic number  6 and mass  12.00000

 Molecular mass:   268.09603 amu.
 Principal axes and moments of inertia in atomic units:
                           1         2         3
     Eigenvalues --  3221.231888330.070249561.99921
           X            0.99993  -0.00057   0.01159
           Y            0.00036   0.99985   0.01743
           Z           -0.01160  -0.01743   0.99978
 This molecule is an asymmetric top.
 Rotational symmetry number  1.
 Warning -- assumption of classical behavior for rotation
           may cause significant error
 Rotational temperatures (Kelvin)      0.02689     0.01040     0.00906
 Rotational constants (GHZ):           0.56026     0.21665     0.18874
 Zero-point vibrational energy     653212.9 (Joules/Mol)
                                  156.12163 (Kcal/Mol)
 Warning -- explicit consideration of  25 degrees of freedom as
           vibrations may cause significant error
 Vibrational temperatures:     18.34    35.45    63.82    89.47   140.90
          (Kelvin)            203.21   242.71   287.49   305.10   332.41
                              345.55   450.03   515.47   570.74   614.23
                              629.49   656.47   689.45   716.13   756.93
                              797.99   804.53   841.81   846.54   862.04
                              953.52   985.24   993.93  1027.73  1082.03
                             1099.91  1127.36  1144.30  1162.40  1165.09
                             1178.48  1198.19  1278.57  1304.39  1317.07
                             1328.67  1372.35  1406.45  1412.45  1436.03
                             1463.83  1540.28  1560.12  1581.77  1604.84
                             1612.06  1618.17  1678.03  1731.69  1790.87
                             1817.81  1858.00  1863.49  1941.45  1947.00
                             1966.41  1978.97  1994.58  2015.81  2016.18
                             2099.86  2101.21  2115.86  2182.64  2215.04
                             2220.90  2238.40  2292.36  2343.66  2345.58
                             2367.17  2393.96  2424.46  4416.54  4491.52
                             4576.23  4605.85  4617.56  4631.48  4639.69
                             4657.81  4697.01  4698.93  5106.73  5274.64

 Zero-point correction=                           0.248796 (Hartree/Particle)
 Thermal correction to Energy=                    0.264496
 Thermal correction to Enthalpy=                  0.265441
 Thermal correction to Gibbs Free Energy=         0.202942
 Sum of electronic and zero-point Energies=           -909.897634
 Sum of electronic and thermal Energies=              -909.881933
 Sum of electronic and thermal Enthalpies=            -909.880989
 Sum of electronic and thermal Free Energies=         -909.943488

                     E (Thermal)             CV                S
                      KCal/Mol        Cal/Mol-Kelvin    Cal/Mol-Kelvin
 Total                  165.974             61.790            131.540
 Electronic               0.000              0.000              0.000
 Translational            0.889              2.981             42.658
 Rotational               0.889              2.981             33.906
 Vibrational            164.197             55.829             54.977
 Vibration     1          0.593              1.987              7.529
 Vibration     2          0.593              1.985              6.220
 Vibration     3          0.595              1.980              5.054
 Vibration     4          0.597              1.972              4.387
 Vibration     5          0.603              1.951              3.495
 Vibration     6          0.615              1.912              2.787
 Vibration     7          0.625              1.881              2.450
 Vibration     8          0.638              1.840              2.135
 Vibration     9          0.643              1.823              2.026
 Vibration    10          0.653              1.794              1.871
 Vibration    11          0.657              1.779              1.802
 Vibration    12          0.701              1.649              1.348
 Vibration    13          0.733              1.558              1.130
 Vibration    14          0.763              1.477              0.975
 Vibration    15          0.789              1.412              0.869
 Vibration    16          0.798              1.388              0.834
 Vibration    17          0.814              1.347              0.777
 Vibration    18          0.836              1.296              0.712
 Vibration    19          0.853              1.255              0.664
 Vibration    20          0.881              1.192              0.596
 Vibration    21          0.910              1.130              0.535
 Vibration    22          0.915              1.120              0.525
 Vibration    23          0.942              1.064              0.476
 Vibration    24          0.946              1.057              0.470
 Vibration    25          0.957              1.034              0.451

                           ! Non-Optimized Parameters !
 Normal termination of Gaussian 16 at Mon Dec 14 18:13:00 2020.

 ----------------------------------------------------------------------
 # B3LYP/6-311++G(d,p) empiricaldispersion=gd3bj scf=xqc pop=npa geom=c
 heck
 ----------------------------------------------------------------------

 ---------------------------------------
 CID_66414653_JID_10940_Energie_neutraal
 ---------------------------------------
 Structure from the checkpoint file:  "JID_10940.chk"
 Charge =  0 Multiplicity = 1

 SCF Done:  E(RB3LYP) =  -910.393945980     A.U. after   17 cycles
 Normal termination of Gaussian 16 at Mon Dec 14 18:20:48 2020.

 ----------------------------------------------------------------------
 # B3LYP/6-311++G(d,p) empiricaldispersion=gd3bj scf=xqc pop=npa geom=c
 heck
 ----------------------------------------------------------------------

 -------------------------------------
 CID_66414653_JID_10940_Energie_kation
 -------------------------------------
 Structure from the checkpoint file:  "JID_10940.chk"
 Charge =  1 Multiplicity = 2

 SCF Done:  E(UB3LYP) =  -910.111695113     A.U. after   27 cycles
 Normal termination of Gaussian 16 at Mon Dec 14 18:38:10 2020.
 Gaussian 16:  ES64L-G16RevA.03 25-Dec-2016

 ----------------------------------------------------------------------
 # B3LYP/6-311++G(d,p) empiricaldispersion=gd3bj scf=xqc pop=npa geom=c
 heck
 ----------------------------------------------------------------------

 ------------------------------------
 CID_66414653_JID_10940_Energie_anion
 ------------------------------------
 Structure from the checkpoint file:  "JID_10940.chk"
 Charge = -1 Multiplicity = 2

                         Standard orientation:
 ---------------------------------------------------------------------
 Center     Atomic      Atomic             Coordinates (Angstroms)
 Number     Number       Type             X           Y           Z
 ---------------------------------------------------------------------
      1          6           0        2.431244   -1.020432    1.935980
      2          6           0        1.390119   -1.734198    1.346614
      3          6           0        1.051461   -1.534440   -0.007227
      4          6           0        1.809849   -0.616449   -0.750603
      5          6           0        2.852433    0.065282   -0.137168
      6          6           0        3.184236   -0.104234    1.204031
      7          7           0        3.623782    1.027083   -0.942212
      8          8           0        3.326552    1.150663   -2.130379
      9          8           0        4.522336    1.652016   -0.379726
     10          7           0        0.025100   -2.248522   -0.622454
     11          6           0       -1.274553   -2.431047    0.048651
     12          6           0       -2.227329   -1.295557   -0.181199
     13          6           0       -3.381811   -1.359147   -0.926766
     14          7           0       -3.993936   -0.122655   -0.963939
     15          6           0       -3.237601    0.774990   -0.241953
     16          6           0       -2.109169    0.070990    0.269649
     17          6           0       -1.209032    0.817460    1.042077
     18          6           0       -1.492337    2.165853    1.237221
     19          6           0       -2.646074    2.736066    0.669273
     20          7           0       -3.532287    2.061281   -0.071110
     21          1           0        2.666441   -1.192384    2.981932
     22          1           0        0.843703   -2.461676    1.936948
     23          1           0        1.587367   -0.416890   -1.791916
     24          1           0        4.000208    0.457339    1.637854
     25          1           0       -0.111416   -1.952624   -1.583430
     26          1           0       -1.719092   -3.363175   -0.317172
     27          1           0       -1.084909   -2.575798    1.115200
     28          1           0       -3.819985   -2.207261   -1.434943
     29          1           0       -4.853588    0.112910   -1.435838
     30          1           0       -0.320108    0.367332    1.471187
     31          1           0       -0.825551    2.788395    1.825047
     32          1           0       -2.861410    3.791272    0.822488
 ---------------------------------------------------------------------

 SCF Done:  E(UB3LYP) =  -910.430368657     A.U. after   25 cycles

 The electronic state is 2-A.
 Alpha  occ. eigenvalues --  -18.95057 -18.95038 -14.32854 -14.27427 -14.21652
 Alpha  occ. eigenvalues --  -14.21284 -10.14270 -10.12221 -10.11643 -10.11104
 Alpha  occ. eigenvalues --  -10.08997 -10.08599 -10.08548 -10.08490 -10.07777
 Alpha  occ. eigenvalues --  -10.06587 -10.05119 -10.03971 -10.03687 -10.03463
 Alpha  occ. eigenvalues --   -1.03046  -0.91049  -0.85900  -0.83733  -0.82723
 Alpha  occ. eigenvalues --   -0.73284  -0.72239  -0.67923  -0.65496  -0.64110
 Alpha  occ. eigenvalues --   -0.62539  -0.58137  -0.55436  -0.53943  -0.52547
 Alpha  occ. eigenvalues --   -0.48738  -0.48491  -0.45799  -0.43727  -0.41504
 Alpha  occ. eigenvalues --   -0.40421  -0.39331  -0.37616  -0.36718  -0.35830
 Alpha  occ. eigenvalues --   -0.35238  -0.34993  -0.34876  -0.34248  -0.32764
 Alpha  occ. eigenvalues --   -0.31429  -0.30749  -0.30648  -0.30088  -0.29491
 Alpha  occ. eigenvalues --   -0.27640  -0.27059  -0.25220  -0.24357  -0.22958
 Alpha  occ. eigenvalues --   -0.21262  -0.18698  -0.17588  -0.14967  -0.14182
 Alpha  occ. eigenvalues --   -0.13636  -0.13274  -0.12735  -0.10692  -0.09148
 Alpha  occ. eigenvalues --    0.02414
 Alpha virt. eigenvalues --    0.04940   0.05701   0.07583   0.08018   0.08910
 Alpha virt. eigenvalues --    0.09610   0.09935   0.10155   0.10949   0.11538
 Alpha virt. eigenvalues --    0.11634   0.11963   0.12353   0.13203   0.13668

  Beta  occ. eigenvalues --  -18.94626 -18.94591 -14.32289 -14.27428 -14.21576
  Beta  occ. eigenvalues --  -14.21295 -10.14271 -10.12172 -10.11642 -10.11088
  Beta  occ. eigenvalues --  -10.09047 -10.08575 -10.08509 -10.08486 -10.07777
  Beta  occ. eigenvalues --  -10.06483 -10.05156 -10.03751 -10.03563 -10.03360
  Beta  occ. eigenvalues --   -1.02091  -0.91011  -0.85071  -0.83639  -0.82723
  Beta  occ. eigenvalues --   -0.73148  -0.72074  -0.67847  -0.65429  -0.63607
  Beta  occ. eigenvalues --   -0.62416  -0.58008  -0.55332  -0.53118  -0.52510
  Beta  occ. eigenvalues --   -0.48651  -0.48424  -0.45737  -0.43472  -0.41425
  Beta  occ. eigenvalues --   -0.40218  -0.39070  -0.37516  -0.36689  -0.35717
  Beta  occ. eigenvalues --   -0.34844  -0.34546  -0.34164  -0.32502  -0.32289
  Beta  occ. eigenvalues --   -0.31399  -0.30653  -0.30551  -0.29884  -0.29410
  Beta  occ. eigenvalues --   -0.27581  -0.26855  -0.24927  -0.24028  -0.22859
  Beta  occ. eigenvalues --   -0.21016  -0.18411  -0.17488  -0.14810  -0.13439
  Beta  occ. eigenvalues --   -0.12316  -0.12299  -0.10975  -0.10254  -0.08475
  Beta virt. eigenvalues --    0.05441   0.05686   0.07556   0.07978   0.08791
  Beta virt. eigenvalues --    0.08901   0.09795   0.09920   0.10157   0.10948
  Beta virt. eigenvalues --    0.11536   0.11793   0.12040   0.12550   0.13289

 Mulliken charges and spin densities:
               1          2
     1  C   -0.368954  -0.014971
     2  C   -0.008297   0.165073
     3  C   -0.544043  -0.030153
     4  C    0.025330   0.159176
     5  C   -0.395722  -0.015549
     6  C    0.081974   0.112221
     7  N   -0.258071   0.182773
     8  O   -0.171078   0.168061
     9  O   -0.176074   0.172118
    10  N    0.155501   0.003802
    11  C   -1.100838   0.013840
    12  C    0.095918  -0.035252
    13  C   -0.160729   0.051386
    14  N   -0.177723  -0.004620
    15  C   -0.532820   0.001216
    16  C    1.416896   0.010786
    17  C   -0.490722   0.016842
    18  C   -0.375222   0.042967
    19  C   -0.096836   0.000558
    20  N   -0.095172   0.035305
    21  H    0.134852   0.002060
    22  H    0.111304  -0.015519
    23  H    0.209119  -0.007846
    24  H    0.217043  -0.006749
    25  H    0.218483  -0.000275
    26  H    0.141548   0.000587
    27  H    0.108394  -0.000463
    28  H    0.152729  -0.003382
    29  H    0.299626   0.000034
    30  H    0.247475  -0.010600
    31  H    0.165705   0.008425
    32  H    0.170407  -0.001851
 Sum of Mulliken charges =  -1.00000   1.00000

 Dipole moment (field-independent basis, Debye):
    X=            -12.3714    Y=             -5.1339    Z=              2.5495  Tot=             13.6348
 Quadrupole moment (field-independent basis, Debye-Ang):
   XX=           -184.7243   YY=           -136.4087   ZZ=           -128.0745
   XY=             -6.2047   XZ=             20.5899   YZ=              9.5617

 Summary of Natural Population Analysis:

                                       Natural Population
                Natural  -----------------------------------------------
    Atom  No    Charge         Core      Valence    Rydberg      Total
 -----------------------------------------------------------------------
      C    1   -0.11097      0.99958     2.10223    0.00916     3.11097
      C    2   -0.09423      0.99953     2.08641    0.00830     3.09423
      C    3    0.06840      0.99949     1.92023    0.01188     2.93160
      C    4   -0.09454      0.99948     2.08629    0.00876     3.09454
      C    5    0.06448      0.99940     1.92097    0.01515     2.93552
      C    6   -0.09795      0.99953     2.08838    0.01004     3.09795
      N    7    0.30007      0.99972     2.17381    0.02640     3.19993
      O    8   -0.19609      0.99990     3.18855    0.00764     4.19609
      O    9   -0.19296      0.99990     3.18549    0.00757     4.19296
      N   10   -0.32043      0.99969     2.80849    0.01224     3.82043
      C   11   -0.09002      0.99958     2.08042    0.01002     3.09002
      C   12   -0.05977      0.99949     2.05185    0.00843     3.05977
      C   13    0.00531      0.99953     1.98403    0.01113     2.99469
      N   14   -0.27987      0.99966     2.77212    0.00810     3.77987
      C   15    0.18850      0.99950     1.79711    0.01489     2.81150
      C   16   -0.06198      0.99945     2.05202    0.01051     3.06198
      C   17   -0.05842      0.99954     2.05076    0.00812     3.05842
      C   18   -0.13473      0.99958     2.12700    0.00816     3.13473
      C   19    0.02393      0.99962     1.96174    0.01471     2.97607
      N   20   -0.24111      0.99967     2.72981    0.01163     3.74111
      H   21    0.09245      0.00000     0.40653    0.00102     0.40755
      H   22    0.09038      0.00000     0.40817    0.00145     0.40962
      H   23    0.11258      0.00000     0.38613    0.00129     0.38742
      H   24    0.11340      0.00000     0.38549    0.00110     0.38660
      H   25    0.17875      0.00000     0.31934    0.00191     0.32125
      H   26    0.09225      0.00000     0.40661    0.00114     0.40775
      H   27    0.10205      0.00000     0.39677    0.00118     0.39795
      H   28    0.09616      0.00000     0.40291    0.00092     0.40384
      H   29    0.19888      0.00000     0.29904    0.00208     0.30112
      H   30    0.11630      0.00000     0.38201    0.00169     0.38370
      H   31    0.10348      0.00000     0.39556    0.00096     0.39652
      H   32    0.08567      0.00000     0.41313    0.00120     0.41433
 =======================================================================
   * Total *   -0.00000     19.99182    49.76940    0.23878    70.00000

 Normal termination of Gaussian 16 at Mon Dec 14 18:54:57 2020.
