 Gaussian 16, Revision A.03,

 -----------------------------------------------------------
 # opt freq B3LYP/6-31G(d) empiricaldispersion=gd3bj scf=xqc
 -----------------------------------------------------------

 ------------------------------
 CID_64519451_JID_9699_neutraal
 ------------------------------
 Symbolic Z-matrix:
 Charge =  0 Multiplicity = 1

 SCF Done:  E(RB3LYP) =  -928.918618107     A.U. after   14 cycles
 SCF Done:  E(RB3LYP) =  -928.925172041     A.U. after   12 cycles
 SCF Done:  E(RB3LYP) =  -928.925634524     A.U. after   12 cycles
 SCF Done:  E(RB3LYP) =  -928.926841804     A.U. after   12 cycles
 SCF Done:  E(RB3LYP) =  -928.927243214     A.U. after   12 cycles
 SCF Done:  E(RB3LYP) =  -928.928866380     A.U. after   12 cycles
 SCF Done:  E(RB3LYP) =  -928.929372653     A.U. after   12 cycles
 SCF Done:  E(RB3LYP) =  -928.930154340     A.U. after   13 cycles
 SCF Done:  E(RB3LYP) =  -928.930503968     A.U. after   11 cycles
 SCF Done:  E(RB3LYP) =  -928.930751720     A.U. after   12 cycles
 SCF Done:  E(RB3LYP) =  -928.931099662     A.U. after    9 cycles
 SCF Done:  E(RB3LYP) =  -928.931100489     A.U. after    8 cycles
 SCF Done:  E(RB3LYP) =  -928.931100828     A.U. after    8 cycles
 SCF Done:  E(RB3LYP) =  -928.931101122     A.U. after    7 cycles
 SCF Done:  E(RB3LYP) =  -928.931101165     A.U. after    7 cycles
 Optimization completed.
    -- Stationary point found.
 Normal termination of Gaussian 16 at Sat Dec 12 10:12:44 2020.

 --------------------------------------------------------------------
 #N Geom=AllCheck Guess=TCheck SCRF=Check GenChk RB3LYP/6-31G(d) Freq
 --------------------------------------------------------------------

 Structure from the checkpoint file:  "JID_9699.chk"
 ------------------------------
 CID_64519451_JID_9699_neutraal
 ------------------------------
 Charge =  0 Multiplicity = 1

 SCF Done:  E(RB3LYP) =  -928.931101165     A.U. after    1 cycles

  Exact polarizability: 184.517  12.803 130.953   7.216  -6.987 126.229
 Approx polarizability: 225.393  22.238 217.795   7.754 -21.515 200.346

                      1                      2                      3
                      A                      A                      A
 Frequencies --     21.5732                38.8578                48.6466
 Red. masses --      6.0877                11.8396                 4.9737
 Frc consts  --      0.0017                 0.0105                 0.0069
 IR Inten    --      0.1282                 0.8998                 0.0738

                      4                      5                      6
                      A                      A                      A
 Frequencies --     54.5591                74.0349                94.4778
 Red. masses --      4.5334                 5.2043                 5.1975
 Frc consts  --      0.0080                 0.0168                 0.0273
 IR Inten    --      2.8506                 2.8107                 1.7818

                      7                      8                      9
                      A                      A                      A
 Frequencies --    119.5260               149.0188               151.8458
 Red. masses --      3.2230                 4.4026                 2.6652
 Frc consts  --      0.0271                 0.0576                 0.0362
 IR Inten    --      1.5946                 3.9265                 1.9050

                     10                     11                     12
                      A                      A                      A
 Frequencies --    189.1912               218.9575               232.4490
 Red. masses --      5.2879                 1.6731                 1.9735
 Frc consts  --      0.1115                 0.0473                 0.0628
 IR Inten    --     10.5990                 2.2586                 3.0366

                     13                     14                     15
                      A                      A                      A
 Frequencies --    236.0364               257.5711               271.6170
 Red. masses --      1.9204                 2.6918                 2.6600
 Frc consts  --      0.0630                 0.1052                 0.1156
 IR Inten    --      2.5487                 1.1821                 0.6868

                     16                     17                     18
                      A                      A                      A
 Frequencies --    286.8548               306.7027               325.6695
 Red. masses --      3.5903                 2.3481                 3.0134
 Frc consts  --      0.1741                 0.1301                 0.1883
 IR Inten    --      6.3539                 3.7076                 3.3980

                     19                     20                     21
                      A                      A                      A
 Frequencies --    358.4352               379.5132               414.3590
 Red. masses --      3.7892                 2.2843                 2.4199
 Frc consts  --      0.2868                 0.1938                 0.2448
 IR Inten    --      5.5782                10.8752                20.7080

                     22                     23                     24
                      A                      A                      A
 Frequencies --    424.0471               540.8584               542.8739
 Red. masses --      4.3156                 4.4725                 3.6759
 Frc consts  --      0.4572                 0.7708                 0.6383
 IR Inten    --      4.8567                 6.6835                 4.8484

                     25                     26                     27
                      A                      A                      A
 Frequencies --    579.4742               598.3664               639.6402
 Red. masses --      2.8040                 3.6110                 1.4769
 Frc consts  --      0.5547                 0.7617                 0.3560
 IR Inten    --     29.8100                28.2179                77.0308

                     28                     29                     30
                      A                      A                      A
 Frequencies --    652.0599               674.4229               699.2515
 Red. masses --      3.9465                 4.5421                 4.1150
 Frc consts  --      0.9886                 1.2172                 1.1855
 IR Inten    --      6.1097                 4.5535                 9.1702

                     31                     32                     33
                      A                      A                      A
 Frequencies --    743.1703               772.6840               778.5629
 Red. masses --      2.9736                 1.7661                 6.7292
 Frc consts  --      0.9676                 0.6213                 2.4032
 IR Inten    --     23.2524                88.3129                11.4759

                     34                     35                     36
                      A                      A                      A
 Frequencies --    788.2516               801.1536               809.2925
 Red. masses --      4.5179                 2.6392                 3.0069
 Frc consts  --      1.6539                 0.9980                 1.1603
 IR Inten    --     21.4220                44.5748                 2.2498

                     37                     38                     39
                      A                      A                      A
 Frequencies --    865.3906               886.5935               904.8043
 Red. masses --      1.8990                 1.3470                 2.7100
 Frc consts  --      0.8379                 0.6238                 1.3072
 IR Inten    --      2.7512                15.4934                 6.4461

                     40                     41                     42
                      A                      A                      A
 Frequencies --    923.5397               957.2319               981.1522
 Red. masses --      2.9455                 1.7230                 2.2881
 Frc consts  --      1.4802                 0.9302                 1.2978
 IR Inten    --      8.1327                 2.4745                 8.3925

                     43                     44                     45
                      A                      A                      A
 Frequencies --    988.9693              1010.7336              1032.2398
 Red. masses --      8.3622                 1.7101                 1.7711
 Frc consts  --      4.8187                 1.0293                 1.1119
 IR Inten    --     19.0462                21.9546                 2.4795

                     46                     47                     48
                      A                      A                      A
 Frequencies --   1057.4785              1063.0575              1096.0076
 Red. masses --      1.6473                 3.5079                 1.7833
 Frc consts  --      1.0854                 2.3356                 1.2621
 IR Inten    --      7.5807                17.0469                31.4208

                     49                     50                     51
                      A                      A                      A
 Frequencies --   1120.0454              1145.1081              1157.2513
 Red. masses --      2.6702                 2.9413                 1.6203
 Frc consts  --      1.9736                 2.2724                 1.2785
 IR Inten    --     82.4590                13.3174                52.9098

                     52                     53                     54
                      A                      A                      A
 Frequencies --   1163.8400              1176.7314              1189.6201
 Red. masses --      2.8957                 1.5314                 1.7297
 Frc consts  --      2.3109                 1.2494                 1.4422
 IR Inten    --    155.2450                12.9704               140.0813

                     55                     56                     57
                      A                      A                      A
 Frequencies --   1202.7900              1211.3667              1231.6643
 Red. masses --      2.1126                 2.5399                 1.8534
 Frc consts  --      1.8007                 2.1959                 1.6566
 IR Inten    --     17.9647                10.4172                10.6503

                     58                     59                     60
                      A                      A                      A
 Frequencies --   1247.1202              1266.3301              1285.2274
 Red. masses --      1.8663                 2.4220                 1.9273
 Frc consts  --      1.7102                 2.2883                 1.8757
 IR Inten    --     15.7559                 7.0456                62.5532

                     61                     62                     63
                      A                      A                      A
 Frequencies --   1299.4469              1312.2466              1322.0939
 Red. masses --      1.9385                 1.4786                 3.1099
 Frc consts  --      1.9286                 1.5002                 3.2027
 IR Inten    --     60.6585                13.4065                11.6690

                     64                     65                     66
                      A                      A                      A
 Frequencies --   1333.8304              1351.5492              1380.7091
 Red. masses --      1.3673                 1.9297                 1.7828
 Frc consts  --      1.4332                 2.0768                 2.0025
 IR Inten    --      5.7062                47.1000                11.6400

                     67                     68                     69
                      A                      A                      A
 Frequencies --   1392.9094              1394.8408              1406.0491
 Red. masses --      1.7220                 1.4805                 1.8120
 Frc consts  --      1.9685                 1.6971                 2.1106
 IR Inten    --     24.5456                18.0649                71.2900

                     70                     71                     72
                      A                      A                      A
 Frequencies --   1438.4948              1440.7904              1450.3431
 Red. masses --      3.2287                 1.2557                 2.1094
 Frc consts  --      3.9363                 1.5358                 2.6142
 IR Inten    --     98.5893                 6.6853               247.0837

                     73                     74                     75
                      A                      A                      A
 Frequencies --   1490.6896              1504.1938              1515.8540
 Red. masses --      1.1964                 3.2186                 1.2783
 Frc consts  --      1.5664                 4.2906                 1.7306
 IR Inten    --     10.6153                26.7200               102.0923

                     76                     77                     78
                      A                      A                      A
 Frequencies --   1522.1087              1524.1755              1528.9780
 Red. masses --      1.0988                 1.0884                 1.1098
 Frc consts  --      1.4998                 1.4897                 1.5286
 IR Inten    --     20.7689                 1.1179                25.0150

                     79                     80                     81
                      A                      A                      A
 Frequencies --   1537.1916              1551.7180              1554.2996
 Red. masses --      1.0689                 1.1550                 1.0632
 Frc consts  --      1.4882                 1.6385                 1.5134
 IR Inten    --     18.4531               126.9997                 5.3905

                     82                     83                     84
                      A                      A                      A
 Frequencies --   1562.4055              1587.7318              1709.3069
 Red. masses --      1.1179                 4.3952                 9.0070
 Frc consts  --      1.6079                 6.5280                15.5049
 IR Inten    --      5.9366                67.3877               297.7673

                     85                     86                     87
                      A                      A                      A
 Frequencies --   1831.8848              3022.1597              3042.7325
 Red. masses --      9.9649                 1.0743                 1.0386
 Frc consts  --     19.7024                 5.7810                 5.6654
 IR Inten    --    254.4863                40.1152                40.8708

                     88                     89                     90
                      A                      A                      A
 Frequencies --   3057.0874              3058.2755              3072.5762
 Red. masses --      1.0662                 1.0402                 1.0680
 Frc consts  --      5.8707                 5.7324                 5.9406
 IR Inten    --     36.6390                10.1900                28.2395

                     91                     92                     93
                      A                      A                      A
 Frequencies --   3096.3825              3099.5492              3125.0315
 Red. masses --      1.0794                 1.0826                 1.0983
 Frc consts  --      6.0975                 6.1278                 6.3196
 IR Inten    --     26.9423                 9.5055                 1.5643

                     94                     95                     96
                      A                      A                      A
 Frequencies --   3125.3596              3144.1201              3148.7897
 Red. masses --      1.1005                 1.1023                 1.1072
 Frc consts  --      6.3334                 6.4204                 6.4680
 IR Inten    --     31.6907                10.6726                 3.8735

                     97                     98                     99
                      A                      A                      A
 Frequencies --   3151.1144              3174.4162              3180.8872
 Red. masses --      1.0978                 1.0990                 1.0903
 Frc consts  --      6.4223                 6.5252                 6.4994
 IR Inten    --     15.0626                 2.8063                 4.4553

                    100                    101                    102
                      A                      A                      A
 Frequencies --   3276.3592              3570.0864              3684.9402
 Red. masses --      1.0968                 1.0843                 1.0641
 Frc consts  --      6.9370                 8.1424                 8.5134
 IR Inten    --     10.7703               208.4013                60.3580

 - Thermochemistry -
 -------------------
 Temperature   298.150 Kelvin.  Pressure   1.00000 Atm.
 Atom     1 has atomic number  6 and mass  12.00000

 Molecular mass:   267.13314 amu.
 Principal axes and moments of inertia in atomic units:
                           1         2         3
     Eigenvalues --  1957.998739926.07827**********
           X            0.99996   0.00803   0.00315
           Y           -0.00776   0.99699  -0.07720
           Z           -0.00376   0.07717   0.99701
 This molecule is an asymmetric top.
 Rotational symmetry number  1.
 Warning -- assumption of classical behavior for rotation
           may cause significant error
 Rotational temperatures (Kelvin)      0.04424     0.00873     0.00851
 Rotational constants (GHZ):           0.92173     0.18182     0.17740
 Zero-point vibrational energy     786018.4 (Joules/Mol)
                                  187.86290 (Kcal/Mol)
 Warning -- explicit consideration of  26 degrees of freedom as
           vibrations may cause significant error
 Vibrational temperatures:     31.04    55.91    69.99    78.50   106.52
          (Kelvin)            135.93   171.97   214.40   218.47   272.20
                              315.03   334.44   339.60   370.59   390.80
                              412.72   441.28   468.57   515.71   546.03
                              596.17   610.11   778.17   781.07   833.73
                              860.92   920.30   938.17   970.34  1006.07
                             1069.26  1111.72  1120.18  1134.12  1152.68
                             1164.39  1245.10  1275.61  1301.81  1328.77
                             1377.24  1411.66  1422.91  1454.22  1485.16
                             1521.48  1529.50  1576.91  1611.50  1647.56
                             1665.03  1674.51  1693.05  1711.60  1730.55
                             1742.89  1772.09  1794.33  1821.97  1849.16
                             1869.61  1888.03  1902.20  1919.08  1944.58
                             1986.53  2004.09  2006.86  2022.99  2069.67
                             2072.98  2086.72  2144.77  2164.20  2180.98
                             2189.97  2192.95  2199.86  2211.68  2232.58
                             2236.29  2247.95  2284.39  2459.31  2635.67
                             4348.21  4377.81  4398.47  4400.18  4420.75
                             4455.00  4459.56  4496.22  4496.70  4523.69
                             4530.41  4533.75  4567.28  4576.59  4713.95
                             5136.56  5301.81

 Zero-point correction=                           0.299379 (Hartree/Particle)
 Thermal correction to Energy=                    0.317289
 Thermal correction to Enthalpy=                  0.318233
 Thermal correction to Gibbs Free Energy=         0.251778
 Sum of electronic and zero-point Energies=           -928.631723
 Sum of electronic and thermal Energies=              -928.613812
 Sum of electronic and thermal Enthalpies=            -928.612868
 Sum of electronic and thermal Free Energies=         -928.679323

                     E (Thermal)             CV                S
                      KCal/Mol        Cal/Mol-Kelvin    Cal/Mol-Kelvin
 Total                  199.102             66.804            139.866
 Electronic               0.000              0.000              0.000
 Translational            0.889              2.981             42.647
 Rotational               0.889              2.981             33.647
 Vibrational            197.324             60.842             63.572
 Vibration     1          0.593              1.985              6.484
 Vibration     2          0.594              1.981              5.316
 Vibration     3          0.595              1.978              4.872
 Vibration     4          0.596              1.976              4.645
 Vibration     5          0.599              1.966              4.043
 Vibration     6          0.603              1.953              3.565
 Vibration     7          0.609              1.933              3.108
 Vibration     8          0.618              1.904              2.685
 Vibration     9          0.619              1.901              2.649
 Vibration    10          0.633              1.855              2.236
 Vibration    11          0.647              1.812              1.968
 Vibration    12          0.653              1.791              1.860
 Vibration    13          0.655              1.786              1.833
 Vibration    14          0.667              1.750              1.678
 Vibration    15          0.675              1.726              1.586
 Vibration    16          0.684              1.698              1.492
 Vibration    17          0.697              1.661              1.380
 Vibration    18          0.710              1.624              1.281
 Vibration    19          0.733              1.558              1.129
 Vibration    20          0.750              1.514              1.041
 Vibration    21          0.778              1.439              0.911
 Vibration    22          0.786              1.418              0.878
 Vibration    23          0.896              1.160              0.563
 Vibration    24          0.898              1.155              0.559
 Vibration    25          0.936              1.076              0.486
 Vibration    26          0.956              1.035              0.452

                           ! Non-Optimized Parameters !
 Normal termination of Gaussian 16 at Sat Dec 12 10:30:46 2020.

 ----------------------------------------------------------------------
 # B3LYP/6-311++G(d,p) empiricaldispersion=gd3bj scf=xqc pop=npa geom=c
 heck
 ----------------------------------------------------------------------

 --------------------------------------
 CID_64519451_JID_9699_Energie_neutraal
 --------------------------------------
 Structure from the checkpoint file:  "JID_9699.chk"
 Charge =  0 Multiplicity = 1

 SCF Done:  E(RB3LYP) =  -929.200689414     A.U. after   15 cycles
 Normal termination of Gaussian 16 at Sat Dec 12 10:38:06 2020.

 ----------------------------------------------------------------------
 # B3LYP/6-311++G(d,p) empiricaldispersion=gd3bj scf=xqc pop=npa geom=c
 heck
 ----------------------------------------------------------------------

 ------------------------------------
 CID_64519451_JID_9699_Energie_kation
 ------------------------------------
 Structure from the checkpoint file:  "JID_9699.chk"
 Charge =  1 Multiplicity = 2

 SCF Done:  E(UB3LYP) =  -928.891168471     A.U. after   29 cycles
 Normal termination of Gaussian 16 at Sat Dec 12 10:58:53 2020.
 Gaussian 16:  ES64L-G16RevA.03 25-Dec-2016

 ----------------------------------------------------------------------
 # B3LYP/6-311++G(d,p) empiricaldispersion=gd3bj scf=xqc pop=npa geom=c
 heck
 ----------------------------------------------------------------------

 -----------------------------------
 CID_64519451_JID_9699_Energie_anion
 -----------------------------------
 Structure from the checkpoint file:  "JID_9699.chk"
 Charge = -1 Multiplicity = 2

                         Standard orientation:
 ---------------------------------------------------------------------
 Center     Atomic      Atomic             Coordinates (Angstroms)
 Number     Number       Type             X           Y           Z
 ---------------------------------------------------------------------
      1          6           0       -4.364287    0.075676   -1.257614
      2          6           0       -3.151872   -0.098788   -0.331922
      3          6           0       -3.047185   -1.514386    0.281497
      4          6           0       -1.571171   -1.651350    0.683492
      5          7           0       -0.878592   -0.647813   -0.144695
      6          6           0       -1.808691    0.023681   -1.058563
      7          6           0        0.467612   -0.798941   -0.367650
      8          8           0        1.073823   -1.817179   -0.001235
      9          7           0        1.098880    0.237436   -1.035345
     10          6           0        0.809775    1.642492   -0.734438
     11          6           0        2.467132   -0.031542   -1.487018
     12          6           0        3.492962    0.099836   -0.401094
     13          7           0        4.453660    1.014255   -0.310123
     14          6           0        5.060362    0.694637    0.870765
     15          7           0        4.538832   -0.342828    1.514368
     16          7           0        3.540045   -0.712288    0.676910
     17          6           0       -3.213334    0.967151    0.762703
     18          8           0       -2.487860    1.933193    0.860220
     19          8           0       -4.226342    0.738577    1.632766
     20          1           0       -4.376492    1.073011   -1.710719
     21          1           0       -5.297555   -0.060988   -0.704645
     22          1           0       -4.326119   -0.665652   -2.062549
     23          1           0       -3.732986   -1.665105    1.116845
     24          1           0       -3.299047   -2.242174   -0.497938
     25          1           0       -1.168444   -2.648923    0.494618
     26          1           0       -1.411164   -1.424063    1.744242
     27          1           0       -1.855562   -0.495045   -2.027248
     28          1           0       -1.543646    1.063977   -1.233257
     29          1           0        1.711693    2.118157   -0.332241
     30          1           0        0.505418    2.188137   -1.636082
     31          1           0        0.019663    1.718716    0.012748
     32          1           0        2.490229   -1.037414   -1.912033
     33          1           0        2.715068    0.685931   -2.272911
     34          1           0        5.905922    1.240343    1.266342
     35          1           0        2.875944   -1.453871    0.880619
     36          1           0       -4.207474    1.476102    2.271459
 ---------------------------------------------------------------------

 SCF Done:  E(UB3LYP) =  -929.194343478     A.U. after   33 cycles
 SCF Done:  E(UB3LYP) =  -929.194343477     a.u. after    1 cycles

 The electronic state is 2-A.
 Alpha  occ. eigenvalues --  -19.07571 -19.02644 -19.00777 -14.31041 -14.26474
 Alpha  occ. eigenvalues --  -14.26148 -14.25039 -14.23170 -10.21548 -10.21378
 Alpha  occ. eigenvalues --  -10.16596 -10.14432 -10.14369 -10.11746 -10.11718
 Alpha  occ. eigenvalues --  -10.11516 -10.11349 -10.08700 -10.07721  -1.01908
 Alpha  occ. eigenvalues --   -1.00122  -0.97154  -0.93022  -0.86624  -0.85379
 Alpha  occ. eigenvalues --   -0.81891  -0.76061  -0.73636  -0.67023  -0.65231
 Alpha  occ. eigenvalues --   -0.62652  -0.60579  -0.57260  -0.55478  -0.54401
 Alpha  occ. eigenvalues --   -0.53088  -0.48113  -0.47967  -0.46261  -0.44765
 Alpha  occ. eigenvalues --   -0.42506  -0.40674  -0.39988  -0.39673  -0.38343
 Alpha  occ. eigenvalues --   -0.37848  -0.37302  -0.35826  -0.35560  -0.34811
 Alpha  occ. eigenvalues --   -0.34112  -0.33474  -0.33186  -0.32597  -0.31250
 Alpha  occ. eigenvalues --   -0.30578  -0.30402  -0.29405  -0.28310  -0.27057
 Alpha  occ. eigenvalues --   -0.26557  -0.25640  -0.24847  -0.23483  -0.22552
 Alpha  occ. eigenvalues --   -0.21040  -0.20351  -0.19135  -0.19103  -0.17120
 Alpha  occ. eigenvalues --   -0.15531   0.03878
 Alpha virt. eigenvalues --    0.05899   0.06704   0.07019   0.07365   0.07620
 Alpha virt. eigenvalues --    0.08113   0.08538   0.09205   0.09294   0.09870
 Alpha virt. eigenvalues --    0.10426   0.10509   0.10697   0.11292   0.11775

  Beta  occ. eigenvalues --  -19.07507 -19.02625 -19.00772 -14.31037 -14.26472
  Beta  occ. eigenvalues --  -14.26147 -14.25040 -14.23167 -10.21547 -10.21378
  Beta  occ. eigenvalues --  -10.16594 -10.14425 -10.14369 -10.11731 -10.11689
  Beta  occ. eigenvalues --  -10.11509 -10.11337 -10.08671 -10.07672  -1.01836
  Beta  occ. eigenvalues --   -1.00117  -0.97147  -0.92955  -0.86614  -0.85369
  Beta  occ. eigenvalues --   -0.81886  -0.76054  -0.73610  -0.66994  -0.65206
  Beta  occ. eigenvalues --   -0.62617  -0.60528  -0.57159  -0.55461  -0.54388
  Beta  occ. eigenvalues --   -0.53055  -0.48091  -0.47861  -0.46235  -0.44737
  Beta  occ. eigenvalues --   -0.42468  -0.40657  -0.39943  -0.39654  -0.38323
  Beta  occ. eigenvalues --   -0.37828  -0.37285  -0.35796  -0.35523  -0.34786
  Beta  occ. eigenvalues --   -0.34093  -0.33432  -0.33154  -0.32564  -0.31219
  Beta  occ. eigenvalues --   -0.30557  -0.30356  -0.29383  -0.28259  -0.27021
  Beta  occ. eigenvalues --   -0.26508  -0.25634  -0.24807  -0.23436  -0.22541
  Beta  occ. eigenvalues --   -0.21036  -0.20341  -0.19108  -0.19052  -0.17108
  Beta  occ. eigenvalues --   -0.15520
  Beta virt. eigenvalues --    0.06146   0.06905   0.06970   0.07472   0.07734
  Beta virt. eigenvalues --    0.07937   0.08220   0.08847   0.09500   0.09806
  Beta virt. eigenvalues --    0.10076   0.10522   0.10705   0.11029   0.11558

 Mulliken charges and spin densities:
               1          2
     1  C    1.136149  -1.730691
     2  C   -1.320811   2.013805
     3  C    1.233272  -1.772271
     4  C   -0.211420   0.079935
     5  N   -0.136547   0.094291
     6  C    0.175388  -0.867802
     7  C   -0.159313   0.037045
     8  O   -0.366650   0.006442
     9  N    0.118064   0.088812
    10  C   -0.051643  -0.376884
    11  C   -0.287620  -0.539413
    12  C   -0.066459   0.238614
    13  N   -0.073894   0.010246
    14  C   -0.049460   0.086083
    15  N    0.011390  -0.024530
    16  N   -0.224659   0.032677
    17  C    0.241783  -0.510099
    18  O   -0.236714  -0.008939
    19  O   -0.235691   0.119293
    20  H   -0.310048   0.470312
    21  H   -0.176942   0.366831
    22  H   -0.393053   0.551138
    23  H   -0.060057   0.282935
    24  H   -0.209853   0.378471
    25  H    0.092300   0.123126
    26  H    0.010681   0.177508
    27  H   -0.300713   0.529361
    28  H    0.442106  -0.251161
    29  H    0.133378   0.007379
    30  H   -0.167532   0.351656
    31  H    0.241670  -0.008960
    32  H    0.058597   0.158128
    33  H    0.165662   0.054795
    34  H    0.134634   0.021064
    35  H    0.335063   0.014427
    36  H   -0.491061   0.796377
 Sum of Mulliken charges =  -1.00000   1.00000

 Dipole moment (field-independent basis, Debye):
    X=              8.1737    Y=             -0.9728    Z=             -0.9911  Tot=              8.2908
 Quadrupole moment (field-independent basis, Debye-Ang):
   XX=           -217.2519   YY=           -151.2550   ZZ=           -158.4153
   XY=              7.2090   XZ=              2.4383   YZ=             -3.9855

 Summary of Natural Population Analysis:

                                       Natural Population
                Natural  -----------------------------------------------
    Atom  No    Charge         Core      Valence    Rydberg      Total
 -----------------------------------------------------------------------
      C    1   -0.27970      0.99962     2.27283    0.00725     3.27970
      C    2   -0.08580      0.99951     2.06999    0.01630     3.08580
      C    3   -0.19087      0.99960     2.18189    0.00939     3.19087
      C    4   -0.08038      0.99963     2.07202    0.00873     3.08038
      N    5   -0.26428      0.99964     2.75516    0.00948     3.76428
      C    6   -0.07945      0.99956     2.06747    0.01242     3.07945
      C    7    0.42176      0.99961     1.55560    0.02303     2.57824
      O    8   -0.35943      0.99987     3.35462    0.00493     4.35943
      N    9   -0.26372      0.99966     2.75402    0.01003     3.76372
      C   10   -0.18526      0.99963     2.17749    0.00814     3.18526
      C   11   -0.10770      0.99957     2.09589    0.01223     3.10770
      C   12    0.18261      0.99963     1.80184    0.01592     2.81739
      N   13   -0.26821      0.99971     2.75911    0.00939     3.76821
      C   14    0.08014      0.99971     1.90075    0.01940     2.91986
      N   15   -0.15658      0.99974     2.64558    0.01125     3.65658
      N   16   -0.17866      0.99963     2.66769    0.01135     3.67866
      C   17    0.41771      0.99963     1.55623    0.02644     2.58229
      O   18   -0.30822      0.99987     3.30175    0.00660     4.30822
      O   19   -0.34351      0.99987     3.33603    0.00761     4.34351
      H   20    0.10522      0.00000     0.39323    0.00155     0.39478
      H   21    0.11065      0.00000     0.38764    0.00171     0.38935
      H   22    0.10496      0.00000     0.39310    0.00194     0.39504
      H   23    0.11556      0.00000     0.38295    0.00148     0.38444
      H   24    0.10266      0.00000     0.39578    0.00156     0.39734
      H   25    0.10697      0.00000     0.39187    0.00116     0.39303
      H   26    0.09621      0.00000     0.40258    0.00121     0.40379
      H   27    0.09689      0.00000     0.40110    0.00202     0.40311
      H   28    0.11261      0.00000     0.38534    0.00205     0.38739
      H   29    0.09808      0.00000     0.40085    0.00108     0.40192
      H   30    0.09551      0.00000     0.40343    0.00106     0.40449
      H   31    0.11653      0.00000     0.38225    0.00122     0.38347
      H   32    0.11669      0.00000     0.38234    0.00097     0.38331
      H   33    0.11004      0.00000     0.38875    0.00121     0.38996
      H   34    0.09093      0.00000     0.40825    0.00082     0.40907
      H   35    0.22316      0.00000     0.27438    0.00246     0.27684
      H   36    0.24690      0.00000     0.23256    0.02055     0.25310
 =======================================================================
   * Total *   -0.00000     18.99370    51.73236    0.27394    71.00000

 Normal termination of Gaussian 16 at Sat Dec 12 11:22:22 2020.
