 Gaussian 16, Revision A.03,

 -----------------------------------------------------------
 # opt freq B3LYP/6-31G(d) empiricaldispersion=gd3bj scf=xqc
 -----------------------------------------------------------

 -------------------------------
 CID_150640179_JID_3151_neutraal
 -------------------------------
 Symbolic Z-matrix:
 Charge =  0 Multiplicity = 1

 SCF Done:  E(RB3LYP) =  -618.721691312     A.U. after   18 cycles
 SCF Done:  E(RB3LYP) =  -618.727062469     A.U. after   16 cycles
 SCF Done:  E(RB3LYP) =  -618.727615161     A.U. after   14 cycles
 SCF Done:  E(RB3LYP) =  -618.728143639     A.U. after   13 cycles
 SCF Done:  E(RB3LYP) =  -618.728161726     A.U. after   10 cycles
 SCF Done:  E(RB3LYP) =  -618.728162001     A.U. after    9 cycles
 SCF Done:  E(RB3LYP) =  -618.728163035     A.U. after    8 cycles
 Optimization completed.
    -- Stationary point found.
 Normal termination of Gaussian 16 at Wed Dec  9 22:22:06 2020.

 --------------------------------------------------------------------
 #N Geom=AllCheck Guess=TCheck SCRF=Check GenChk RB3LYP/6-31G(d) Freq
 --------------------------------------------------------------------

 Structure from the checkpoint file:  "JID_3151.chk"
 -------------------------------
 CID_150640179_JID_3151_neutraal
 -------------------------------
 Charge =  0 Multiplicity = 1

 SCF Done:  E(RB3LYP) =  -618.728163035     A.U. after    1 cycles

  Exact polarizability: 176.162  11.879 109.865   0.001   0.002  42.624
 Approx polarizability: 277.911  31.966 216.082   0.007   0.009  66.299

                      1                      2                      3
                      A                      A                      A
 Frequencies --     62.9714               110.1643               117.7441
 Red. masses --      8.8910                 8.5821                11.6715
 Frc consts  --      0.0208                 0.0614                 0.0953
 IR Inten    --      0.2775                 1.5411                 0.2707

                      4                      5                      6
                      A                      A                      A
 Frequencies --    139.7947               211.4575               252.6391
 Red. masses --      5.0310                 2.9517                 8.9180
 Frc consts  --      0.0579                 0.0778                 0.3354
 IR Inten    --     15.8665                 8.2648                 8.5283

                      7                      8                      9
                      A                      A                      A
 Frequencies --    280.6191               336.7515               434.6112
 Red. masses --      6.0019                 9.4200                 1.3082
 Frc consts  --      0.2785                 0.6294                 0.1456
 IR Inten    --      0.2708                 0.7320                48.7150

                     10                     11                     12
                      A                      A                      A
 Frequencies --    450.2565               453.3137               537.3100
 Red. masses --      2.1706                 8.9980                 5.7474
 Frc consts  --      0.2593                 1.0894                 0.9776
 IR Inten    --     55.2374                 4.0287                 5.0515

                     13                     14                     15
                      A                      A                      A
 Frequencies --    555.2584               581.5088               597.8212
 Red. masses --     13.7923                 4.7147                 7.4766
 Frc consts  --      2.5054                 0.9393                 1.5743
 IR Inten    --      8.2965                13.6315                 9.5964

                     16                     17                     18
                      A                      A                      A
 Frequencies --    659.3398               726.3828               740.6067
 Red. masses --      7.5410                 6.6723                 7.0967
 Frc consts  --      1.9315                 2.0742                 2.2934
 IR Inten    --      2.6261                 2.5909                 2.3128

                     19                     20                     21
                      A                      A                      A
 Frequencies --    781.1908               786.2684               830.8987
 Red. masses --      6.0191                 7.7107                 6.3664
 Frc consts  --      2.1642                 2.8086                 2.5897
 IR Inten    --     12.5096                10.5339                 6.9251

                     22                     23                     24
                      A                      A                      A
 Frequencies --    883.1955               937.1881               969.1245
 Red. masses --      1.4074                 4.8605                 1.4096
 Frc consts  --      0.6468                 2.5153                 0.7800
 IR Inten    --     15.6431                10.9666                 2.6592

                     25                     26                     27
                      A                      A                      A
 Frequencies --   1027.9725              1067.1404              1094.4360
 Red. masses --      1.7879                 2.1510                 3.3930
 Frc consts  --      1.1132                 1.4432                 2.3945
 IR Inten    --      0.0303                29.0071                29.9665

                     28                     29                     30
                      A                      A                      A
 Frequencies --   1166.3684              1203.5437              1217.9914
 Red. masses --      2.3949                 1.0789                 3.4509
 Frc consts  --      1.9196                 0.9208                 3.0162
 IR Inten    --     23.7547                 0.2932                68.3760

                     31                     32                     33
                      A                      A                      A
 Frequencies --   1249.1731              1301.1207              1329.9423
 Red. masses --      4.4015                 1.5664                 4.0289
 Frc consts  --      4.0466                 1.5624                 4.1986
 IR Inten    --      6.4935               113.7371                13.7500

                     34                     35                     36
                      A                      A                      A
 Frequencies --   1355.9998              1358.1931              1444.7506
 Red. masses --      2.3501                 8.1948                 2.0635
 Frc consts  --      2.5460                 8.9065                 2.5377
 IR Inten    --     48.8323               212.3655               153.0294

                     37                     38                     39
                      A                      A                      A
 Frequencies --   1451.4063              1508.2938              1531.0195
 Red. masses --      6.8297                 2.5908                 1.1423
 Frc consts  --      8.4767                 3.4726                 1.5775
 IR Inten    --    120.1280                77.0057                 3.5646

                     40                     41                     42
                      A                      A                      A
 Frequencies --   1628.0692              1670.4562              1834.0956
 Red. masses --      9.6606                 7.2448                10.5645
 Frc consts  --     15.0869                11.9109                20.9383
 IR Inten    --     30.7596               271.8524               440.3099

                     43                     44                     45
                      A                      A                      A
 Frequencies --   2292.7535              3032.6683              3060.5288
 Red. masses --     13.9920                 1.0570                 1.1069
 Frc consts  --     43.3356                 5.7277                 6.1087
 IR Inten    --    752.8753                32.7738                19.9454

                     46                     47                     48
                      A                      A                      A
 Frequencies --   3202.7481              3224.6042              3658.6385
 Red. masses --      1.0919                 1.0928                 1.0787
 Frc consts  --      6.5992                 6.6946                 8.5076
 IR Inten    --      6.4752                 2.7156                61.8282

 - Thermochemistry -
 -------------------
 Temperature   298.150 Kelvin.  Pressure   1.00000 Atm.
 Atom     1 has atomic number  6 and mass  12.00000

 Molecular mass:   175.04941 amu.
 Principal axes and moments of inertia in atomic units:
                           1         2         3
     Eigenvalues --   734.911634016.231574739.80972
           X            0.99993   0.01223  -0.00000
           Y           -0.01223   0.99993  -0.00000
           Z            0.00000   0.00000   1.00000
 This molecule is an asymmetric top.
 Rotational symmetry number  1.
 Warning -- assumption of classical behavior for rotation
           may cause significant error
 Rotational temperatures (Kelvin)      0.11786     0.02157     0.01827
 Rotational constants (GHZ):           2.45573     0.44936     0.38076
 Zero-point vibrational energy     331056.5 (Joules/Mol)
                                   79.12441 (Kcal/Mol)
 Warning -- explicit consideration of  15 degrees of freedom as
           vibrations may cause significant error
 Vibrational temperatures:     90.60   158.50   169.41   201.13   304.24
          (Kelvin)            363.49   403.75   484.51   625.31   647.82
                              652.22   773.07   798.89   836.66   860.13
                              948.64  1045.10  1065.57  1123.96  1131.26
                             1195.48  1270.72  1348.40  1394.35  1479.02
                             1535.38  1574.65  1678.14  1731.63  1752.42
                             1797.28  1872.02  1913.49  1950.98  1954.14
                             2078.67  2088.25  2170.10  2202.80  2342.43
                             2403.41  2638.85  3298.76  4363.33  4403.42
                             4608.04  4639.49  5263.96

 Zero-point correction=                           0.126093 (Hartree/Particle)
 Thermal correction to Energy=                    0.136107
 Thermal correction to Enthalpy=                  0.137051
 Thermal correction to Gibbs Free Energy=         0.089834
 Sum of electronic and zero-point Energies=           -618.602070
 Sum of electronic and thermal Energies=              -618.592056
 Sum of electronic and thermal Enthalpies=            -618.591112
 Sum of electronic and thermal Free Energies=         -618.638329

                     E (Thermal)             CV                S
                      KCal/Mol        Cal/Mol-Kelvin    Cal/Mol-Kelvin
 Total                   85.408             37.615             99.376
 Electronic               0.000              0.000              0.000
 Translational            0.889              2.981             41.387
 Rotational               0.889              2.981             31.015
 Vibrational             83.631             31.654             26.974
 Vibration     1          0.597              1.972              4.362
 Vibration     2          0.606              1.941              3.266
 Vibration     3          0.608              1.935              3.137
 Vibration     4          0.615              1.914              2.807
 Vibration     5          0.643              1.823              2.031
 Vibration     6          0.664              1.758              1.712
 Vibration     7          0.680              1.709              1.530
 Vibration     8          0.717              1.602              1.227
 Vibration     9          0.795              1.395              0.844
 Vibration    10          0.809              1.360              0.795
 Vibration    11          0.812              1.354              0.786
 Vibration    12          0.892              1.168              0.571
 Vibration    13          0.911              1.128              0.533
 Vibration    14          0.938              1.071              0.483
 Vibration    15          0.956              1.036              0.453

 Optimization completed.
    -- Stationary point found.
 Normal termination of Gaussian 16 at Wed Dec  9 22:26:04 2020.

 ----------------------------------------------------------------------
 # B3LYP/6-311++G(d,p) empiricaldispersion=gd3bj scf=xqc pop=npa geom=c
 heck
 ----------------------------------------------------------------------

 ---------------------------------------
 CID_150640179_JID_3151_Energie_neutraal
 ---------------------------------------
 Structure from the checkpoint file:  "JID_3151.chk"
 Charge =  0 Multiplicity = 1

 SCF Done:  E(RB3LYP) =  -618.897175867     A.U. after   18 cycles
 Normal termination of Gaussian 16 at Wed Dec  9 22:27:58 2020.

 ----------------------------------------------------------------------
 # B3LYP/6-311++G(d,p) empiricaldispersion=gd3bj scf=xqc pop=npa geom=c
 heck
 ----------------------------------------------------------------------

 -------------------------------------
 CID_150640179_JID_3151_Energie_kation
 -------------------------------------
 Structure from the checkpoint file:  "JID_3151.chk"
 Charge =  1 Multiplicity = 2

 SCF Done:  E(UB3LYP) =  -618.573315904     A.U. after   26 cycles
 Normal termination of Gaussian 16 at Wed Dec  9 22:31:55 2020.
 Gaussian 16:  ES64L-G16RevA.03 25-Dec-2016

 ----------------------------------------------------------------------
 # B3LYP/6-311++G(d,p) empiricaldispersion=gd3bj scf=xqc pop=npa geom=c
 heck
 ----------------------------------------------------------------------

 ------------------------------------
 CID_150640179_JID_3151_Energie_anion
 ------------------------------------
 Structure from the checkpoint file:  "JID_3151.chk"
 Charge = -1 Multiplicity = 2

                         Standard orientation:
 ---------------------------------------------------------------------
 Center     Atomic      Atomic             Coordinates (Angstroms)
 Number     Number       Type             X           Y           Z
 ---------------------------------------------------------------------
      1          6           0        2.178438    1.660837   -0.000088
      2          6           0        0.863875    0.913509   -0.000115
      3          6           0       -0.440747    1.371074   -0.000079
      4          6           0       -1.439769    0.381589   -0.000043
      5          7           0       -1.212316   -0.939655    0.000154
      6          6           0        0.058785   -1.356181    0.000122
      7          6           0        1.119296   -0.459848   -0.000154
      8          6           0        2.588489   -0.697894   -0.000016
      9          8           0        3.193407   -1.755654   -0.000061
     10          7           0        3.140927    0.570135    0.000191
     11          7           0       -2.771950    0.839614    0.000296
     12          7           0       -3.651373   -0.042624    0.000015
     13          7           0       -4.552992   -0.731503   -0.000257
     14          1           0        2.279356    2.300607   -0.887469
     15          1           0        2.279150    2.300915    0.887087
     16          1           0       -0.712230    2.420925    0.000086
     17          1           0        0.228981   -2.429801    0.000214
     18          1           0        4.141211    0.702303    0.000024
 ---------------------------------------------------------------------

 SCF Done:  E(UB3LYP) =  -618.895942304     A.U. after   33 cycles
 SCF Done:  E(UB3LYP) =  -618.909850646     a.u. after   26 cycles

 The electronic state is 2-A.
 Alpha  occ. eigenvalues --  -18.94403 -14.31827 -14.22777 -14.21734 -14.20368
 Alpha  occ. eigenvalues --  -14.15563 -10.12317 -10.09866 -10.08377 -10.06735
 Alpha  occ. eigenvalues --  -10.04273 -10.03918 -10.01594  -0.99235  -0.89668
 Alpha  occ. eigenvalues --   -0.84672  -0.81163  -0.78496  -0.67010  -0.63394
 Alpha  occ. eigenvalues --   -0.58808  -0.53408  -0.50645  -0.44824  -0.40837
 Alpha  occ. eigenvalues --   -0.38745  -0.36981  -0.36352  -0.35087  -0.34269
 Alpha  occ. eigenvalues --   -0.32306  -0.31287  -0.30680  -0.28591  -0.26951
 Alpha  occ. eigenvalues --   -0.26739  -0.25643  -0.23694  -0.17352  -0.17136
 Alpha  occ. eigenvalues --   -0.14828  -0.13255  -0.13030  -0.11543  -0.09095
 Alpha  occ. eigenvalues --    0.04890
 Alpha virt. eigenvalues --    0.07897   0.09919   0.09922   0.10798   0.11720
 Alpha virt. eigenvalues --    0.11901   0.12833   0.14153   0.14834   0.14959
 Alpha virt. eigenvalues --    0.16964   0.17088   0.17892   0.18172   0.18820

  Beta  occ. eigenvalues --  -18.94226 -14.31483 -14.22333 -14.21947 -14.20305
  Beta  occ. eigenvalues --  -14.15443 -10.12208 -10.09899 -10.07916 -10.06753
  Beta  occ. eigenvalues --  -10.04042 -10.03956 -10.01382  -0.98632  -0.89364
  Beta  occ. eigenvalues --   -0.84380  -0.80952  -0.78204  -0.66576  -0.62879
  Beta  occ. eigenvalues --   -0.58555  -0.53079  -0.50414  -0.44668  -0.40450
  Beta  occ. eigenvalues --   -0.38551  -0.36197  -0.35388  -0.34661  -0.34021
  Beta  occ. eigenvalues --   -0.31994  -0.30828  -0.30247  -0.28340  -0.26510
  Beta  occ. eigenvalues --   -0.25930  -0.24488  -0.23526  -0.17371  -0.15924
  Beta  occ. eigenvalues --   -0.13775  -0.12820  -0.12481  -0.11343  -0.07947
  Beta virt. eigenvalues --    0.07870   0.09922   0.10112   0.10899   0.11043
  Beta virt. eigenvalues --    0.11950   0.12146   0.12896   0.14804   0.14986
  Beta virt. eigenvalues --    0.15898   0.17082   0.17295   0.17881   0.18751

 Mulliken charges and spin densities:
               1          2
     1  C   -0.420952  -0.002439
     2  C    0.451346   0.144288
     3  C    0.051229  -0.090708
     4  C   -0.985599   0.286154
     5  N   -0.122239   0.054896
     6  C   -0.331129   0.021721
     7  C    0.123307   0.167313
     8  C    0.150805   0.050571
     9  O   -0.469430   0.061570
    10  N   -0.265414   0.014267
    11  N    0.126963  -0.127731
    12  N    0.095155   0.093941
    13  N   -0.282641   0.281512
    14  H    0.135435   0.020989
    15  H    0.135600   0.020832
    16  H    0.154190   0.004057
    17  H    0.173079   0.000492
    18  H    0.280297  -0.001724
 Sum of Mulliken charges =  -1.00000   1.00000

 Dipole moment (field-independent basis, Debye):
    X=              3.3624    Y=              5.2670    Z=              0.0003  Tot=              6.2488
 Quadrupole moment (field-independent basis, Debye-Ang):
   XX=           -127.0898   YY=            -87.7336   ZZ=            -79.1237
   XY=              9.2192   XZ=             -0.0014   YZ=              0.0001

 Summary of Natural Population Analysis:

                                       Natural Population
                Natural  -----------------------------------------------
    Atom  No    Charge         Core      Valence    Rydberg      Total
 -----------------------------------------------------------------------
      C    1   -0.09247      0.99961     2.08530    0.00756     3.09247
      C    2    0.06096      0.99949     1.93207    0.00748     2.93904
      C    3   -0.15822      0.99947     2.15072    0.00804     3.15822
      C    4    0.25509      0.99952     1.73045    0.01494     2.74491
      N    5   -0.25121      0.99967     2.74049    0.01105     3.75121
      C    6    0.04902      0.99956     1.93731    0.01411     2.95098
      C    7   -0.07069      0.99939     2.06339    0.00790     3.07069
      C    8    0.35035      0.99963     1.62694    0.02308     2.64965
      O    9   -0.31906      0.99987     3.31220    0.00698     4.31906
      N   10   -0.32305      0.99969     2.81496    0.00840     3.82305
      N   11   -0.23641      0.99966     2.72038    0.01637     3.73641
      N   12    0.15971      0.99971     2.32357    0.01702     3.34029
      N   13    0.01575      0.99981     2.47105    0.01339     3.48425
      H   14    0.09345      0.00000     0.40514    0.00141     0.40655
      H   15    0.09345      0.00000     0.40515    0.00141     0.40655
      H   16    0.09915      0.00000     0.39969    0.00116     0.40085
      H   17    0.08891      0.00000     0.40967    0.00141     0.41109
      H   18    0.18525      0.00000     0.31165    0.00310     0.31475
 =======================================================================
   * Total *    0.00000     12.99510    31.84011    0.16479    45.00000

 Normal termination of Gaussian 16 at Wed Dec  9 23:38:03 2020.
