 Gaussian 16, Revision A.03,

 -----------------------------------------------------------
 # opt freq B3LYP/6-31G(d) empiricaldispersion=gd3bj scf=xqc
 -----------------------------------------------------------

 ------------------------------
 CID_130510169_JID_820_neutraal
 ------------------------------
 Symbolic Z-matrix:
 Charge =  0 Multiplicity = 1

 SCF Done:  E(RB3LYP) =  -445.043098743     A.U. after   13 cycles
 SCF Done:  E(RB3LYP) =  -445.050086730     A.U. after   11 cycles
 SCF Done:  E(RB3LYP) =  -445.050099898     A.U. after   11 cycles
 SCF Done:  E(RB3LYP) =  -445.051101028     A.U. after   10 cycles
 SCF Done:  E(RB3LYP) =  -445.051758608     A.U. after   11 cycles
 SCF Done:  E(RB3LYP) =  -445.052276814     A.U. after   11 cycles
 SCF Done:  E(RB3LYP) =  -445.053404828     A.U. after   11 cycles
 SCF Done:  E(RB3LYP) =  -445.054599981     A.U. after   11 cycles
 SCF Done:  E(RB3LYP) =  -445.055140772     A.U. after   10 cycles
 SCF Done:  E(RB3LYP) =  -445.055261827     A.U. after   11 cycles
 SCF Done:  E(RB3LYP) =  -445.055684294     A.U. after   10 cycles
 SCF Done:  E(RB3LYP) =  -445.055735792     A.U. after   10 cycles
 SCF Done:  E(RB3LYP) =  -445.055753868     A.U. after   10 cycles
 SCF Done:  E(RB3LYP) =  -445.055762291     A.U. after    8 cycles
 SCF Done:  E(RB3LYP) =  -445.055763157     A.U. after    7 cycles
 SCF Done:  E(RB3LYP) =  -445.055763291     A.U. after    7 cycles
 Optimization completed.
    -- Stationary point found.
 Normal termination of Gaussian 16 at Tue Dec  8 12:50:29 2020.

 --------------------------------------------------------------------
 #N Geom=AllCheck Guess=TCheck SCRF=Check GenChk RB3LYP/6-31G(d) Freq
 --------------------------------------------------------------------

 Structure from the checkpoint file:  "JID_820.chk"
 ------------------------------
 CID_130510169_JID_820_neutraal
 ------------------------------
 Charge =  0 Multiplicity = 1

 SCF Done:  E(RB3LYP) =  -445.055763291     A.U. after    1 cycles

  Exact polarizability:  98.700  -1.735  90.681   1.396   0.489  85.108
 Approx polarizability: 124.594  -2.231 124.817  -1.145  -0.687 129.052

                      1                      2                      3
                      A                      A                      A
 Frequencies --     48.6573                97.9146               165.6635
 Red. masses --      2.8084                 2.9803                 3.2649
 Frc consts  --      0.0039                 0.0168                 0.0528
 IR Inten    --      0.3907                 1.1636                 3.7948

                      4                      5                      6
                      A                      A                      A
 Frequencies --    197.6288               204.6186               240.5370
 Red. masses --      1.7549                 1.2389                 1.6623
 Frc consts  --      0.0404                 0.0306                 0.0567
 IR Inten    --      0.2022                 0.4784                 1.5893

                      7                      8                      9
                      A                      A                      A
 Frequencies --    247.3842               275.8704               282.1874
 Red. masses --      1.7245                 2.0773                 1.0484
 Frc consts  --      0.0622                 0.0931                 0.0492
 IR Inten    --      2.2723                 2.1226                98.9196

                     10                     11                     12
                      A                      A                      A
 Frequencies --    316.3774               331.8765               374.0892
 Red. masses --      2.1752                 1.8984                 2.8651
 Frc consts  --      0.1283                 0.1232                 0.2362
 IR Inten    --      5.8026                 3.5231                10.5329

                     13                     14                     15
                      A                      A                      A
 Frequencies --    407.8876               435.5077               466.1290
 Red. masses --      2.0796                 2.2284                 2.5514
 Frc consts  --      0.2039                 0.2490                 0.3266
 IR Inten    --      0.6572                 1.5002                 3.4052

                     16                     17                     18
                      A                      A                      A
 Frequencies --    538.7845               557.4611               668.5411
 Red. masses --      2.5581                 3.2156                 2.1465
 Frc consts  --      0.4375                 0.5888                 0.5652
 IR Inten    --      1.7053                 7.2496                55.5143

                     19                     20                     21
                      A                      A                      A
 Frequencies --    686.7862               850.5728               880.8263
 Red. masses --      2.4693                 2.0551                 1.4297
 Frc consts  --      0.6862                 0.8760                 0.6536
 IR Inten    --     11.9223                 3.9255                 0.5018

                     22                     23                     24
                      A                      A                      A
 Frequencies --    903.6398               933.8417               950.0843
 Red. masses --      2.5713                 2.2487                 1.1797
 Frc consts  --      1.2371                 1.1554                 0.6274
 IR Inten    --     13.2970                31.7785                 4.8864

                     25                     26                     27
                      A                      A                      A
 Frequencies --    951.8119               984.4826               987.4706
 Red. masses --      1.9595                 1.8092                 1.6015
 Frc consts  --      1.0459                 1.0331                 0.9201
 IR Inten    --     11.2120                 1.7388                 1.2375

                     28                     29                     30
                      A                      A                      A
 Frequencies --   1021.7942              1040.8405              1063.3401
 Red. masses --      2.6732                 2.8184                 1.4986
 Frc consts  --      1.6444                 1.7989                 0.9983
 IR Inten    --      8.5434                 2.6716                38.6251

                     31                     32                     33
                      A                      A                      A
 Frequencies --   1076.0521              1089.3616              1114.3869
 Red. masses --      2.3295                 1.6235                 2.4386
 Frc consts  --      1.5892                 1.1352                 1.7843
 IR Inten    --     16.4035                 4.6317                 6.6928

                     34                     35                     36
                      A                      A                      A
 Frequencies --   1137.1335              1170.4073              1199.4669
 Red. masses --      1.1810                 1.8562                 1.5112
 Frc consts  --      0.8997                 1.4982                 1.2810
 IR Inten    --      7.0800                14.5236                 8.4598

                     37                     38                     39
                      A                      A                      A
 Frequencies --   1207.5008              1214.5666              1228.1558
 Red. masses --      2.0880                 1.8578                 1.6700
 Frc consts  --      1.7937                 1.6147                 1.4841
 IR Inten    --     51.5124                 1.4915                15.2570

                     40                     41                     42
                      A                      A                      A
 Frequencies --   1256.3845              1294.8135              1332.9030
 Red. masses --      1.3879                 1.3133                 1.5418
 Frc consts  --      1.2908                 1.2972                 1.6139
 IR Inten    --      1.2048                 8.3241                20.0680

                     43                     44                     45
                      A                      A                      A
 Frequencies --   1361.7542              1370.6638              1386.7109
 Red. masses --      1.3431                 1.4670                 1.5219
 Frc consts  --      1.4674                 1.6239                 1.7242
 IR Inten    --      0.7260                 1.4150                10.5891

                     46                     47                     48
                      A                      A                      A
 Frequencies --   1394.5676              1423.5634              1429.1095
 Red. masses --      1.3355                 1.2423                 1.4920
 Frc consts  --      1.5303                 1.4833                 1.7953
 IR Inten    --      7.9488                 2.0703                13.5568

                     49                     50                     51
                      A                      A                      A
 Frequencies --   1434.1584              1449.2013              1519.6556
 Red. masses --      1.2529                 1.2381                 1.0583
 Frc consts  --      1.5183                 1.5320                 1.4399
 IR Inten    --     10.4367                16.3263                 1.9679

                     52                     53                     54
                      A                      A                      A
 Frequencies --   1522.4888              1527.1520              1537.9110
 Red. masses --      1.0491                 1.0585                 1.0701
 Frc consts  --      1.4327                 1.4545                 1.4913
 IR Inten    --      3.3910                 4.1375                 4.9173

                     55                     56                     57
                      A                      A                      A
 Frequencies --   1541.1271              1549.0377              1561.6603
 Red. masses --      1.0537                 1.0566                 1.0894
 Frc consts  --      1.4745                 1.4938                 1.5654
 IR Inten    --      2.6368                 1.4148                 7.1828

                     58                     59                     60
                      A                      A                      A
 Frequencies --   1579.3660              3010.4451              3012.3172
 Red. masses --      1.0652                 1.0672                 1.0735
 Frc consts  --      1.5654                 5.6986                 5.7395
 IR Inten    --      5.1664                81.6506                60.5983

                     61                     62                     63
                      A                      A                      A
 Frequencies --   3039.8324              3042.6519              3054.4218
 Red. masses --      1.0672                 1.0660                 1.0727
 Frc consts  --      5.8105                 5.8144                 5.8963
 IR Inten    --     10.7709                13.7391                95.3694

                     64                     65                     66
                      A                      A                      A
 Frequencies --   3054.8400              3061.4385              3075.6022
 Red. masses --      1.0393                 1.0392                 1.0975
 Frc consts  --      5.7143                 5.7386                 6.1167
 IR Inten    --     15.4471                23.9311                41.4003

                     67                     68                     69
                      A                      A                      A
 Frequencies --   3102.5847              3115.3832              3120.7528
 Red. masses --      1.0989                 1.0985                 1.0994
 Frc consts  --      6.2324                 6.2815                 6.3083
 IR Inten    --     38.2462                 9.6571                61.2881

                     70                     71                     72
                      A                      A                      A
 Frequencies --   3123.7581              3135.9926              3158.1331
 Red. masses --      1.0943                 1.1024                 1.0973
 Frc consts  --      6.2912                 6.3877                 6.4479
 IR Inten    --     18.4669                35.7080                22.3052

                     73                     74                     75
                      A                      A                      A
 Frequencies --   3163.9002              3504.5848              3730.5458
 Red. masses --      1.1017                 1.0762                 1.0660
 Frc consts  --      6.4975                 7.7875                 8.7412
 IR Inten    --      3.5027                 3.3946                 5.9568

 - Thermochemistry -
 -------------------
 Temperature   298.150 Kelvin.  Pressure   1.00000 Atm.
 Atom     1 has atomic number  6 and mass  12.00000

 Molecular mass:   143.13101 amu.
 Principal axes and moments of inertia in atomic units:
                           1         2         3
     Eigenvalues --   968.033351695.022101952.84424
           X            0.99968  -0.01731   0.01844
           Y            0.01663   0.99921   0.03620
           Z           -0.01905  -0.03588   0.99917
 This molecule is an asymmetric top.
 Rotational symmetry number  1.
 Warning -- assumption of classical behavior for rotation
           may cause significant error
 Rotational temperatures (Kelvin)      0.08947     0.05110     0.04435
 Rotational constants (GHZ):           1.86434     1.06473     0.92416
 Zero-point vibrational energy     649147.9 (Joules/Mol)
                                  155.15007 (Kcal/Mol)
 Warning -- explicit consideration of  17 degrees of freedom as
           vibrations may cause significant error
 Vibrational temperatures:     70.01   140.88   238.35   284.34   294.40
          (Kelvin)            346.08   355.93   396.92   406.00   455.20
                              477.50   538.23   586.86   626.60   670.66
                              775.19   802.06   961.88   988.13  1223.78
                             1267.31  1300.14  1343.59  1366.96  1369.45
                             1416.45  1420.75  1470.13  1497.54  1529.91
                             1548.20  1567.35  1603.35  1636.08  1683.96
                             1725.77  1737.32  1747.49  1767.04  1807.66
                             1862.95  1917.75  1959.26  1972.08  1995.17
                             2006.47  2048.19  2056.17  2063.43  2085.08
                             2186.45  2190.52  2197.23  2212.71  2217.34
                             2228.72  2246.88  2272.36  4331.36  4334.05
                             4373.64  4377.70  4394.63  4395.23  4404.73
                             4425.11  4463.93  4482.34  4490.07  4494.39
                             4511.99  4543.85  4552.15  5042.32  5367.42

 Zero-point correction=                           0.247247 (Hartree/Particle)
 Thermal correction to Energy=                    0.258639
 Thermal correction to Enthalpy=                  0.259583
 Thermal correction to Gibbs Free Energy=         0.211124
 Sum of electronic and zero-point Energies=           -444.808516
 Sum of electronic and thermal Energies=              -444.797125
 Sum of electronic and thermal Enthalpies=            -444.796180
 Sum of electronic and thermal Free Energies=         -444.844640

                     E (Thermal)             CV                S
                      KCal/Mol        Cal/Mol-Kelvin    Cal/Mol-Kelvin
 Total                  162.298             44.036            101.991
 Electronic               0.000              0.000              0.000
 Translational            0.889              2.981             40.787
 Rotational               0.889              2.981             29.551
 Vibrational            160.521             38.075             31.653
 Vibration     1          0.595              1.978              4.871
 Vibration     2          0.603              1.951              3.495
 Vibration     3          0.624              1.885              2.484
 Vibration     4          0.637              1.843              2.155
 Vibration     5          0.640              1.833              2.091
 Vibration     6          0.658              1.778              1.799
 Vibration     7          0.661              1.767              1.749
 Vibration     8          0.678              1.718              1.559
 Vibration     9          0.681              1.707              1.520
 Vibration    10          0.703              1.642              1.329
 Vibration    11          0.714              1.612              1.251
 Vibration    12          0.745              1.525              1.063
 Vibration    13          0.772              1.453              0.934
 Vibration    14          0.796              1.393              0.841
 Vibration    15          0.823              1.325              0.748
 Vibration    16          0.894              1.164              0.568
 Vibration    17          0.913              1.123              0.529

                           ! Non-Optimized Parameters !
 Normal termination of Gaussian 16 at Tue Dec  8 13:07:27 2020.

 ----------------------------------------------------------------------
 # B3LYP/6-311++G(d,p) empiricaldispersion=gd3bj scf=xqc pop=npa geom=c
 heck
 ----------------------------------------------------------------------

 --------------------------------------
 CID_130510169_JID_820_Energie_neutraal
 --------------------------------------
 Structure from the checkpoint file:  "JID_820.chk"
 Charge =  0 Multiplicity = 1

 SCF Done:  E(RB3LYP) =  -445.194321737     A.U. after   14 cycles
 Normal termination of Gaussian 16 at Tue Dec  8 13:17:20 2020.

 ----------------------------------------------------------------------
 # B3LYP/6-311++G(d,p) empiricaldispersion=gd3bj scf=xqc pop=npa geom=c
 heck
 ----------------------------------------------------------------------

 ------------------------------------
 CID_130510169_JID_820_Energie_kation
 ------------------------------------
 Structure from the checkpoint file:  "JID_820.chk"
 Charge =  1 Multiplicity = 2

 SCF Done:  E(UB3LYP) =  -444.878883813     A.U. after   23 cycles
 Normal termination of Gaussian 16 at Tue Dec  8 13:26:53 2020.
 Gaussian 16:  ES64L-G16RevA.03 25-Dec-2016

 ----------------------------------------------------------------------
 # B3LYP/6-311++G(d,p) empiricaldispersion=gd3bj scf=xqc pop=npa geom=c
 heck
 ----------------------------------------------------------------------

 -----------------------------------
 CID_130510169_JID_820_Energie_anion
 -----------------------------------
 Structure from the checkpoint file:  "JID_820.chk"
 Charge = -1 Multiplicity = 2

                         Standard orientation:
 ---------------------------------------------------------------------
 Center     Atomic      Atomic             Coordinates (Angstroms)
 Number     Number       Type             X           Y           Z
 ---------------------------------------------------------------------
      1          6           0       -2.602283    0.661872   -0.525988
      2          6           0       -1.063339    0.676639   -0.475666
      3          6           0       -0.597292    1.970279    0.211659
      4          6           0       -0.501838   -0.624568    0.169293
      5          6           0       -1.089965   -1.865622   -0.527745
      6          6           0        1.037084   -0.788904    0.156903
      7          6           0        1.840939   -0.388000   -1.111298
      8          7           0        2.375490    0.788885   -0.385410
      9          6           0        1.934487    0.222519    0.913598
     10          8           0       -0.934785   -0.599444    1.541749
     11          1           0       -3.015802    0.509286    0.475995
     12          1           0       -2.999303   -0.116838   -1.183758
     13          1           0       -2.969391    1.622666   -0.902394
     14          1           0       -0.695459    0.692713   -1.509938
     15          1           0       -0.824909    1.941403    1.281793
     16          1           0        0.470795    2.140072    0.067375
     17          1           0       -1.130370    2.824503   -0.221474
     18          1           0       -0.861287   -1.865267   -1.600073
     19          1           0       -0.662825   -2.781501   -0.099813
     20          1           0       -2.173157   -1.913320   -0.403573
     21          1           0        1.235531   -1.820650    0.470116
     22          1           0        2.593160   -1.143829   -1.381106
     23          1           0        1.270379   -0.134895   -2.012530
     24          1           0        3.378244    0.933991   -0.477463
     25          1           0        1.436849    0.933175    1.577807
     26          1           0        2.729505   -0.287445    1.477463
     27          1           0       -0.678868   -1.445998    1.940917
 ---------------------------------------------------------------------

 SCF Done:  E(UB3LYP) =  -445.180184933     A.U. after   25 cycles

 The electronic state is 2-A.
 Alpha  occ. eigenvalues --  -19.00791 -14.18209 -10.11947 -10.07960 -10.07401
 Alpha  occ. eigenvalues --  -10.06729 -10.05960 -10.05197 -10.04866 -10.04037
 Alpha  occ. eigenvalues --   -0.91198  -0.81324  -0.69789  -0.64139  -0.59596
 Alpha  occ. eigenvalues --   -0.57055  -0.56013  -0.52112  -0.46424  -0.43831
 Alpha  occ. eigenvalues --   -0.40455  -0.38746  -0.34642  -0.34347  -0.32849
 Alpha  occ. eigenvalues --   -0.30995  -0.29671  -0.29054  -0.28524  -0.27852
 Alpha  occ. eigenvalues --   -0.26995  -0.26218  -0.25180  -0.22629  -0.22462
 Alpha  occ. eigenvalues --   -0.21673  -0.20553  -0.19679  -0.16050  -0.11712
 Alpha  occ. eigenvalues --    0.04848
 Alpha virt. eigenvalues --    0.07358   0.07836   0.08478   0.09713   0.10101
 Alpha virt. eigenvalues --    0.10412   0.10945   0.11137   0.12979   0.13111
 Alpha virt. eigenvalues --    0.13525   0.13769   0.14444   0.15022   0.16513

  Beta  occ. eigenvalues --  -19.00761 -14.18191 -10.11946 -10.07932 -10.07377
  Beta  occ. eigenvalues --  -10.06719 -10.05938 -10.05186 -10.04829 -10.04032
  Beta  occ. eigenvalues --   -0.91135  -0.81285  -0.69762  -0.64103  -0.59539
  Beta  occ. eigenvalues --   -0.57025  -0.55949  -0.52050  -0.46372  -0.43770
  Beta  occ. eigenvalues --   -0.40349  -0.38710  -0.34585  -0.34318  -0.32826
  Beta  occ. eigenvalues --   -0.30963  -0.29635  -0.29016  -0.28495  -0.27817
  Beta  occ. eigenvalues --   -0.26971  -0.26191  -0.25144  -0.22588  -0.22439
  Beta  occ. eigenvalues --   -0.21642  -0.20512  -0.19634  -0.16012  -0.11670
  Beta virt. eigenvalues --    0.07234   0.08286   0.08621   0.09086   0.10076
  Beta virt. eigenvalues --    0.10606   0.10979   0.11313   0.11494   0.13360
  Beta virt. eigenvalues --    0.13582   0.13848   0.14242   0.14615   0.15156

 Mulliken charges and spin densities:
               1          2
     1  C    0.347932  -1.012672
     2  C   -0.391475   0.731696
     3  C   -0.670474  -0.063075
     4  C   -0.034848  -0.039614
     5  C    1.290929  -1.864020
     6  C   -0.906658   1.170943
     7  C    0.923285  -1.454923
     8  N   -0.290236   0.058718
     9  C    1.061561  -1.575396
    10  O   -0.216949   0.045492
    11  H    0.119797   0.049237
    12  H   -0.005291   0.130990
    13  H    0.080779   0.041525
    14  H   -0.086783   0.228730
    15  H    0.027439   0.142597
    16  H    0.283253  -0.102297
    17  H    0.079825   0.027572
    18  H   -0.016285   0.187441
    19  H   -0.523237   0.667598
    20  H   -0.073956   0.210179
    21  H   -0.445198   0.693438
    22  H   -0.915204   1.079010
    23  H    0.082163   0.063808
    24  H   -0.038286   0.303001
    25  H    0.184565  -0.013039
    26  H   -0.868307   1.022492
    27  H    0.001660   0.270568
 Sum of Mulliken charges =  -1.00000   1.00000

 Dipole moment (field-independent basis, Debye):
    X=             -5.4589    Y=              5.2776    Z=             -1.2614  Tot=              7.6970
 Quadrupole moment (field-independent basis, Debye-Ang):
   XX=           -118.7014   YY=           -106.7009   ZZ=            -97.3859
   XY=              7.0501   XZ=              0.4999   YZ=              2.3505

 Summary of Natural Population Analysis:

                                       Natural Population
                Natural  -----------------------------------------------
    Atom  No    Charge         Core      Valence    Rydberg      Total
 -----------------------------------------------------------------------
      C    1   -0.28514      0.99965     2.28054    0.00496     3.28514
      C    2   -0.11671      0.99956     2.10597    0.01117     3.11671
      C    3   -0.29242      0.99964     2.28744    0.00534     3.29242
      C    4    0.13597      0.99949     1.84700    0.01753     2.86403
      C    5   -0.29662      0.99962     2.28998    0.00702     3.29662
      C    6   -0.12916      0.99954     2.11197    0.01765     3.12916
      C    7   -0.07832      0.99963     2.06780    0.01089     3.07832
      N    8   -0.34950      0.99976     2.83711    0.01263     3.84950
      C    9   -0.08019      0.99963     2.06924    0.01132     3.08019
      O   10   -0.38244      0.99989     3.37597    0.00658     4.38244
      H   11    0.10406      0.00000     0.39492    0.00102     0.39594
      H   12    0.09716      0.00000     0.40204    0.00081     0.40284
      H   13    0.09368      0.00000     0.40546    0.00086     0.40632
      H   14    0.09687      0.00000     0.40148    0.00165     0.40313
      H   15    0.10193      0.00000     0.39707    0.00100     0.39807
      H   16    0.11374      0.00000     0.38469    0.00157     0.38626
      H   17    0.09072      0.00000     0.40843    0.00085     0.40928
      H   18    0.10225      0.00000     0.39655    0.00120     0.39775
      H   19    0.10297      0.00000     0.39516    0.00187     0.39703
      H   20    0.10178      0.00000     0.39711    0.00111     0.39822
      H   21    0.10474      0.00000     0.38935    0.00591     0.39526
      H   22    0.09086      0.00000     0.40592    0.00321     0.40914
      H   23    0.08525      0.00000     0.41300    0.00175     0.41475
      H   24    0.17471      0.00000     0.32256    0.00273     0.32529
      H   25    0.09188      0.00000     0.40648    0.00164     0.40812
      H   26    0.09016      0.00000     0.40692    0.00291     0.40984
      H   27    0.23176      0.00000     0.26422    0.00402     0.26824
 =======================================================================
   * Total *    0.00000      9.99641    29.86439    0.13920    40.00000

 Normal termination of Gaussian 16 at Tue Dec  8 13:36:04 2020.
