 Gaussian 16, Revision A.03,

 -----------------------------------------------------------
 # opt freq B3LYP/6-31G(d) empiricaldispersion=gd3bj scf=xqc
 -----------------------------------------------------------

 -------------------------------
 CID_43766126_JID_10098_neutraal
 -------------------------------
 Symbolic Z-matrix:
 Charge =  0 Multiplicity = 1

 SCF Done:  E(RB3LYP) =  -792.720603056     A.U. after   14 cycles
 SCF Done:  E(RB3LYP) =  -792.725944774     A.U. after   12 cycles
 SCF Done:  E(RB3LYP) =  -792.726812200     A.U. after   12 cycles
 SCF Done:  E(RB3LYP) =  -792.727141968     A.U. after   11 cycles
 SCF Done:  E(RB3LYP) =  -792.727392828     A.U. after   12 cycles
 SCF Done:  E(RB3LYP) =  -792.727592804     A.U. after   12 cycles
 SCF Done:  E(RB3LYP) =  -792.727740686     A.U. after   11 cycles
 SCF Done:  E(RB3LYP) =  -792.727816561     A.U. after   11 cycles
 SCF Done:  E(RB3LYP) =  -792.727833842     A.U. after   10 cycles
 SCF Done:  E(RB3LYP) =  -792.727748692     A.U. after   12 cycles
 SCF Done:  E(RB3LYP) =  -792.727884415     A.U. after    9 cycles
 SCF Done:  E(RB3LYP) =  -792.727882904     A.U. after    8 cycles
 SCF Done:  E(RB3LYP) =  -792.727882498     A.U. after    9 cycles
 SCF Done:  E(RB3LYP) =  -792.727889317     A.U. after   11 cycles
 SCF Done:  E(RB3LYP) =  -792.727889214     A.U. after    7 cycles
 Optimization completed.
    -- Stationary point found.
 Normal termination of Gaussian 16 at Mon Dec 14 17:44:17 2020.

 --------------------------------------------------------------------
 #N Geom=AllCheck Guess=TCheck SCRF=Check GenChk RB3LYP/6-31G(d) Freq
 --------------------------------------------------------------------

 Structure from the checkpoint file:  "JID_10098.chk"
 -------------------------------
 CID_43766126_JID_10098_neutraal
 -------------------------------
 Charge =  0 Multiplicity = 1

 SCF Done:  E(RB3LYP) =  -792.727889214     A.U. after    1 cycles

  Exact polarizability: 211.691 -15.872 218.336 -28.491 -21.470 151.195
 Approx polarizability: 301.803 -27.439 327.663 -65.200 -47.016 265.020

                      1                      2                      3
                      A                      A                      A
 Frequencies --     16.5284                39.9377                46.9326
 Red. masses --      4.6193                 3.9561                 3.6443
 Frc consts  --      0.0007                 0.0037                 0.0047
 IR Inten    --      0.1726                 0.0965                 0.2271

                      4                      5                      6
                      A                      A                      A
 Frequencies --     69.3609                80.4435                93.7049
 Red. masses --      3.0505                 3.0799                 3.4108
 Frc consts  --      0.0086                 0.0117                 0.0176
 IR Inten    --      0.0527                 0.0897                 0.0627

                      7                      8                      9
                      A                      A                      A
 Frequencies --    127.9187               172.1400               198.0195
 Red. masses --      2.9780                 3.0166                 3.8248
 Frc consts  --      0.0287                 0.0527                 0.0884
 IR Inten    --      0.7091                 0.1907                 0.5191

                     10                     11                     12
                      A                      A                      A
 Frequencies --    211.9763               220.9326               238.3195
 Red. masses --      1.1349                 3.0196                 3.8271
 Frc consts  --      0.0300                 0.0868                 0.1281
 IR Inten    --      0.8548                 0.3884                 0.5704

                     13                     14                     15
                      A                      A                      A
 Frequencies --    252.9841               286.1943               308.0760
 Red. masses --      1.7565                 3.2084                 3.7551
 Frc consts  --      0.0662                 0.1548                 0.2100
 IR Inten    --      0.0210                 1.5300                 0.9643

                     16                     17                     18
                      A                      A                      A
 Frequencies --    387.1696               410.2376               415.1084
 Red. masses --      3.9271                 3.1421                 2.9732
 Frc consts  --      0.3468                 0.3116                 0.3019
 IR Inten    --      2.1816                 1.3540                 0.0466

                     19                     20                     21
                      A                      A                      A
 Frequencies --    420.5164               452.2591               473.7041
 Red. masses --      2.9104                 2.7637                 2.0907
 Frc consts  --      0.3032                 0.3331                 0.2764
 IR Inten    --      2.0221                 6.9712                19.4501

                     22                     23                     24
                      A                      A                      A
 Frequencies --    493.1971               516.6404               537.5720
 Red. masses --      4.0537                 2.5983                 3.4606
 Frc consts  --      0.5810                 0.4086                 0.5892
 IR Inten    --      3.1099                 9.8041                 5.6972

                     25                     26                     27
                      A                      A                      A
 Frequencies --    558.0263               573.5679               604.7321
 Red. masses --      3.5296                 2.9816                 3.5729
 Frc consts  --      0.6476                 0.5779                 0.7698
 IR Inten    --      7.2700                16.3610                 8.0799

                     28                     29                     30
                      A                      A                      A
 Frequencies --    634.0579               636.1950               658.4041
 Red. masses --      3.7561                 5.9925                 2.8611
 Frc consts  --      0.8897                 1.4290                 0.7307
 IR Inten    --      4.9278                 1.0513                25.5833

                     31                     32                     33
                      A                      A                      A
 Frequencies --    716.8758               730.4634               759.1345
 Red. masses --      1.7776                 2.6268                 1.4405
 Frc consts  --      0.5382                 0.8258                 0.4891
 IR Inten    --     29.0977                 1.3680                46.7118

                     34                     35                     36
                      A                      A                      A
 Frequencies --    768.0369               774.4180               801.2070
 Red. masses --      1.9828                 1.9594                 2.8100
 Frc consts  --      0.6891                 0.6923                 1.0628
 IR Inten    --      1.0980                25.8331                 1.1655

                     37                     38                     39
                      A                      A                      A
 Frequencies --    824.0170               852.1400               860.6932
 Red. masses --      2.2261                 1.4060                 1.3677
 Frc consts  --      0.8906                 0.6015                 0.5970
 IR Inten    --      1.7301                 0.9580                 0.3473

                     40                     41                     42
                      A                      A                      A
 Frequencies --    861.9620               883.9484               890.1686
 Red. masses --      2.8858                 2.5260                 1.9072
 Frc consts  --      1.2632                 1.1629                 0.8904
 IR Inten    --      2.2173                 3.1664                 0.7015

                     43                     44                     45
                      A                      A                      A
 Frequencies --    922.2345               923.0915               938.9275
 Red. masses --      1.3351                 1.4327                 1.7888
 Frc consts  --      0.6690                 0.7193                 0.9291
 IR Inten    --      1.0001                 2.2858                 1.3300

                     46                     47                     48
                      A                      A                      A
 Frequencies --    959.9352               967.7593               968.8418
 Red. masses --      1.2285                 2.4207                 1.4201
 Frc consts  --      0.6670                 1.3358                 0.7854
 IR Inten    --      0.0128                 1.1574                 0.1071

                     49                     50                     51
                      A                      A                      A
 Frequencies --    980.5570               994.4014              1017.3595
 Red. masses --      2.1569                 1.2639                 1.5920
 Frc consts  --      1.2219                 0.7363                 0.9708
 IR Inten    --      3.0803                 0.3651                 6.5927

                     52                     53                     54
                      A                      A                      A
 Frequencies --   1022.6365              1060.9100              1065.8184
 Red. masses --      6.0954                 2.2724                 2.1119
 Frc consts  --      3.7557                 1.5069                 1.4135
 IR Inten    --      0.7261                 0.6500                 2.4328

                     55                     56                     57
                      A                      A                      A
 Frequencies --   1074.8167              1085.2493              1088.3324
 Red. masses --      1.4805                 2.0859                 2.5143
 Frc consts  --      1.0077                 1.4474                 1.7547
 IR Inten    --      1.3675                 9.7006                 1.2478

                     58                     59                     60
                      A                      A                      A
 Frequencies --   1103.9382              1108.0099              1124.5556
 Red. masses --      2.5693                 2.1667                 2.1060
 Frc consts  --      1.8448                 1.5672                 1.5692
 IR Inten    --      3.9410                 1.7927                 7.7560

                     61                     62                     63
                      A                      A                      A
 Frequencies --   1145.8121              1150.1908              1182.4533
 Red. masses --      1.3757                 1.7118                 2.0595
 Frc consts  --      1.0642                 1.3343                 1.6966
 IR Inten    --      2.1120                 8.4981                32.2048

                     64                     65                     66
                      A                      A                      A
 Frequencies --   1194.1376              1195.9633              1217.6198
 Red. masses --      1.0973                 1.1204                 1.1329
 Frc consts  --      0.9219                 0.9442                 0.9896
 IR Inten    --      0.0682                 3.6575                 0.5517

                     67                     68                     69
                      A                      A                      A
 Frequencies --   1221.7263              1229.2357              1240.3510
 Red. masses --      2.3204                 1.4389                 1.9910
 Frc consts  --      2.0406                 1.2810                 1.8047
 IR Inten    --      0.9006                 3.5736                 0.0423

                     70                     71                     72
                      A                      A                      A
 Frequencies --   1281.6266              1289.8525              1301.8142
 Red. masses --      1.5121                 1.2845                 1.7680
 Frc consts  --      1.4634                 1.2591                 1.7653
 IR Inten    --      4.6019                 1.9832                 8.9668

                     73                     74                     75
                      A                      A                      A
 Frequencies --   1316.2201              1342.4548              1346.0201
 Red. masses --      2.0577                 1.3049                 1.7339
 Frc consts  --      2.1004                 1.3856                 1.8509
 IR Inten    --     49.8753                 8.2890                27.7480

                     76                     77                     78
                      A                      A                      A
 Frequencies --   1357.4471              1366.4514              1369.5330
 Red. masses --      1.6488                 2.7878                 2.1562
 Frc consts  --      1.7901                 3.0669                 2.3828
 IR Inten    --     18.2959                23.6995                 0.8227

                     79                     80                     81
                      A                      A                      A
 Frequencies --   1375.2421              1384.1035              1389.1592
 Red. masses --      1.4402                 1.3412                 1.3572
 Frc consts  --      1.6049                 1.5139                 1.5431
 IR Inten    --      0.2881                 5.9744                 6.2651

                     82                     83                     84
                      A                      A                      A
 Frequencies --   1398.3215              1415.4815              1425.4246
 Red. masses --      1.4245                 1.3955                 1.3418
 Frc consts  --      1.6410                 1.6474                 1.6063
 IR Inten    --      2.2455                24.2509                 0.7000

                     85                     86                     87
                      A                      A                      A
 Frequencies --   1443.0183              1499.5045              1504.4499
 Red. masses --      1.2742                 2.2243                 1.9131
 Frc consts  --      1.5633                 2.9468                 2.5511
 IR Inten    --      2.6441                37.1766                 1.3624

                     88                     89                     90
                      A                      A                      A
 Frequencies --   1509.2720              1517.6896              1519.6972
 Red. masses --      1.4925                 1.0950                 1.0669
 Frc consts  --      2.0031                 1.4860                 1.4517
 IR Inten    --     14.1748                 1.3353                 1.6291

                     91                     92                     93
                      A                      A                      A
 Frequencies --   1520.5878              1531.6486              1542.1271
 Red. masses --      1.0792                 1.0956                 1.1111
 Frc consts  --      1.4702                 1.5143                 1.5568
 IR Inten    --      1.6349                 6.5663                 3.5773

                     94                     95                     96
                      A                      A                      A
 Frequencies --   1544.9152              1547.7508              1572.7298
 Red. masses --      1.4301                 2.1076                 1.7964
 Frc consts  --      2.0111                 2.9747                 2.6180
 IR Inten    --     47.9921                 8.8270               105.9683

                     97                     98                     99
                      A                      A                      A
 Frequencies --   1645.6985              1649.2637              1667.0711
 Red. masses --      5.3989                 4.0936                 5.5794
 Frc consts  --      8.6149                 6.5605                 9.1357
 IR Inten    --      1.3605                39.0073                 5.5297

                    100                    101                    102
                      A                      A                      A
 Frequencies --   1671.1408              3012.3496              3025.9369
 Red. masses --      5.5767                 1.0816                 1.0404
 Frc consts  --      9.1760                 5.7828                 5.6125
 IR Inten    --     51.4588                 3.6058                24.2245

                    103                    104                    105
                      A                      A                      A
 Frequencies --   3028.7718              3035.9816              3042.6600
 Red. masses --      1.0836                 1.0706                 1.0628
 Frc consts  --      5.8566                 5.8138                 5.7969
 IR Inten    --     17.2579                20.9712                42.1442

                    106                    107                    108
                      A                      A                      A
 Frequencies --   3052.2073              3052.9655              3073.4699
 Red. masses --      1.0658                 1.0635                 1.0998
 Frc consts  --      5.8498                 5.8402                 6.1208
 IR Inten    --     41.3293                14.7657                13.7935

                    109                    110                    111
                      A                      A                      A
 Frequencies --   3080.4022              3084.3913              3097.4202
 Red. masses --      1.0992                 1.0921                 1.1041
 Frc consts  --      6.1453                 6.1216                 6.2410
 IR Inten    --     29.0814                48.7820                44.5984

                    112                    113                    114
                      A                      A                      A
 Frequencies --   3102.5789              3124.9127              3171.3851
 Red. masses --      1.1038                 1.0976                 1.0870
 Frc consts  --      6.2602                 6.3148                 6.4411
 IR Inten    --     59.3595                16.2954                14.7488

                    115                    116                    117
                      A                      A                      A
 Frequencies --   3174.7248              3182.4467              3184.6477
 Red. masses --      1.0869                 1.0877                 1.0860
 Frc consts  --      6.4544                 6.4904                 6.4894
 IR Inten    --      7.8590                15.5809                 1.4593

                    118                    119                    120
                      A                      A                      A
 Frequencies --   3192.6677              3201.5144              3203.3110
 Red. masses --      1.0899                 1.0939                 1.0921
 Frc consts  --      6.5455                 6.6061                 6.6026
 IR Inten    --      9.7414                35.2267                40.6113

                    121                    122                    123
                      A                      A                      A
 Frequencies --   3211.8977              3212.2331              3597.2544
 Red. masses --      1.0951                 1.0979                 1.0744
 Frc consts  --      6.6564                 6.6749                 8.1917
 IR Inten    --     17.4947                17.7126                24.3186

 - Thermochemistry -
 -------------------
 Temperature   298.150 Kelvin.  Pressure   1.00000 Atm.
 Atom     1 has atomic number  6 and mass  12.00000

 Molecular mass:   265.18305 amu.
 Principal axes and moments of inertia in atomic units:
                           1         2         3
     Eigenvalues --  4485.431145735.486598823.31761
           X            0.99644  -0.08425  -0.00084
           Y            0.08424   0.99639  -0.01073
           Z            0.00174   0.01062   0.99994
 This molecule is an asymmetric top.
 Rotational symmetry number  1.
 Warning -- assumption of classical behavior for rotation
           may cause significant error
 Rotational temperatures (Kelvin)      0.01931     0.01510     0.00982
 Rotational constants (GHZ):           0.40236     0.31466     0.20454
 Zero-point vibrational energy     995500.2 (Joules/Mol)
                                  237.93025 (Kcal/Mol)
 Warning -- explicit consideration of  27 degrees of freedom as
           vibrations may cause significant error
 Vibrational temperatures:     23.78    57.46    67.53    99.79   115.74
          (Kelvin)            134.82   184.05   247.67   284.91   304.99
                              317.87   342.89   363.99   411.77   443.25
                              557.05   590.24   597.25   605.03   650.70
                              681.55   709.60   743.33   773.45   802.88
                              825.24   870.07   912.27   915.34   947.30
                             1031.42  1050.97  1092.23  1105.03  1114.21
                             1152.76  1185.58  1226.04  1238.35  1240.17
                             1271.80  1280.75  1326.89  1328.12  1350.91
                             1381.13  1392.39  1393.95  1410.80  1430.72
                             1463.75  1471.35  1526.41  1533.48  1546.42
                             1561.43  1565.87  1588.32  1594.18  1617.98
                             1648.57  1654.87  1701.29  1718.10  1720.72
                             1751.88  1757.79  1768.60  1784.59  1843.97
                             1855.81  1873.02  1893.75  1931.49  1936.62
                             1953.06  1966.02  1970.45  1978.67  1991.42
                             1998.69  2011.87  2036.56  2050.87  2076.18
                             2157.45  2164.57  2171.51  2183.62  2186.51
                             2187.79  2203.70  2218.78  2222.79  2226.87
                             2262.81  2367.79  2372.92  2398.54  2404.40
                             4334.10  4353.65  4357.73  4368.10  4377.71
                             4391.45  4392.54  4422.04  4432.01  4437.75
                             4456.50  4463.92  4496.05  4562.92  4567.72
                             4578.83  4582.00  4593.54  4606.27  4608.85
                             4621.20  4621.69  5175.65

 Zero-point correction=                           0.379166 (Hartree/Particle)
 Thermal correction to Energy=                    0.396861
 Thermal correction to Enthalpy=                  0.397805
 Thermal correction to Gibbs Free Energy=         0.332332
 Sum of electronic and zero-point Energies=           -792.348723
 Sum of electronic and thermal Energies=              -792.331028
 Sum of electronic and thermal Enthalpies=            -792.330084
 Sum of electronic and thermal Free Energies=         -792.395558

                     E (Thermal)             CV                S
                      KCal/Mol        Cal/Mol-Kelvin    Cal/Mol-Kelvin
 Total                  249.034             70.992            137.800
 Electronic               0.000              0.000              0.000
 Translational            0.889              2.981             42.625
 Rotational               0.889              2.981             33.784
 Vibrational            247.256             65.031             61.391
 Vibration     1          0.593              1.986              7.013
 Vibration     2          0.594              1.981              5.262
 Vibration     3          0.595              1.979              4.943
 Vibration     4          0.598              1.969              4.171
 Vibration     5          0.600              1.962              3.880
 Vibration     6          0.603              1.954              3.581
 Vibration     7          0.611              1.925              2.977
 Vibration     8          0.626              1.877              2.412
 Vibration     9          0.637              1.843              2.151
 Vibration    10          0.643              1.823              2.027
 Vibration    11          0.648              1.809              1.951
 Vibration    12          0.656              1.782              1.815
 Vibration    13          0.664              1.758              1.710
 Vibration    14          0.684              1.699              1.496
 Vibration    15          0.698              1.658              1.373
 Vibration    16          0.756              1.498              1.011
 Vibration    17          0.774              1.448              0.926
 Vibration    18          0.779              1.437              0.909
 Vibration    19          0.783              1.426              0.890
 Vibration    20          0.811              1.356              0.789
 Vibration    21          0.830              1.308              0.727
 Vibration    22          0.849              1.265              0.675
 Vibration    23          0.872              1.213              0.618
 Vibration    24          0.893              1.167              0.571
 Vibration    25          0.914              1.122              0.528
 Vibration    26          0.930              1.088              0.497
 Vibration    27          0.963              1.022              0.442

                           ! Non-Optimized Parameters !
 Normal termination of Gaussian 16 at Mon Dec 14 18:11:36 2020.

 ----------------------------------------------------------------------
 # B3LYP/6-311++G(d,p) empiricaldispersion=gd3bj scf=xqc pop=npa geom=c
 heck
 ----------------------------------------------------------------------

 ---------------------------------------
 CID_43766126_JID_10098_Energie_neutraal
 ---------------------------------------
 Structure from the checkpoint file:  "JID_10098.chk"
 Charge =  0 Multiplicity = 1

 SCF Done:  E(RB3LYP) =  -792.933731332     A.U. after   14 cycles
 Normal termination of Gaussian 16 at Mon Dec 14 18:23:28 2020.

 ----------------------------------------------------------------------
 # B3LYP/6-311++G(d,p) empiricaldispersion=gd3bj scf=xqc pop=npa geom=c
 heck
 ----------------------------------------------------------------------

 -------------------------------------
 CID_43766126_JID_10098_Energie_kation
 -------------------------------------
 Structure from the checkpoint file:  "JID_10098.chk"
 Charge =  1 Multiplicity = 2

 SCF Done:  E(UB3LYP) =  -792.675366198     A.U. after   21 cycles
 Normal termination of Gaussian 16 at Mon Dec 14 18:49:33 2020.
 Gaussian 16:  ES64L-G16RevA.03 25-Dec-2016

 ----------------------------------------------------------------------
 # B3LYP/6-311++G(d,p) empiricaldispersion=gd3bj scf=xqc pop=npa geom=c
 heck
 ----------------------------------------------------------------------

 ------------------------------------
 CID_43766126_JID_10098_Energie_anion
 ------------------------------------
 Structure from the checkpoint file:  "JID_10098.chk"
 Charge = -1 Multiplicity = 2

                         Standard orientation:
 ---------------------------------------------------------------------
 Center     Atomic      Atomic             Coordinates (Angstroms)
 Number     Number       Type             X           Y           Z
 ---------------------------------------------------------------------
      1          6           0        2.253842   -1.418977    1.447900
      2          6           0        2.609674   -0.208441    0.620999
      3          6           0        3.883557   -0.065610    0.072494
      4          6           0        4.229618    1.030326   -0.720867
      5          6           0        3.273410    2.013365   -0.963782
      6          6           0        1.994479    1.902852   -0.421123
      7          6           0        1.643501    0.797327    0.370816
      8          7           0        0.370109    0.683981    0.929078
      9          6           0       -0.803738    1.205846    0.228673
     10          6           0       -1.296736    2.539240    0.838056
     11          6           0       -2.786315    2.819043    0.540543
     12          6           0       -3.203944    2.183579   -0.790034
     13          6           0       -3.070646    0.645334   -0.733084
     14          6           0       -1.955326    0.174401    0.237044
     15          6           0       -1.477601   -1.229995   -0.071996
     16          6           0       -1.734943   -2.281295    0.813949
     17          6           0       -1.259244   -3.570113    0.560540
     18          6           0       -0.509916   -3.823237   -0.587135
     19          6           0       -0.245676   -2.781546   -1.480943
     20          6           0       -0.727677   -1.500424   -1.226367
     21          1           0        1.443806   -2.003784    0.990463
     22          1           0        3.117056   -2.082394    1.553481
     23          1           0        1.925894   -1.143639    2.459940
     24          1           0        4.619445   -0.843016    0.266298
     25          1           0        5.229082    1.112475   -1.137177
     26          1           0        3.519699    2.879976   -1.571792
     27          1           0        1.268990    2.690782   -0.594350
     28          1           0        0.201592   -0.232747    1.319884
     29          1           0       -0.524576    1.376143   -0.820288
     30          1           0       -1.121189    2.497452    1.918312
     31          1           0       -0.673846    3.356752    0.455277
     32          1           0       -3.412542    2.405683    1.342311
     33          1           0       -2.974809    3.898434    0.531800
     34          1           0       -4.231939    2.460007   -1.050281
     35          1           0       -2.566580    2.583617   -1.589729
     36          1           0       -2.862684    0.253421   -1.735282
     37          1           0       -4.016858    0.191353   -0.415980
     38          1           0       -2.366976    0.162789    1.255728
     39          1           0       -2.309896   -2.085936    1.716325
     40          1           0       -1.469876   -4.371317    1.263524
     41          1           0       -0.130466   -4.821744   -0.784330
     42          1           0        0.345453   -2.966955   -2.373303
     43          1           0       -0.497445   -0.695262   -1.918488
 ---------------------------------------------------------------------

 SCF Done:  E(UB3LYP) =  -792.920561124     A.U. after   33 cycles
 SCF Done:  E(UB3LYP) =  -792.920561124     a.u. after    1 cycles

 The electronic state is 2-A.
 Alpha  occ. eigenvalues --  -14.22783 -10.12241 -10.11817 -10.09457 -10.09260
 Alpha  occ. eigenvalues --  -10.08976 -10.08888 -10.08671 -10.08629 -10.08602
 Alpha  occ. eigenvalues --  -10.08566 -10.08541 -10.08383 -10.07948 -10.07902
 Alpha  occ. eigenvalues --  -10.07893 -10.07800 -10.07553 -10.07506 -10.07473
 Alpha  occ. eigenvalues --   -0.85118  -0.77700  -0.76066  -0.73657  -0.68599
 Alpha  occ. eigenvalues --   -0.68536  -0.66024  -0.65773  -0.63689  -0.62304
 Alpha  occ. eigenvalues --   -0.59699  -0.55073  -0.53210  -0.52118  -0.50683
 Alpha  occ. eigenvalues --   -0.49884  -0.49574  -0.45165  -0.43857  -0.42951
 Alpha  occ. eigenvalues --   -0.41573  -0.39202  -0.38868  -0.37096  -0.36375
 Alpha  occ. eigenvalues --   -0.35804  -0.35179  -0.34238  -0.33739  -0.33407
 Alpha  occ. eigenvalues --   -0.32898  -0.32384  -0.31222  -0.30614  -0.30412
 Alpha  occ. eigenvalues --   -0.29681  -0.28734  -0.27575  -0.27117  -0.26692
 Alpha  occ. eigenvalues --   -0.26304  -0.26226  -0.25526  -0.25219  -0.23152
 Alpha  occ. eigenvalues --   -0.22970  -0.21416  -0.20205  -0.16984  -0.16152
 Alpha  occ. eigenvalues --   -0.15978  -0.11477   0.04005
 Alpha virt. eigenvalues --    0.05516   0.05990   0.06557   0.06875   0.07197
 Alpha virt. eigenvalues --    0.07333   0.07556   0.07795   0.08061   0.08147
 Alpha virt. eigenvalues --    0.08848   0.09079   0.09733   0.10129   0.10271

  Beta  occ. eigenvalues --  -14.22778 -10.12240 -10.11813 -10.09456 -10.09250
  Beta  occ. eigenvalues --  -10.08975 -10.08880 -10.08652 -10.08619 -10.08587
  Beta  occ. eigenvalues --  -10.08563 -10.08526 -10.08379 -10.07936 -10.07898
  Beta  occ. eigenvalues --  -10.07880 -10.07797 -10.07533 -10.07496 -10.07452
  Beta  occ. eigenvalues --   -0.85107  -0.77680  -0.76054  -0.73635  -0.68573
  Beta  occ. eigenvalues --   -0.68522  -0.65993  -0.65757  -0.63662  -0.62278
  Beta  occ. eigenvalues --   -0.59682  -0.55040  -0.53179  -0.52078  -0.50664
  Beta  occ. eigenvalues --   -0.49865  -0.49538  -0.45121  -0.43832  -0.42913
  Beta  occ. eigenvalues --   -0.41553  -0.39175  -0.38836  -0.37075  -0.36353
  Beta  occ. eigenvalues --   -0.35765  -0.35162  -0.34224  -0.33716  -0.33380
  Beta  occ. eigenvalues --   -0.32875  -0.32371  -0.31184  -0.30591  -0.30398
  Beta  occ. eigenvalues --   -0.29648  -0.28711  -0.27544  -0.27097  -0.26676
  Beta  occ. eigenvalues --   -0.26288  -0.26195  -0.25499  -0.25203  -0.23124
  Beta  occ. eigenvalues --   -0.22940  -0.21389  -0.20188  -0.16960  -0.16138
  Beta  occ. eigenvalues --   -0.15964  -0.11468
  Beta virt. eigenvalues --    0.05812   0.06402   0.06491   0.06739   0.07011
  Beta virt. eigenvalues --    0.07336   0.07771   0.07805   0.08010   0.08432
  Beta virt. eigenvalues --    0.08631   0.08911   0.09442   0.09940   0.10334

 Mulliken charges and spin densities:
               1          2
     1  C   -0.191950  -0.687259
     2  C   -0.173381   0.934602
     3  C   -0.055957  -0.386842
     4  C   -0.093490  -0.279545
     5  C   -0.308085  -0.120569
     6  C    0.209454  -0.274246
     7  C   -0.184954   0.364405
     8  N    0.392699   0.007263
     9  C   -0.685490  -0.004780
    10  C    0.728091  -0.857769
    11  C    0.079487  -0.416248
    12  C   -0.039538  -0.355442
    13  C    0.219227  -0.889208
    14  C    0.243233  -0.289869
    15  C    0.831939  -0.305454
    16  C   -0.414433   0.336413
    17  C   -0.054899  -0.338500
    18  C    1.156602  -1.475979
    19  C   -0.715905   0.499531
    20  C   -0.696484   0.416718
    21  H    0.580496  -0.402229
    22  H   -0.148844   0.297576
    23  H   -0.030790   0.188749
    24  H    0.029222   0.102741
    25  H    0.054728   0.081154
    26  H    0.018565   0.142470
    27  H   -0.059557   0.175536
    28  H    0.469516  -0.148747
    29  H    0.194195  -0.057275
    30  H    0.037316   0.120695
    31  H    0.122858   0.010147
    32  H   -0.030582   0.161165
    33  H   -0.407876   0.612987
    34  H   -0.447090   0.649469
    35  H    0.028090   0.095231
    36  H    0.106489   0.042151
    37  H   -0.046615   0.228867
    38  H    0.089735   0.147093
    39  H   -0.576007   0.750154
    40  H   -0.689051   0.883470
    41  H   -0.378275   0.546736
    42  H   -0.181846   0.363681
    43  H    0.019157   0.130958
 Sum of Mulliken charges =  -1.00000   1.00000

 Dipole moment (field-independent basis, Debye):
    X=              4.8386    Y=              2.5484    Z=             -1.6153  Tot=              5.7023
 Quadrupole moment (field-independent basis, Debye-Ang):
   XX=           -194.5717   YY=           -205.8212   ZZ=           -159.2200
   XY=              5.1834   XZ=              3.1505   YZ=              4.0386

 Summary of Natural Population Analysis:

                                       Natural Population
                Natural  -----------------------------------------------
    Atom  No    Charge         Core      Valence    Rydberg      Total
 -----------------------------------------------------------------------
      C    1   -0.30128      0.99963     2.29612    0.00553     3.30128
      C    2   -0.03485      0.99949     2.02614    0.00922     3.03485
      C    3   -0.09459      0.99952     2.08652    0.00854     3.09459
      C    4   -0.12657      0.99957     2.11647    0.01054     3.12657
      C    5   -0.09780      0.99957     2.08875    0.00948     3.09780
      C    6   -0.12986      0.99953     2.12271    0.00762     3.12986
      C    7    0.09728      0.99945     1.89297    0.01031     2.90272
      N    8   -0.31794      0.99966     2.80813    0.01015     3.81794
      C    9   -0.00672      0.99956     1.99468    0.01248     3.00672
      C   10   -0.18848      0.99961     2.17980    0.00908     3.18848
      C   11   -0.19248      0.99963     2.18486    0.00800     3.19248
      C   12   -0.19152      0.99963     2.18383    0.00806     3.19152
      C   13   -0.18108      0.99961     2.17275    0.00871     3.18108
      C   14   -0.12120      0.99954     2.10938    0.01227     3.12120
      C   15   -0.01824      0.99950     2.00565    0.01309     3.01824
      C   16   -0.10206      0.99950     2.09191    0.01065     3.10206
      C   17   -0.09610      0.99956     2.08563    0.01091     3.09610
      C   18   -0.10507      0.99956     2.09496    0.01055     3.10507
      C   19   -0.09751      0.99956     2.08781    0.01013     3.09751
      C   20   -0.10104      0.99949     2.09254    0.00900     3.10104
      H   21    0.11057      0.00000     0.38767    0.00176     0.38943
      H   22    0.10426      0.00000     0.39492    0.00083     0.39574
      H   23    0.10241      0.00000     0.39661    0.00098     0.39759
      H   24    0.09720      0.00000     0.40188    0.00092     0.40280
      H   25    0.09789      0.00000     0.40135    0.00076     0.40211
      H   26    0.09803      0.00000     0.40118    0.00079     0.40197
      H   27    0.10187      0.00000     0.39655    0.00159     0.39813
      H   28    0.19341      0.00000     0.30272    0.00387     0.30659
      H   29    0.09221      0.00000     0.40503    0.00276     0.40779
      H   30    0.10304      0.00000     0.39570    0.00126     0.39696
      H   31    0.09589      0.00000     0.40292    0.00119     0.40411
      H   32    0.09516      0.00000     0.40344    0.00140     0.40484
      H   33    0.10180      0.00000     0.39697    0.00123     0.39820
      H   34    0.10308      0.00000     0.39563    0.00129     0.39692
      H   35    0.09224      0.00000     0.40647    0.00129     0.40776
      H   36    0.09907      0.00000     0.39971    0.00122     0.40093
      H   37    0.10094      0.00000     0.39799    0.00107     0.39906
      H   38    0.10180      0.00000     0.39590    0.00231     0.39820
      H   39    0.10395      0.00000     0.39440    0.00166     0.39605
      H   40    0.10466      0.00000     0.39338    0.00196     0.39534
      H   41    0.10356      0.00000     0.39504    0.00140     0.39644
      H   42    0.10163      0.00000     0.39751    0.00086     0.39837
      H   43    0.10245      0.00000     0.39605    0.00151     0.39755
 =======================================================================
   * Total *   -0.00000     19.99116    51.78063    0.22821    72.00000

 Normal termination of Gaussian 16 at Mon Dec 14 19:30:30 2020.
