 Gaussian 16, Revision A.03,

 -----------------------------------------------------------
 # opt freq B3LYP/6-31G(d) empiricaldispersion=gd3bj scf=xqc
 -----------------------------------------------------------

 ------------------------------
 CID_83977026_JID_9758_neutraal
 ------------------------------
 Symbolic Z-matrix:
 Charge =  0 Multiplicity = 1

 SCF Done:  E(RB3LYP) =  -754.616279000     A.U. after   13 cycles
 SCF Done:  E(RB3LYP) =  -754.620924885     A.U. after   12 cycles
 SCF Done:  E(RB3LYP) =  -754.621726609     A.U. after   12 cycles
 SCF Done:  E(RB3LYP) =  -754.622022562     A.U. after   12 cycles
 SCF Done:  E(RB3LYP) =  -754.622155800     A.U. after   12 cycles
 SCF Done:  E(RB3LYP) =  -754.622202400     A.U. after   12 cycles
 SCF Done:  E(RB3LYP) =  -754.622225583     A.U. after   10 cycles
 SCF Done:  E(RB3LYP) =  -754.622230159     A.U. after   10 cycles
 SCF Done:  E(RB3LYP) =  -754.622231755     A.U. after    9 cycles
 SCF Done:  E(RB3LYP) =  -754.622234153     A.U. after    9 cycles
 SCF Done:  E(RB3LYP) =  -754.622417176     A.U. after   10 cycles
 SCF Done:  E(RB3LYP) =  -754.622417741     A.U. after    8 cycles
 SCF Done:  E(RB3LYP) =  -754.622417955     A.U. after    9 cycles
 SCF Done:  E(RB3LYP) =  -754.622417983     A.U. after    6 cycles
 SCF Done:  E(RB3LYP) =  -754.622417986     A.U. after    6 cycles
 Optimization completed.
    -- Stationary point found.
 Normal termination of Gaussian 16 at Mon Dec 14 18:40:20 2020.

 --------------------------------------------------------------------
 #N Geom=AllCheck Guess=TCheck SCRF=Check GenChk RB3LYP/6-31G(d) Freq
 --------------------------------------------------------------------

 Structure from the checkpoint file:  "JID_9758.chk"
 ------------------------------
 CID_83977026_JID_9758_neutraal
 ------------------------------
 Charge =  0 Multiplicity = 1

 SCF Done:  E(RB3LYP) =  -754.622417986     A.U. after    1 cycles

  Exact polarizability: 205.880 -11.527 206.304  34.111   8.441 147.993
 Approx polarizability: 282.115 -15.599 327.086  71.224  21.697 246.689

                      1                      2                      3
                      A                      A                      A
 Frequencies --     14.4209                21.2369                36.4499
 Red. masses --      3.7271                 4.0175                 1.3830
 Frc consts  --      0.0005                 0.0011                 0.0011
 IR Inten    --      0.1788                 0.0313                 0.2096

                      4                      5                      6
                      A                      A                      A
 Frequencies --     41.6594                45.0030                54.0336
 Red. masses --      1.0292                 1.9538                 1.6581
 Frc consts  --      0.0011                 0.0023                 0.0029
 IR Inten    --      0.1259                 0.1543                 0.6878

                      7                      8                      9
                      A                      A                      A
 Frequencies --     55.1643                79.9603               125.2837
 Red. masses --      1.5488                 3.9713                 3.5477
 Frc consts  --      0.0028                 0.0150                 0.0328
 IR Inten    --      0.2266                 0.1144                 1.8163

                     10                     11                     12
                      A                      A                      A
 Frequencies --    146.9633               177.6422               196.5704
 Red. masses --      3.9312                 3.4097                 2.4318
 Frc consts  --      0.0500                 0.0634                 0.0554
 IR Inten    --      0.1427                 1.2072                 4.3386

                     13                     14                     15
                      A                      A                      A
 Frequencies --    204.1554               227.8532               263.2842
 Red. masses --      2.6922                 3.0427                 2.6471
 Frc consts  --      0.0661                 0.0931                 0.1081
 IR Inten    --      3.8975                 0.2262                10.1151

                     16                     17                     18
                      A                      A                      A
 Frequencies --    275.3349               287.4813               313.0489
 Red. masses --      2.7509                 1.4047                 2.3079
 Frc consts  --      0.1229                 0.0684                 0.1333
 IR Inten    --      1.1390                46.4771                 8.1449

                     19                     20                     21
                      A                      A                      A
 Frequencies --    333.8031               382.5652               394.7282
 Red. masses --      4.0115                 2.8332                 2.2732
 Frc consts  --      0.2633                 0.2443                 0.2087
 IR Inten    --      7.4914                 0.4634                 0.0051

                     22                     23                     24
                      A                      A                      A
 Frequencies --    419.0203               451.8608               477.5033
 Red. masses --      3.0292                 3.4222                 3.3077
 Frc consts  --      0.3134                 0.4117                 0.4444
 IR Inten    --      0.2357                 0.7589                 4.6791

                     25                     26                     27
                      A                      A                      A
 Frequencies --    508.5164               522.8473               523.8216
 Red. masses --      4.0993                 4.5889                 3.2498
 Frc consts  --      0.6246                 0.7391                 0.5254
 IR Inten    --      7.6003                 1.0749                 0.3191

                     28                     29                     30
                      A                      A                      A
 Frequencies --    549.9643               555.5771               603.2902
 Red. masses --      3.8467                 3.4453                 2.7926
 Frc consts  --      0.6855                 0.6266                 0.5988
 IR Inten    --      1.5925                 7.9797                 0.8299

                     31                     32                     33
                      A                      A                      A
 Frequencies --    624.5875               661.3040               724.5323
 Red. masses --      3.2707                 6.6588                 2.5970
 Frc consts  --      0.7518                 1.7157                 0.8032
 IR Inten    --      6.2871                 0.1021                 6.9406

                     34                     35                     36
                      A                      A                      A
 Frequencies --    729.8178               767.0271               827.0534
 Red. masses --      3.0521                 3.5167                 1.5840
 Frc consts  --      0.9578                 1.2190                 0.6384
 IR Inten    --      9.9260                 2.1559                12.1649

                     37                     38                     39
                      A                      A                      A
 Frequencies --    855.7181               856.7696               867.9176
 Red. masses --      1.7058                 2.2959                 1.3714
 Frc consts  --      0.7359                 0.9929                 0.6087
 IR Inten    --      2.5244                 1.2466                12.8358

                     40                     41                     42
                      A                      A                      A
 Frequencies --    880.1415               893.7856               899.3680
 Red. masses --      1.2902                 2.8059                 1.3237
 Frc consts  --      0.5889                 1.3207                 0.6308
 IR Inten    --     89.9035                16.1868                 5.2445

                     43                     44                     45
                      A                      A                      A
 Frequencies --    908.8910               925.9482               957.1051
 Red. masses --      1.3952                 1.5937                 1.3169
 Frc consts  --      0.6791                 0.8051                 0.7107
 IR Inten    --     15.2616                15.4143                 0.8473

                     46                     47                     48
                      A                      A                      A
 Frequencies --    964.6760               970.8972              1006.5733
 Red. masses --      1.3186                 3.3890                 1.6189
 Frc consts  --      0.7230                 1.8822                 0.9664
 IR Inten    --      1.6134                 2.2918                 2.0410

                     49                     50                     51
                      A                      A                      A
 Frequencies --   1017.0300              1022.4063              1039.7945
 Red. masses --      1.5255                 5.0393                 3.0906
 Frc consts  --      0.9297                 3.1036                 1.9688
 IR Inten    --      0.7439                 0.4377                 1.8937

                     52                     53                     54
                      A                      A                      A
 Frequencies --   1046.2383              1047.8062              1062.8135
 Red. masses --      2.7958                 1.5525                 1.9272
 Frc consts  --      1.8031                 1.0043                 1.2826
 IR Inten    --      2.0625                 1.7790                 1.7378

                     55                     56                     57
                      A                      A                      A
 Frequencies --   1066.5932              1074.7714              1075.7513
 Red. masses --      2.2853                 1.5267                 1.5178
 Frc consts  --      1.5318                 1.0390                 1.0349
 IR Inten    --      9.1717                15.0066                11.1453

                     58                     59                     60
                      A                      A                      A
 Frequencies --   1075.9639              1137.9181              1149.2384
 Red. masses --      1.5152                 2.3971                 1.3617
 Frc consts  --      1.0335                 1.8288                 1.0596
 IR Inten    --      0.6172                 6.4287                 3.1775

                     61                     62                     63
                      A                      A                      A
 Frequencies --   1181.2007              1198.7179              1205.4419
 Red. masses --      1.3039                 1.2383                 1.4602
 Frc consts  --      1.0719                 1.0483                 1.2501
 IR Inten    --      1.6929                 6.4030                 0.2457

                     64                     65                     66
                      A                      A                      A
 Frequencies --   1213.9791              1221.7539              1240.3204
 Red. masses --      1.3036                 1.1235                 4.4651
 Frc consts  --      1.1319                 0.9881                 4.0472
 IR Inten    --      0.6839                 0.8590                 0.2991

                     67                     68                     69
                      A                      A                      A
 Frequencies --   1248.2323              1284.1628              1318.9161
 Red. masses --      2.1521                 1.3026                 2.1878
 Frc consts  --      1.9757                 1.2656                 2.2423
 IR Inten    --      3.0232                 1.9600                 0.1331

                     70                     71                     72
                      A                      A                      A
 Frequencies --   1327.5713              1343.9574              1353.4001
 Red. masses --      2.2895                 1.3279                 2.1706
 Frc consts  --      2.3774                 1.4132                 2.3425
 IR Inten    --      0.9370                 0.8565                 0.1411

                     73                     74                     75
                      A                      A                      A
 Frequencies --   1359.2100              1365.3335              1372.4135
 Red. masses --      1.6815                 2.6760                 1.6091
 Frc consts  --      1.8303                 2.9390                 1.7856
 IR Inten    --      2.0473                 0.7145                 0.6829

                     76                     77                     78
                      A                      A                      A
 Frequencies --   1410.0185              1439.7343              1442.6111
 Red. masses --      1.6903                 1.2397                 1.2498
 Frc consts  --      1.9799                 1.5140                 1.5324
 IR Inten    --      7.1892                 0.1893                 0.4229

                     79                     80                     81
                      A                      A                      A
 Frequencies --   1443.0254              1447.1805              1464.2222
 Red. masses --      1.2940                 1.4372                 2.4279
 Frc consts  --      1.5875                 1.7734                 3.0669
 IR Inten    --      0.5225                18.0463                 1.5986

                     82                     83                     84
                      A                      A                      A
 Frequencies --   1483.5741              1500.5920              1515.2606
 Red. masses --      2.0020                 1.9818                 1.0468
 Frc consts  --      2.5961                 2.6293                 1.4160
 IR Inten    --      0.0912                 2.5829                 5.8239

                     85                     86                     87
                      A                      A                      A
 Frequencies --   1517.7662              1517.8020              1518.5035
 Red. masses --      1.0596                 1.0871                 1.0595
 Frc consts  --      1.4381                 1.4756                 1.4394
 IR Inten    --      2.4242                 1.0446                 5.9156

                     88                     89                     90
                      A                      A                      A
 Frequencies --   1524.1405              1531.7795              1539.0221
 Red. masses --      1.1068                 1.2592                 1.3261
 Frc consts  --      1.5148                 1.7408                 1.8507
 IR Inten    --      8.9797                 9.2874                15.1594

                     91                     92                     93
                      A                      A                      A
 Frequencies --   1548.0552              1569.0029              1635.7254
 Red. masses --      1.0939                 2.5560                 5.6413
 Frc consts  --      1.5446                 3.7073                 8.8930
 IR Inten    --      1.5786                20.2344                 0.2013

                     94                     95                     96
                      A                      A                      A
 Frequencies --   1662.2021              1665.1451              1679.8308
 Red. masses --      5.3883                 5.5963                 5.8634
 Frc consts  --      8.7715                 9.1422                 9.7484
 IR Inten    --     18.0732                22.0005                 0.7288

                     97                     98                     99
                      A                      A                      A
 Frequencies --   1693.7706              2943.7494              3039.2569
 Red. masses --      1.0903                 1.0734                 1.0432
 Frc consts  --      1.8428                 5.4804                 5.6773
 IR Inten    --     26.3636                66.3829                50.8993

                    100                    101                    102
                      A                      A                      A
 Frequencies --   3039.7111              3040.2009              3043.2246
 Red. masses --      1.0561                 1.0409                 1.0377
 Frc consts  --      5.7492                 5.6683                 5.6621
 IR Inten    --     21.4134                36.9607                25.2267

                    103                    104                    105
                      A                      A                      A
 Frequencies --   3057.4416              3065.4318              3086.4427
 Red. masses --      1.0832                 1.0895                 1.1017
 Frc consts  --      5.9661                 6.0319                 6.1836
 IR Inten    --     25.6852                28.2993                45.0641

                    106                    107                    108
                      A                      A                      A
 Frequencies --   3095.6237              3095.9933              3097.5590
 Red. masses --      1.0956                 1.0964                 1.0997
 Frc consts  --      6.1856                 6.1916                 6.2168
 IR Inten    --     21.4140                20.2580                20.0881

                    109                    110                    111
                      A                      A                      A
 Frequencies --   3122.2338              3123.1567              3124.7622
 Red. masses --      1.1026                 1.1024                 1.1017
 Frc consts  --      6.3331                 6.3353                 6.3382
 IR Inten    --     16.9794                15.2406                18.8659

                    112                    113                    114
                      A                      A                      A
 Frequencies --   3166.4995              3167.9840              3173.3577
 Red. masses --      1.0865                 1.0897                 1.0888
 Frc consts  --      6.4186                 6.4433                 6.4602
 IR Inten    --     14.3181                26.4577                13.4379

                    115                    116                    117
                      A                      A                      A
 Frequencies --   3173.8647              3180.9593              3184.9036
 Red. masses --      1.0877                 1.0902                 1.0941
 Frc consts  --      6.4553                 6.4991                 6.5386
 IR Inten    --     15.5962                 8.6250                32.1980

                    118                    119                    120
                      A                      A                      A
 Frequencies --   3197.4388              3465.2851              3550.9817
 Red. masses --      1.0936                 1.0496                 1.0922
 Frc consts  --      6.5875                 7.4260                 8.1146
 IR Inten    --     11.9727                 4.0782                 0.3687

 - Thermochemistry -
 -------------------
 Temperature   298.150 Kelvin.  Pressure   1.00000 Atm.
 Atom     1 has atomic number  6 and mass  12.00000

 Molecular mass:   253.18305 amu.
 Principal axes and moments of inertia in atomic units:
                           1         2         3
     Eigenvalues --  3758.255406474.072558355.65532
           X            0.99971  -0.01902   0.01467
           Y            0.01905   0.99982  -0.00187
           Z           -0.01463   0.00215   0.99989
 This molecule is an asymmetric top.
 Rotational symmetry number  1.
 Warning -- assumption of classical behavior for rotation
           may cause significant error
 Rotational temperatures (Kelvin)      0.02305     0.01338     0.01037
 Rotational constants (GHZ):           0.48021     0.27876     0.21599
 Zero-point vibrational energy     966864.5 (Joules/Mol)
                                  231.08616 (Kcal/Mol)
 Warning -- explicit consideration of  30 degrees of freedom as
           vibrations may cause significant error
 Vibrational temperatures:     20.75    30.56    52.44    59.94    64.75
          (Kelvin)             77.74    79.37   115.04   180.26   211.45
                              255.59   282.82   293.73   327.83   378.81
                              396.15   413.62   450.41   480.27   550.43
                              567.93   602.88   650.13   687.02   731.64
                              752.26   753.66   791.28   799.35   868.00
                              898.64   951.47  1042.44  1050.05  1103.58
                             1189.95  1231.19  1232.70  1248.74  1266.33
                             1285.96  1293.99  1307.69  1332.23  1377.06
                             1387.95  1396.90  1448.23  1463.28  1471.01
                             1496.03  1505.30  1507.56  1529.15  1534.59
                             1546.36  1547.77  1548.07  1637.21  1653.50
                             1699.48  1724.69  1734.36  1746.65  1757.83
                             1784.54  1795.93  1847.62  1897.63  1910.08
                             1933.66  1947.24  1955.60  1964.41  1974.60
                             2028.70  2071.46  2075.60  2076.19  2082.17
                             2106.69  2134.53  2159.02  2180.12  2183.73
                             2183.78  2184.79  2192.90  2203.89  2214.31
                             2227.31  2257.45  2353.44  2391.54  2395.77
                             2416.90  2436.96  4235.40  4372.81  4373.47
                             4374.17  4378.52  4398.98  4410.47  4440.70
                             4453.91  4454.44  4456.70  4492.20  4493.53
                             4495.84  4555.89  4558.02  4565.75  4566.48
                             4576.69  4582.37  4600.40  4985.77  5109.07

 Zero-point correction=                           0.368259 (Hartree/Particle)
 Thermal correction to Energy=                    0.388088
 Thermal correction to Enthalpy=                  0.389032
 Thermal correction to Gibbs Free Energy=         0.316349
 Sum of electronic and zero-point Energies=           -754.254159
 Sum of electronic and thermal Energies=              -754.234330
 Sum of electronic and thermal Enthalpies=            -754.233386
 Sum of electronic and thermal Free Energies=         -754.306069

                     E (Thermal)             CV                S
                      KCal/Mol        Cal/Mol-Kelvin    Cal/Mol-Kelvin
 Total                  243.529             73.567            152.975
 Electronic               0.000              0.000              0.000
 Translational            0.889              2.981             42.487
 Rotational               0.889              2.981             33.674
 Vibrational            241.751             67.606             76.814
 Vibration     1          0.593              1.986              7.284
 Vibration     2          0.593              1.985              6.515
 Vibration     3          0.594              1.982              5.443
 Vibration     4          0.594              1.981              5.179
 Vibration     5          0.595              1.979              5.026
 Vibration     6          0.596              1.976              4.664
 Vibration     7          0.596              1.976              4.623
 Vibration     8          0.600              1.963              3.892
 Vibration     9          0.610              1.928              3.017
 Vibration    10          0.617              1.906              2.711
 Vibration    11          0.628              1.870              2.353
 Vibration    12          0.636              1.845              2.165
 Vibration    13          0.640              1.834              2.095
 Vibration    14          0.651              1.799              1.896
 Vibration    15          0.670              1.740              1.640
 Vibration    16          0.677              1.719              1.562
 Vibration    17          0.685              1.697              1.489
 Vibration    18          0.701              1.649              1.346
 Vibration    19          0.715              1.608              1.242
 Vibration    20          0.752              1.507              1.029
 Vibration    21          0.762              1.481              0.982
 Vibration    22          0.782              1.429              0.895
 Vibration    23          0.811              1.357              0.790
 Vibration    24          0.834              1.300              0.717
 Vibration    25          0.864              1.231              0.637
 Vibration    26          0.878              1.199              0.603
 Vibration    27          0.879              1.197              0.601
 Vibration    28          0.905              1.140              0.544
 Vibration    29          0.911              1.127              0.533
 Vibration    30          0.962              1.025              0.444

 Optimization completed.
    -- Stationary point found.
 Normal termination of Gaussian 16 at Mon Dec 14 19:05:34 2020.

 ----------------------------------------------------------------------
 # B3LYP/6-311++G(d,p) empiricaldispersion=gd3bj scf=xqc pop=npa geom=c
 heck
 ----------------------------------------------------------------------

 --------------------------------------
 CID_83977026_JID_9758_Energie_neutraal
 --------------------------------------
 Structure from the checkpoint file:  "JID_9758.chk"
 Charge =  0 Multiplicity = 1

 SCF Done:  E(RB3LYP) =  -754.824726863     A.U. after   15 cycles
 Normal termination of Gaussian 16 at Mon Dec 14 19:17:30 2020.

 ----------------------------------------------------------------------
 # B3LYP/6-311++G(d,p) empiricaldispersion=gd3bj scf=xqc pop=npa geom=c
 heck
 ----------------------------------------------------------------------

 ------------------------------------
 CID_83977026_JID_9758_Energie_kation
 ------------------------------------
 Structure from the checkpoint file:  "JID_9758.chk"
 Charge =  1 Multiplicity = 2

 SCF Done:  E(UB3LYP) =  -754.540357195     A.U. after   29 cycles
 Normal termination of Gaussian 16 at Mon Dec 14 19:49:25 2020.
 Gaussian 16:  ES64L-G16RevA.03 25-Dec-2016

 ----------------------------------------------------------------------
 # B3LYP/6-311++G(d,p) empiricaldispersion=gd3bj scf=xqc pop=npa geom=c
 heck
 ----------------------------------------------------------------------

 -----------------------------------
 CID_83977026_JID_9758_Energie_anion
 -----------------------------------
 Structure from the checkpoint file:  "JID_9758.chk"
 Charge = -1 Multiplicity = 2

                         Standard orientation:
 ---------------------------------------------------------------------
 Center     Atomic      Atomic             Coordinates (Angstroms)
 Number     Number       Type             X           Y           Z
 ---------------------------------------------------------------------
      1          6           0        4.896399   -1.129421   -0.002657
      2          6           0        3.661542   -0.287350   -0.213703
      3          6           0        3.521139    0.957614    0.410254
      4          6           0        2.392743    1.746406    0.192463
      5          6           0        1.365113    1.317682   -0.654306
      6          6           0        1.504497    0.072652   -1.277954
      7          6           0        2.632030   -0.715671   -1.060037
      8          6           0        0.104052    2.132127   -0.807733
      9          6           0       -0.937151    1.819971    0.301774
     10          6           0       -2.151159    2.750274    0.189358
     11          7           0       -3.076243    2.515858    1.299733
     12          6           0       -1.309014    0.348428    0.272576
     13          6           0       -0.707757   -0.539427    1.164453
     14          6           0       -0.938304   -1.917886    1.092326
     15          6           0       -1.812237   -2.398035    0.115423
     16          6           0       -2.446452   -1.533162   -0.785448
     17          6           0       -2.178683   -0.164960   -0.699540
     18          6           0       -3.411561   -2.070570   -1.814835
     19          6           0       -0.222024   -2.857368    2.031358
     20          1           0        5.340677   -0.948966    0.981977
     21          1           0        4.670012   -2.198145   -0.081800
     22          1           0        5.666296   -0.904496   -0.752839
     23          1           0        4.305157    1.313446    1.075012
     24          1           0        2.303795    2.707339    0.695021
     25          1           0        0.707929   -0.293045   -1.920039
     26          1           0        2.712236   -1.682720   -1.551496
     27          1           0        0.341625    3.202980   -0.769400
     28          1           0       -0.353197    1.938838   -1.785900
     29          1           0       -0.466172    2.025541    1.270339
     30          1           0       -1.800421    3.787856    0.252089
     31          1           0       -2.605728    2.637550   -0.812647
     32          1           0       -3.894132    3.114506    1.200558
     33          1           0       -3.414172    1.555451    1.250276
     34          1           0       -0.015783   -0.151522    1.908078
     35          1           0       -2.001749   -3.467732    0.049059
     36          1           0       -2.649208    0.508219   -1.412587
     37          1           0       -3.063843   -3.022297   -2.231574
     38          1           0       -4.401304   -2.253383   -1.375744
     39          1           0       -3.545918   -1.366811   -2.642696
     40          1           0        0.852122   -2.886653    1.808165
     41          1           0       -0.325115   -2.536590    3.074486
     42          1           0       -0.608446   -3.878197    1.950892
 ---------------------------------------------------------------------

 SCF Done:  E(UB3LYP) =  -754.811334360     A.U. after   33 cycles
 SCF Done:  E(UB3LYP) =  -754.811334360     a.u. after    1 cycles

 The electronic state is 2-A.
 Alpha  occ. eigenvalues --  -14.19913 -10.10026 -10.09237 -10.08981 -10.08943
 Alpha  occ. eigenvalues --  -10.08776 -10.08770 -10.08505 -10.08459 -10.08295
 Alpha  occ. eigenvalues --  -10.08232 -10.08083 -10.08029 -10.07930 -10.07758
 Alpha  occ. eigenvalues --  -10.07446 -10.07390 -10.07320 -10.07188  -0.79609
 Alpha  occ. eigenvalues --   -0.77340  -0.76717  -0.71833  -0.69041  -0.68406
 Alpha  occ. eigenvalues --   -0.65541  -0.64791  -0.60984  -0.59863  -0.58962
 Alpha  occ. eigenvalues --   -0.55779  -0.52794  -0.51993  -0.48628  -0.48458
 Alpha  occ. eigenvalues --   -0.46091  -0.41158  -0.40864  -0.40091  -0.38828
 Alpha  occ. eigenvalues --   -0.38056  -0.36549  -0.36220  -0.34789  -0.33621
 Alpha  occ. eigenvalues --   -0.33314  -0.32935  -0.32857  -0.32335  -0.31944
 Alpha  occ. eigenvalues --   -0.31167  -0.30855  -0.30632  -0.29895  -0.28956
 Alpha  occ. eigenvalues --   -0.28526  -0.27832  -0.26369  -0.25751  -0.25216
 Alpha  occ. eigenvalues --   -0.24764  -0.24037  -0.23718  -0.23081  -0.16559
 Alpha  occ. eigenvalues --   -0.15518  -0.15132  -0.14727  -0.14344   0.03972
 Alpha virt. eigenvalues --    0.05425   0.06035   0.06828   0.07032   0.07230
 Alpha virt. eigenvalues --    0.07392   0.07490   0.07882   0.08286   0.08436
 Alpha virt. eigenvalues --    0.08878   0.09222   0.09505   0.10175   0.10316

  Beta  occ. eigenvalues --  -14.19889 -10.10007 -10.09234 -10.08981 -10.08943
  Beta  occ. eigenvalues --  -10.08772 -10.08769 -10.08505 -10.08452 -10.08288
  Beta  occ. eigenvalues --  -10.08224 -10.08057 -10.08020 -10.07925 -10.07741
  Beta  occ. eigenvalues --  -10.07413 -10.07378 -10.07305 -10.07184  -0.79573
  Beta  occ. eigenvalues --   -0.77324  -0.76705  -0.71815  -0.69023  -0.68386
  Beta  occ. eigenvalues --   -0.65525  -0.64768  -0.60946  -0.59825  -0.58926
  Beta  occ. eigenvalues --   -0.55737  -0.52761  -0.51969  -0.48604  -0.48428
  Beta  occ. eigenvalues --   -0.46063  -0.41134  -0.40833  -0.40056  -0.38807
  Beta  occ. eigenvalues --   -0.38035  -0.36518  -0.36188  -0.34757  -0.33595
  Beta  occ. eigenvalues --   -0.33286  -0.32918  -0.32828  -0.32306  -0.31914
  Beta  occ. eigenvalues --   -0.31144  -0.30831  -0.30602  -0.29867  -0.28929
  Beta  occ. eigenvalues --   -0.28502  -0.27809  -0.26343  -0.25733  -0.25195
  Beta  occ. eigenvalues --   -0.24749  -0.24020  -0.23699  -0.23061  -0.16544
  Beta  occ. eigenvalues --   -0.15495  -0.15110  -0.14713  -0.14324
  Beta virt. eigenvalues --    0.05753   0.06307   0.06530   0.07093   0.07257
  Beta virt. eigenvalues --    0.07370   0.07654   0.07774   0.07974   0.08486
  Beta virt. eigenvalues --    0.08768   0.09085   0.09521   0.09747   0.10450

 Mulliken charges and spin densities:
               1          2
     1  C    1.407269  -2.049584
     2  C   -0.346713   0.707089
     3  C   -0.196426  -0.015738
     4  C   -0.414877  -0.003107
     5  C    0.783363  -0.183495
     6  C   -0.325613   0.249056
     7  C   -0.622752   0.078637
     8  C   -0.016930  -0.588949
     9  C   -0.652372   0.734708
    10  C    0.940633  -1.416541
    11  N   -0.440017   0.076059
    12  C    0.663229  -0.047626
    13  C   -0.851587   0.452440
    14  C   -0.963059   1.192646
    15  C    0.090550  -0.454434
    16  C    0.082691   0.254259
    17  C   -0.843834   0.074201
    18  C    1.651580  -2.223042
    19  C    0.366551  -0.975026
    20  H   -0.179789   0.323787
    21  H   -0.176037   0.325597
    22  H    0.030299   0.130861
    23  H   -0.208536   0.379002
    24  H   -0.072229   0.211885
    25  H    0.045739   0.127229
    26  H   -0.220617   0.400977
    27  H    0.050117   0.115803
    28  H    0.047036   0.118437
    29  H    0.124768   0.079708
    30  H   -0.090185   0.251964
    31  H   -0.300520   0.415910
    32  H   -0.077953   0.319781
    33  H    0.180130   0.040276
    34  H    0.195539  -0.033900
    35  H   -0.143588   0.302459
    36  H    0.102420   0.086177
    37  H   -0.140607   0.287095
    38  H   -0.137012   0.310436
    39  H   -0.334315   0.484955
    40  H    0.174264  -0.010273
    41  H    0.022376   0.130392
    42  H   -0.202983   0.339888
 Sum of Mulliken charges =  -1.00000   1.00000

 Dipole moment (field-independent basis, Debye):
    X=              2.2236    Y=              0.6802    Z=              0.8459  Tot=              2.4744
 Quadrupole moment (field-independent basis, Debye-Ang):
   XX=           -206.6935   YY=           -173.5877   ZZ=           -157.2405
   XY=              7.2551   XZ=             -4.7942   YZ=             -4.1487

 Summary of Natural Population Analysis:

                                       Natural Population
                Natural  -----------------------------------------------
    Atom  No    Charge         Core      Valence    Rydberg      Total
 -----------------------------------------------------------------------
      C    1   -0.29061      0.99964     2.28605    0.00492     3.29061
      C    2   -0.02095      0.99952     2.01157    0.00987     3.02095
      C    3   -0.10182      0.99951     2.09266    0.00964     3.10182
      C    4   -0.09819      0.99951     2.08956    0.00912     3.09819
      C    5   -0.01696      0.99950     2.00738    0.01008     3.01696
      C    6   -0.09214      0.99951     2.08315    0.00947     3.09214
      C    7   -0.09778      0.99951     2.08885    0.00942     3.09778
      C    8   -0.19023      0.99958     2.18204    0.00861     3.19023
      C    9   -0.11587      0.99955     2.10472    0.01160     3.11587
      C   10   -0.08292      0.99961     2.07178    0.01153     3.08292
      N   11   -0.42213      0.99977     2.91232    0.01004     3.92213
      C   12   -0.00716      0.99950     1.99526    0.01240     3.00716
      C   13   -0.09977      0.99945     2.09143    0.00888     3.09977
      C   14   -0.00954      0.99951     2.00038    0.00964     3.00954
      C   15   -0.10591      0.99946     2.09704    0.00941     3.10591
      C   16   -0.00990      0.99952     2.00018    0.01020     3.00990
      C   17   -0.11472      0.99945     2.10530    0.00997     3.11472
      C   18   -0.29033      0.99963     2.28561    0.00508     3.29033
      C   19   -0.29085      0.99963     2.28649    0.00472     3.29085
      H   20    0.10212      0.00000     0.39674    0.00114     0.39788
      H   21    0.10342      0.00000     0.39546    0.00113     0.39658
      H   22    0.10343      0.00000     0.39535    0.00122     0.39657
      H   23    0.09843      0.00000     0.40065    0.00092     0.40157
      H   24    0.09808      0.00000     0.40067    0.00125     0.40192
      H   25    0.10426      0.00000     0.39410    0.00164     0.39574
      H   26    0.09924      0.00000     0.39940    0.00136     0.40076
      H   27    0.10164      0.00000     0.39719    0.00117     0.39836
      H   28    0.10224      0.00000     0.39615    0.00161     0.39776
      H   29    0.10235      0.00000     0.39566    0.00199     0.39765
      H   30    0.09064      0.00000     0.40817    0.00119     0.40936
      H   31    0.07920      0.00000     0.41867    0.00213     0.42080
      H   32    0.17537      0.00000     0.32291    0.00172     0.32463
      H   33    0.17725      0.00000     0.32085    0.00190     0.32275
      H   34    0.10030      0.00000     0.39811    0.00159     0.39970
      H   35    0.09765      0.00000     0.40133    0.00102     0.40235
      H   36    0.10085      0.00000     0.39701    0.00215     0.39915
      H   37    0.10269      0.00000     0.39611    0.00120     0.39731
      H   38    0.10498      0.00000     0.39363    0.00139     0.39502
      H   39    0.10352      0.00000     0.39521    0.00127     0.39648
      H   40    0.10703      0.00000     0.39180    0.00117     0.39297
      H   41    0.10225      0.00000     0.39679    0.00095     0.39775
      H   42    0.10084      0.00000     0.39830    0.00086     0.39916
 =======================================================================
   * Total *   -0.00000     18.99137    49.80207    0.20656    69.00000

 Normal termination of Gaussian 16 at Mon Dec 14 20:26:16 2020.
