 Gaussian 16, Revision A.03,

 -----------------------------------------------------------
 # opt freq B3LYP/6-31G(d) empiricaldispersion=gd3bj scf=xqc
 -----------------------------------------------------------

 -------------------------------
 CID_152127019_JID_1987_neutraal
 -------------------------------
 Symbolic Z-matrix:
 Charge =  0 Multiplicity = 1

 SCF Done:  E(RB3LYP) =  -478.095979703     A.U. after   16 cycles
 SCF Done:  E(RB3LYP) =  -478.097466553     A.U. after   14 cycles
 SCF Done:  E(RB3LYP) =  -478.099099293     A.U. after   14 cycles
 SCF Done:  E(RB3LYP) =  -478.099341148     A.U. after   13 cycles
 SCF Done:  E(RB3LYP) =  -478.099402982     A.U. after   12 cycles
 SCF Done:  E(RB3LYP) =  -478.099417504     A.U. after   10 cycles
 SCF Done:  E(RB3LYP) =  -478.099419560     A.U. after   11 cycles
 SCF Done:  E(RB3LYP) =  -478.099420744     A.U. after    8 cycles
 SCF Done:  E(RB3LYP) =  -478.099421663     A.U. after    8 cycles
 SCF Done:  E(RB3LYP) =  -478.099421938     A.U. after    8 cycles
 Optimization completed.
    -- Stationary point found.

 1\1\GINC-NODE111\FOpt\RB3LYP\6-31G(d)\C8H15N3\VSC10255\08-Dec-2020\0\\
 # opt freq B3LYP/6-31G(d) empiricaldispersion=gd3bj scf=xqc\\CID_15212
 7019_JID_1987_neutraal\\0,1\C,0.9871170809,-0.1015320573,0.0141350068\
 C,0.613122929,0.115214616,-1.455458787\C,1.0517710392,-1.0263018213,-2
 .3934903433\C,0.564707136,-2.4187601655,-1.9141418247\C,-0.92929752,-2
 .5216589947,-1.7714769971\C,-1.723056305,-3.1859178617,-2.612937342\C,
 0.5982910612,-0.7627905332,-3.8465188191\C,1.0347369745,0.5890172867,-
 4.4157827159\N,1.045942254,-1.866353964,-4.7554700766\N,2.2671120767,-

 Normal termination of Gaussian 16 at Tue Dec  8 21:51:25 2020.

 --------------------------------------------------------------------
 #N Geom=AllCheck Guess=TCheck SCRF=Check GenChk RB3LYP/6-31G(d) Freq
 --------------------------------------------------------------------

 Structure from the checkpoint file:  "JID_1987.chk"
 -------------------------------
 CID_152127019_JID_1987_neutraal
 -------------------------------
 Charge =  0 Multiplicity = 1

 SCF Done:  E(RB3LYP) =  -478.099421938     A.U. after    1 cycles

  Exact polarizability: 111.789   0.060 102.427 -13.707   9.369  92.411
 Approx polarizability: 161.435  -8.101 148.659 -42.168  30.953 159.751

                      1                      2                      3
                      A                      A                      A
 Frequencies --     36.7265                50.3530                77.7435
 Red. masses --      5.6990                 5.3780                 2.4958
 Frc consts  --      0.0045                 0.0080                 0.0089
 IR Inten    --      0.4317                 0.2246                 0.0470

                      4                      5                      6
                      A                      A                      A
 Frequencies --     84.4129               117.9804               156.3386
 Red. masses --      3.2643                 2.0169                 4.2624
 Frc consts  --      0.0137                 0.0165                 0.0614
 IR Inten    --      0.1193                 0.1459                 1.9540

                      7                      8                      9
                      A                      A                      A
 Frequencies --    200.9572               219.4677               249.5408
 Red. masses --      2.5091                 1.4734                 1.4317
 Frc consts  --      0.0597                 0.0418                 0.0525
 IR Inten    --      0.2985                 0.4371                 0.1122

                     10                     11                     12
                      A                      A                      A
 Frequencies --    277.9245               296.8141               349.2736
 Red. masses --      1.5889                 2.1311                 2.8009
 Frc consts  --      0.0723                 0.1106                 0.2013
 IR Inten    --      0.7932                 0.4486                 0.6133

                     13                     14                     15
                      A                      A                      A
 Frequencies --    399.9038               427.6198               437.3606
 Red. masses --      3.4562                 2.7018                 2.1851
 Frc consts  --      0.3257                 0.2911                 0.2463
 IR Inten    --      0.9363                 1.1349                 0.8962

                     16                     17                     18
                      A                      A                      A
 Frequencies --    469.9045               522.3874               583.7933
 Red. masses --      2.6030                 2.1216                13.2616
 Frc consts  --      0.3386                 0.3411                 2.6630
 IR Inten    --      4.6155                 2.7377                14.0043

                     19                     20                     21
                      A                      A                      A
 Frequencies --    692.6896               711.5009               780.1869
 Red. masses --      2.1949                 2.8639                 2.0189
 Frc consts  --      0.6205                 0.8542                 0.7240
 IR Inten    --      5.0909                16.7502                 4.0997

                     22                     23                     24
                      A                      A                      A
 Frequencies --    838.5677               846.5713               888.1160
 Red. masses --      1.8011                 2.2319                 2.1206
 Frc consts  --      0.7462                 0.9425                 0.9855
 IR Inten    --      5.1294                 1.3049                 9.9026

                     25                     26                     27
                      A                      A                      A
 Frequencies --    931.7411               947.7384               964.0841
 Red. masses --      1.8042                 1.3623                 1.4904
 Frc consts  --      0.9228                 0.7209                 0.8162
 IR Inten    --      0.4231                37.1124                 2.5152

                     28                     29                     30
                      A                      A                      A
 Frequencies --    996.5233              1031.8787              1040.7815
 Red. masses --      2.0953                 1.5709                 1.1460
 Frc consts  --      1.2259                 0.9855                 0.7314
 IR Inten    --      8.2263                 2.0322                14.9711

                     31                     32                     33
                      A                      A                      A
 Frequencies --   1070.5885              1073.8070              1130.0553
 Red. masses --      1.4569                 2.6317                 1.8425
 Frc consts  --      0.9839                 1.7879                 1.3863
 IR Inten    --      5.4323                 3.4415                28.7377

                     34                     35                     36
                      A                      A                      A
 Frequencies --   1136.1059              1172.2365              1189.1259
 Red. masses --      1.7368                 2.5932                 2.0895
 Frc consts  --      1.3208                 2.0995                 1.7408
 IR Inten    --      1.3493                 6.3879                 1.8124

                     37                     38                     39
                      A                      A                      A
 Frequencies --   1278.3415              1291.0456              1294.4342
 Red. masses --      1.3644                 1.8865                 1.4276
 Frc consts  --      1.3136                 1.8526                 1.4093
 IR Inten    --      5.3789                66.3890                18.4611

                     40                     41                     42
                      A                      A                      A
 Frequencies --   1317.1338              1338.5394              1365.3702
 Red. masses --      1.7682                 1.2465                 1.2308
 Frc consts  --      1.8073                 1.3158                 1.3519
 IR Inten    --     43.8362                 1.0585                 1.9784

                     43                     44                     45
                      A                      A                      A
 Frequencies --   1375.2420              1400.8696              1406.2702
 Red. masses --      1.3400                 1.4143                 1.3796
 Frc consts  --      1.4932                 1.6352                 1.6074
 IR Inten    --      1.3055                 2.9021                 5.6153

                     46                     47                     48
                      A                      A                      A
 Frequencies --   1421.7904              1439.0151              1444.1419
 Red. masses --      1.4622                 1.2443                 1.2402
 Frc consts  --      1.7416                 1.5182                 1.5240
 IR Inten    --      3.8577                 9.1117                 2.8689

                     49                     50                     51
                      A                      A                      A
 Frequencies --   1475.3517              1516.3528              1522.7884
 Red. masses --      1.1781                 1.0922                 1.0660
 Frc consts  --      1.5108                 1.4796                 1.4565
 IR Inten    --      2.4061                 7.2153                 5.5095

                     52                     53                     54
                      A                      A                      A
 Frequencies --   1525.1751              1531.8459              1534.5321
 Red. masses --      1.0498                 1.0487                 1.0550
 Frc consts  --      1.4387                 1.4499                 1.4637
 IR Inten    --      5.2002                 5.8867                 6.1864

                     55                     56                     57
                      A                      A                      A
 Frequencies --   1542.7611              1730.6236              2247.2627
 Red. masses --      1.0626                 4.4209                13.8375
 Frc consts  --      1.4901                 7.8014                41.1734
 IR Inten    --      3.1665                 4.5011               494.1813

                     58                     59                     60
                      A                      A                      A
 Frequencies --   3004.8097              3040.8065              3049.4163
 Red. masses --      1.0824                 1.0649                 1.0384
 Frc consts  --      5.7579                 5.8017                 5.6891
 IR Inten    --     15.3937                19.3150                17.6668

                     61                     62                     63
                      A                      A                      A
 Frequencies --   3054.6630              3059.6269              3086.1940
 Red. masses --      1.0398                 1.0646                 1.0965
 Frc consts  --      5.7162                 5.8719                 6.1534
 IR Inten    --     12.7273                40.3771                16.6191

                     64                     65                     66
                      A                      A                      A
 Frequencies --   3108.4258              3109.3564              3114.0856
 Red. masses --      1.0874                 1.0964                 1.1016
 Frc consts  --      6.1902                 6.2454                 6.2941
 IR Inten    --      2.5200                13.6947                34.1819

                     67                     68                     69
                      A                      A                      A
 Frequencies --   3124.7961              3129.5036              3144.0006
 Red. masses --      1.1016                 1.0973                 1.1018
 Frc consts  --      6.3373                 6.3317                 6.4168
 IR Inten    --     50.7694                28.1005                19.8466

                     70                     71                     72
                      A                      A                      A
 Frequencies --   3145.2958              3159.6913              3238.1666
 Red. masses --      1.0802                 1.0693                 1.1165
 Frc consts  --      6.2959                 6.2899                 6.8976
 IR Inten    --     30.1595                 6.3337                20.1108

 - Thermochemistry -
 -------------------
 Temperature   298.150 Kelvin.  Pressure   1.00000 Atm.
 Atom     1 has atomic number  6 and mass  12.00000

 Molecular mass:   153.12660 amu.
 Principal axes and moments of inertia in atomic units:
                           1         2         3
     Eigenvalues --  1420.467442287.707122872.82383
           X            0.99960   0.00497   0.02786
           Y           -0.00496   0.99999  -0.00045
           Z           -0.02786   0.00032   0.99961
 This molecule is an asymmetric top.
 Rotational symmetry number  1.
 Warning -- assumption of classical behavior for rotation
           may cause significant error
 Rotational temperatures (Kelvin)      0.06098     0.03786     0.03015
 Rotational constants (GHZ):           1.27053     0.78889     0.62821
 Zero-point vibrational energy     597944.6 (Joules/Mol)
                                  142.91218 (Kcal/Mol)
 Warning -- explicit consideration of  18 degrees of freedom as
           vibrations may cause significant error
 Vibrational temperatures:     52.84    72.45   111.86   121.45   169.75
          (Kelvin)            224.94   289.13   315.77   359.03   399.87
                              427.05   502.53   575.37   615.25   629.26
                              676.09   751.60   839.95   996.63  1023.69
                             1122.51  1206.51  1218.03  1277.80  1340.57
                             1363.58  1387.10  1433.77  1484.64  1497.45
                             1540.34  1544.97  1625.90  1634.60  1686.59
                             1710.89  1839.25  1857.53  1862.40  1895.06
                             1925.86  1964.46  1978.67  2015.54  2023.31
                             2045.64  2070.42  2077.80  2122.70  2181.69
                             2190.95  2194.39  2203.98  2207.85  2219.69
                             2489.98  3233.31  4323.25  4375.04  4387.43
                             4394.98  4402.12  4440.34  4472.33  4473.67
                             4480.47  4495.88  4502.66  4523.52  4525.38
                             4546.09  4659.00

 Zero-point correction=                           0.227745 (Hartree/Particle)
 Thermal correction to Energy=                    0.240465
 Thermal correction to Enthalpy=                  0.241410
 Thermal correction to Gibbs Free Energy=         0.188025
 Sum of electronic and zero-point Energies=           -477.871677
 Sum of electronic and thermal Energies=              -477.858957
 Sum of electronic and thermal Enthalpies=            -477.858012
 Sum of electronic and thermal Free Energies=         -477.911397

                     E (Thermal)             CV                S
                      KCal/Mol        Cal/Mol-Kelvin    Cal/Mol-Kelvin
 Total                  150.894             45.838            112.358
 Electronic               0.000              0.000              0.000
 Translational            0.889              2.981             40.988
 Rotational               0.889              2.981             30.613
 Vibrational            149.117             39.877             40.756
 Vibration     1          0.594              1.982              5.428
 Vibration     2          0.595              1.977              4.803
 Vibration     3          0.599              1.964              3.947
 Vibration     4          0.601              1.960              3.786
 Vibration     5          0.608              1.934              3.133
 Vibration     6          0.620              1.896              2.594
 Vibration     7          0.638              1.839              2.124
 Vibration     8          0.647              1.811              1.963
 Vibration     9          0.662              1.764              1.734
 Vibration    10          0.679              1.714              1.546
 Vibration    11          0.690              1.680              1.435
 Vibration    12          0.727              1.577              1.169
 Vibration    13          0.766              1.470              0.963
 Vibration    14          0.789              1.410              0.866
 Vibration    15          0.798              1.389              0.835
 Vibration    16          0.827              1.317              0.738
 Vibration    17          0.877              1.200              0.604
 Vibration    18          0.941              1.066              0.478

 Optimization completed.
    -- Stationary point found.

 1\1\GINC-NODE111\Freq\RB3LYP\6-31G(d)\C8H15N3\VSC10255\08-Dec-2020\0\\
 #N Geom=AllCheck Guess=TCheck SCRF=Check GenChk RB3LYP/6-31G(d) Freq\\
 CID_152127019_JID_1987_neutraal\\0,1\C,0.9871170809,-0.1015320573,0.01
 41350068\C,0.613122929,0.115214616,-1.455458787\C,1.0517710392,-1.0263
 018213,-2.3934903433\C,0.564707136,-2.4187601655,-1.9141418247\C,-0.92
 929752,-2.5216589947,-1.7714769971\C,-1.723056305,-3.1859178617,-2.612
 937342\C,0.5982910612,-0.7627905332,-3.8465188191\C,1.0347369745,0.589
 0172867,-4.4157827159\N,1.045942254,-1.866353964,-4.7554700766\N,2.267

 Normal termination of Gaussian 16 at Tue Dec  8 21:57:14 2020.

 ----------------------------------------------------------------------
 # B3LYP/6-311++G(d,p) empiricaldispersion=gd3bj scf=xqc pop=npa geom=c
 heck
 ----------------------------------------------------------------------

 ---------------------------------------
 CID_152127019_JID_1987_Energie_neutraal
 ---------------------------------------
 Structure from the checkpoint file:  "JID_1987.chk"
 Charge =  0 Multiplicity = 1

 SCF Done:  E(RB3LYP) =  -478.233681581     A.U. after   15 cycles
 Normal termination of Gaussian 16 at Tue Dec  8 21:59:52 2020.

 ----------------------------------------------------------------------
 # B3LYP/6-311++G(d,p) empiricaldispersion=gd3bj scf=xqc pop=npa geom=c
 heck
 ----------------------------------------------------------------------

 -------------------------------------
 CID_152127019_JID_1987_Energie_kation
 -------------------------------------
 Structure from the checkpoint file:  "JID_1987.chk"
 Charge =  1 Multiplicity = 2

 SCF Done:  E(UB3LYP) =  -477.907766539     A.U. after   23 cycles
 Normal termination of Gaussian 16 at Tue Dec  8 22:05:34 2020.
 Gaussian 16:  ES64L-G16RevA.03 25-Dec-2016

 ------------------------------------
 CID_152127019_JID_1987_Energie_anion
 ------------------------------------
 Structure from the checkpoint file:  "JID_1987.chk"
 Charge = -1 Multiplicity = 2

                         Standard orientation:
 ---------------------------------------------------------------------
 Center     Atomic      Atomic             Coordinates (Angstroms)
 Number     Number       Type             X           Y           Z
 ---------------------------------------------------------------------
      1          6           0       -2.478984   -1.869540   -0.748235
      2          6           0       -1.409460   -1.484607    0.278655
      3          6           0       -0.335495   -0.519305   -0.260016
      4          6           0       -0.941623    0.752898   -0.908132
      5          6           0       -1.815757    1.548739    0.022201
      6          6           0       -1.466165    2.711062    0.575499
      7          6           0        0.677788   -0.137535    0.841748
      8          6           0        1.337398   -1.327727    1.541954
      9          7           0        1.729784    0.784415    0.305325
     10          7           0        2.465935    0.302424   -0.559442
     11          7           0        3.207341   -0.030662   -1.364756
     12          1           0       -3.105499   -1.017808   -1.032071
     13          1           0       -3.140288   -2.643562   -0.344203
     14          1           0       -2.022302   -2.265619   -1.663385
     15          1           0       -1.889309   -1.039656    1.161116
     16          1           0       -0.920314   -2.400900    0.626105
     17          1           0        0.220637   -1.049403   -1.049239
     18          1           0       -0.124332    1.386007   -1.265432
     19          1           0       -1.518433    0.451521   -1.790890
     20          1           0       -2.790540    1.122503    0.261715
     21          1           0       -2.127419    3.247761    1.250628
     22          1           0       -0.500892    3.167897    0.368172
     23          1           0        0.166373    0.482479    1.582169
     24          1           0        1.806738   -2.003543    0.816541
     25          1           0        2.110419   -0.972969    2.230033
     26          1           0        0.607532   -1.901868    2.118804
 ---------------------------------------------------------------------

 SCF Done:  E(UB3LYP) =  -478.219264483     A.U. after   33 cycles
 SCF Done:  E(UB3LYP) =  -478.219264483     a.u. after    1 cycles

 The electronic state is 2-A.
 Alpha  occ. eigenvalues --  -14.34492 -14.24856 -14.23345 -10.10820 -10.07639
 Alpha  occ. eigenvalues --  -10.07478 -10.06667 -10.06613 -10.06339 -10.05813
 Alpha  occ. eigenvalues --  -10.04627  -1.01287  -0.85618  -0.72735  -0.67942
 Alpha  occ. eigenvalues --   -0.65263  -0.60788  -0.55501  -0.53648  -0.48085
 Alpha  occ. eigenvalues --   -0.44484  -0.41593  -0.39423  -0.38527  -0.37100
 Alpha  occ. eigenvalues --   -0.35488  -0.33910  -0.33438  -0.32240  -0.31566
 Alpha  occ. eigenvalues --   -0.30059  -0.29188  -0.26878  -0.26463  -0.25899
 Alpha  occ. eigenvalues --   -0.24594  -0.23736  -0.22624  -0.21599  -0.17740
 Alpha  occ. eigenvalues --   -0.16383  -0.13538   0.05038
 Alpha virt. eigenvalues --    0.06682   0.07748   0.08093   0.08640   0.09452
 Alpha virt. eigenvalues --    0.10154   0.10703   0.10945   0.11476   0.11687
 Alpha virt. eigenvalues --    0.12495   0.13164   0.13839   0.14075   0.14605

  Beta  occ. eigenvalues --  -14.34238 -14.24618 -14.23372 -10.10755 -10.07619
  Beta  occ. eigenvalues --  -10.07477 -10.06662 -10.06611 -10.06331 -10.05793
  Beta  occ. eigenvalues --  -10.04573  -1.00858  -0.85440  -0.72682  -0.67889
  Beta  occ. eigenvalues --   -0.65185  -0.60752  -0.55443  -0.53520  -0.48022
  Beta  occ. eigenvalues --   -0.44426  -0.41197  -0.39213  -0.38187  -0.36832
  Beta  occ. eigenvalues --   -0.35414  -0.33739  -0.33220  -0.31811  -0.31467
  Beta  occ. eigenvalues --   -0.29987  -0.29149  -0.26837  -0.26407  -0.25842
  Beta  occ. eigenvalues --   -0.24538  -0.23613  -0.22558  -0.21568  -0.17295
  Beta  occ. eigenvalues --   -0.16356  -0.13478
  Beta virt. eigenvalues --    0.07413   0.08231   0.08299   0.08775   0.09232
  Beta virt. eigenvalues --    0.09992   0.10815   0.11038   0.11445   0.11780
  Beta virt. eigenvalues --    0.12263   0.12692   0.13573   0.14250   0.14432

 Mulliken charges and spin densities:
               1          2
     1  C    2.644835  -3.300309
     2  C   -2.022424   1.664308
     3  C    1.206456  -0.553283
     4  C   -0.364409  -0.099053
     5  C    0.192989  -0.067151
     6  C   -0.254372  -0.327292
     7  C   -0.710951   0.155819
     8  C    0.144598  -0.821411
     9  N   -0.474841   0.026906
    10  N    0.705235   0.002113
    11  N   -0.275921   0.164652
    12  H   -0.250051   0.383454
    13  H   -0.946518   1.102384
    14  H   -0.375968   0.523269
    15  H   -0.100309   0.272786
    16  H   -0.181739   0.312412
    17  H    0.034966   0.181182
    18  H    0.107587   0.022511
    19  H    0.085153   0.093692
    20  H   -0.333254   0.513755
    21  H   -0.019832   0.131083
    22  H    0.128157   0.001140
    23  H    0.272661  -0.060104
    24  H    0.003494   0.168425
    25  H    0.138770   0.000288
    26  H   -0.354313   0.508426
 Sum of Mulliken charges =  -1.00000   1.00000

 Dipole moment (field-independent basis, Debye):
    X=              4.2636    Y=              5.9109    Z=              1.2774  Tot=              7.3992
 Quadrupole moment (field-independent basis, Debye-Ang):
   XX=           -134.2988   YY=           -116.6976   ZZ=            -97.3581
   XY=            -13.2635   XZ=              3.9612   YZ=             -0.2106

 Summary of Natural Population Analysis:

                                       Natural Population
                Natural  -----------------------------------------------
    Atom  No    Charge         Core      Valence    Rydberg      Total
 -----------------------------------------------------------------------
      C    1   -0.28468      0.99966     2.27916    0.00586     3.28468
      C    2   -0.19327      0.99962     2.18364    0.01001     3.19327
      C    3   -0.10931      0.99956     2.09815    0.01160     3.10931
      C    4   -0.21214      0.99959     2.20225    0.01029     3.21214
      C    5   -0.07938      0.99956     2.06924    0.01058     3.07938
      C    6   -0.19977      0.99956     2.19285    0.00736     3.19977
      C    7   -0.00987      0.99955     1.99815    0.01217     3.00987
      C    8   -0.29443      0.99964     2.28895    0.00584     3.29443
      N    9   -0.20171      0.99971     2.68840    0.01359     3.70171
      N   10    0.13304      0.99970     2.35129    0.01597     3.36696
      N   11   -0.03815      0.99982     2.52562    0.01271     3.53815
      H   12    0.09469      0.00000     0.40360    0.00170     0.40531
      H   13    0.10532      0.00000     0.39141    0.00327     0.39468
      H   14    0.09683      0.00000     0.40162    0.00154     0.40317
      H   15    0.09514      0.00000     0.40312    0.00174     0.40486
      H   16    0.10162      0.00000     0.39653    0.00185     0.39838
      H   17    0.09836      0.00000     0.39981    0.00183     0.40164
      H   18    0.10463      0.00000     0.39385    0.00152     0.39537
      H   19    0.10616      0.00000     0.39278    0.00106     0.39384
      H   20    0.09579      0.00000     0.40284    0.00137     0.40421
      H   21    0.09120      0.00000     0.40799    0.00081     0.40880
      H   22    0.09213      0.00000     0.40674    0.00112     0.40787
      H   23    0.09951      0.00000     0.39880    0.00170     0.40049
      H   24    0.10106      0.00000     0.39804    0.00090     0.39894
      H   25    0.10102      0.00000     0.39819    0.00078     0.39898
      H   26    0.10618      0.00000     0.39288    0.00094     0.39382
 =======================================================================
   * Total *    0.00000     10.99598    30.86589    0.13813    42.00000

 Normal termination of Gaussian 16 at Tue Dec  8 22:14:02 2020.
