 Gaussian 16, Revision A.03,

 -----------------------------------------------------------
 # opt freq B3LYP/6-31G(d) empiricaldispersion=gd3bj scf=xqc
 -----------------------------------------------------------

 ------------------------------
 CID_61200956_JID_9617_neutraal
 ------------------------------
 Symbolic Z-matrix:
 Charge =  0 Multiplicity = 1

 SCF Done:  E(RB3LYP) =  -964.808068803     A.U. after   15 cycles
 SCF Done:  E(RB3LYP) =  -964.814998936     A.U. after   13 cycles
 SCF Done:  E(RB3LYP) =  -964.815000680     A.U. after   14 cycles
 SCF Done:  E(RB3LYP) =  -964.817234832     A.U. after   13 cycles
 SCF Done:  E(RB3LYP) =  -964.818150578     A.U. after   12 cycles
 SCF Done:  E(RB3LYP) =  -964.818611736     A.U. after   13 cycles
 SCF Done:  E(RB3LYP) =  -964.819603922     A.U. after   12 cycles
 SCF Done:  E(RB3LYP) =  -964.820242882     A.U. after   13 cycles
 SCF Done:  E(RB3LYP) =  -964.820461240     A.U. after   14 cycles
 SCF Done:  E(RB3LYP) =  -964.820878175     A.U. after   12 cycles
 SCF Done:  E(RB3LYP) =  -964.821408361     A.U. after    8 cycles
 SCF Done:  E(RB3LYP) =  -964.821408563     A.U. after    8 cycles
 SCF Done:  E(RB3LYP) =  -964.821408743     A.U. after    7 cycles
 SCF Done:  E(RB3LYP) =  -964.821408947     A.U. after    7 cycles
 SCF Done:  E(RB3LYP) =  -964.821409119     A.U. after    7 cycles
 SCF Done:  E(RB3LYP) =  -964.821409201     A.U. after    7 cycles
 Optimization completed.
    -- Stationary point found.
 Normal termination of Gaussian 16 at Sat Dec 12 10:08:08 2020.

 --------------------------------------------------------------------
 #N Geom=AllCheck Guess=TCheck SCRF=Check GenChk RB3LYP/6-31G(d) Freq
 --------------------------------------------------------------------

 Structure from the checkpoint file:  "JID_9617.chk"
 ------------------------------
 CID_61200956_JID_9617_neutraal
 ------------------------------
 Charge =  0 Multiplicity = 1

 SCF Done:  E(RB3LYP) =  -964.821409201     A.U. after    1 cycles

  Exact polarizability: 182.093  14.910 133.697  14.561  -2.488 118.293
 Approx polarizability: 231.142  41.064 211.525  32.818  -6.632 197.475

                      1                      2                      3
                      A                      A                      A
 Frequencies --     10.3738                21.4819                27.1833
 Red. masses --      6.1695                10.8735                 6.0553
 Frc consts  --      0.0004                 0.0030                 0.0026
 IR Inten    --      1.0706                 3.4912                 0.7006

                      4                      5                      6
                      A                      A                      A
 Frequencies --     34.2226                39.4597                44.4863
 Red. masses --      4.9850                 7.3711                 6.8183
 Frc consts  --      0.0034                 0.0068                 0.0080
 IR Inten    --      3.2457                 0.3695                 0.5989

                      7                      8                      9
                      A                      A                      A
 Frequencies --     62.2798                70.9743                89.5388
 Red. masses --      4.2799                 4.8269                 6.9580
 Frc consts  --      0.0098                 0.0143                 0.0329
 IR Inten    --      2.1070                 0.6686                 6.5988

                     10                     11                     12
                      A                      A                      A
 Frequencies --    106.6486               121.4362               148.9730
 Red. masses --      4.7331                 4.1223                 1.0275
 Frc consts  --      0.0317                 0.0358                 0.0134
 IR Inten    --      0.4767                 3.2952                 0.2882

                     13                     14                     15
                      A                      A                      A
 Frequencies --    222.9246               264.8091               291.5255
 Red. masses --      4.5598                 6.0498                 3.4497
 Frc consts  --      0.1335                 0.2500                 0.1727
 IR Inten    --      3.9137                 2.2378                 1.1088

                     16                     17                     18
                      A                      A                      A
 Frequencies --    311.7488               350.7055               366.0811
 Red. masses --      3.0832                 4.7003                 2.5471
 Frc consts  --      0.1765                 0.3406                 0.2011
 IR Inten    --      2.0977                 4.1376                 0.9141

                     19                     20                     21
                      A                      A                      A
 Frequencies --    370.9300               415.9345               467.0816
 Red. masses --      7.2690                 3.2223                 3.9096
 Frc consts  --      0.5893                 0.3284                 0.5025
 IR Inten    --      1.2484                 9.1231                 3.9690

                     22                     23                     24
                      A                      A                      A
 Frequencies --    484.5806               502.3788               513.6785
 Red. masses --      2.7341                 2.9130                 2.1027
 Frc consts  --      0.3783                 0.4332                 0.3269
 IR Inten    --      2.7491                26.1616                12.6323

                     25                     26                     27
                      A                      A                      A
 Frequencies --    553.9358               555.8625               594.5985
 Red. masses --      2.3383                 1.9007                 3.7036
 Frc consts  --      0.4227                 0.3460                 0.7715
 IR Inten    --     17.3074                11.0863                50.1180

                     28                     29                     30
                      A                      A                      A
 Frequencies --    598.6977               605.5332               644.5454
 Red. masses --      2.9113                 2.1413                 3.4020
 Frc consts  --      0.6148                 0.4626                 0.8327
 IR Inten    --     22.1473                64.9487                34.2531

                     31                     32                     33
                      A                      A                      A
 Frequencies --    668.9044               671.8602               695.6190
 Red. masses --      4.5161                 1.3566                 1.5202
 Frc consts  --      1.1905                 0.3608                 0.4334
 IR Inten    --     19.1723               152.3065               107.6968

                     34                     35                     36
                      A                      A                      A
 Frequencies --    764.5776               773.8488               784.3220
 Red. masses --      2.6931                 2.8016                 3.8360
 Frc consts  --      0.9276                 0.9885                 1.3903
 IR Inten    --     13.8695                14.9098                 7.0701

                     37                     38                     39
                      A                      A                      A
 Frequencies --    788.4556               815.1735               850.2968
 Red. masses --      1.4620                 4.4906                 1.4538
 Frc consts  --      0.5355                 1.7581                 0.6193
 IR Inten    --     20.2453                78.1005                36.3999

                     40                     41                     42
                      A                      A                      A
 Frequencies --    861.3185               862.6044               879.4771
 Red. masses --      2.4054                 2.5553                 3.4581
 Frc consts  --      1.0514                 1.1202                 1.5759
 IR Inten    --      9.4458                12.9765                18.7798

                     43                     44                     45
                      A                      A                      A
 Frequencies --    927.0957               957.1195               975.3683
 Red. masses --      2.7186                 2.1488                 2.5515
 Frc consts  --      1.3767                 1.1598                 1.4302
 IR Inten    --      8.2797                14.1664                 4.5388

                     46                     47                     48
                      A                      A                      A
 Frequencies --   1018.8322              1020.9501              1063.1447
 Red. masses --      2.8228                 1.6365                 1.7423
 Frc consts  --      1.7264                 1.0051                 1.1602
 IR Inten    --     29.1036                32.3227                 4.6156

                     49                     50                     51
                      A                      A                      A
 Frequencies --   1066.5314              1107.5455              1139.7363
 Red. masses --      3.2963                 1.9192                 3.4195
 Frc consts  --      2.2091                 1.3871                 2.6171
 IR Inten    --     12.1433                27.9957                20.7726

                     52                     53                     54
                      A                      A                      A
 Frequencies --   1163.0541              1187.2732              1199.7729
 Red. masses --      3.3907                 1.6015                 2.1085
 Frc consts  --      2.7023                 1.3300                 1.7882
 IR Inten    --      6.1324                36.4330               146.3979

                     55                     56                     57
                      A                      A                      A
 Frequencies --   1212.3914              1241.5094              1259.2219
 Red. masses --      1.8884                 1.4978                 1.3339
 Frc consts  --      1.6355                 1.3602                 1.2462
 IR Inten    --     12.0534                54.8666               127.2844

                     58                     59                     60
                      A                      A                      A
 Frequencies --   1298.8845              1353.8650              1364.5243
 Red. masses --      1.2592                 1.7573                 2.3312
 Frc consts  --      1.2516                 1.8978                 2.5574
 IR Inten    --      7.0252               185.6849                27.5794

                     61                     62                     63
                      A                      A                      A
 Frequencies --   1378.7114              1382.7332              1386.2087
 Red. masses --      1.6380                 1.7052                 2.2231
 Frc consts  --      1.8344                 1.9209                 2.5169
 IR Inten    --      5.1713                52.9956                84.9441

                     64                     65                     66
                      A                      A                      A
 Frequencies --   1398.9607              1412.3167              1430.9777
 Red. masses --      2.4887                 1.2531                 2.3726
 Frc consts  --      2.8697                 1.4727                 2.8625
 IR Inten    --     46.9690                18.7888                99.0281

                     67                     68                     69
                      A                      A                      A
 Frequencies --   1431.2550              1438.5757              1472.7980
 Red. masses --      1.6162                 3.5396                 1.1503
 Frc consts  --      1.9506                 4.3159                 1.4701
 IR Inten    --     99.8817               119.3738                 5.6926

                     70                     71                     72
                      A                      A                      A
 Frequencies --   1488.7107              1490.9508              1497.3770
 Red. masses --      2.5525                 1.5536                 1.0598
 Frc consts  --      3.3331                 2.0348                 1.4001
 IR Inten    --     73.8851                17.5468                 8.0227

                     73                     74                     75
                      A                      A                      A
 Frequencies --   1506.5443              1513.4949              1517.0150
 Red. masses --      1.5961                 1.8767                 1.1958
 Frc consts  --      2.1343                 2.5329                 1.6214
 IR Inten    --     81.9478                 9.1056                24.5534

                     76                     77                     78
                      A                      A                      A
 Frequencies --   1522.9357              1527.7243              1638.7618
 Red. masses --      1.1707                 1.2079                 5.9934
 Frc consts  --      1.5998                 1.6610                 9.4832
 IR Inten    --     31.6090                 1.2774                26.4467

                     79                     80                     81
                      A                      A                      A
 Frequencies --   1800.3108              1802.7729              1858.0880
 Red. masses --      7.0977                 6.9771                10.3731
 Frc consts  --     13.5539                13.3600                21.1005
 IR Inten    --    823.4406                88.0976               320.5901

                     82                     83                     84
                      A                      A                      A
 Frequencies --   3057.5916              3075.6254              3080.8385
 Red. masses --      1.0397                 1.0642                 1.0613
 Frc consts  --      5.7268                 5.9314                 5.9352
 IR Inten    --      5.9345                17.5498                22.4906

                     85                     86                     87
                      A                      A                      A
 Frequencies --   3093.0840              3116.7050              3124.7972
 Red. masses --      1.0648                 1.1007                 1.1006
 Frc consts  --      6.0019                 6.2996                 6.3320
 IR Inten    --     14.0882                15.2527                21.7283

                     88                     89                     90
                      A                      A                      A
 Frequencies --   3136.2095              3159.6184              3180.6995
 Red. masses --      1.1056                 1.0999                 1.0998
 Frc consts  --      6.4070                 6.4697                 6.5557
 IR Inten    --     19.7699                 0.8638                 8.1374

                     91                     92                     93
                      A                      A                      A
 Frequencies --   3259.9669              3304.3716              3554.2324
 Red. masses --      1.0966                 1.0984                 1.0745
 Frc consts  --      6.8661                 7.0661                 7.9971
 IR Inten    --      3.3951                 1.4155                20.2102

                     94                     95                     96
                      A                      A                      A
 Frequencies --   3573.5575              3595.7532              3686.6231
 Red. masses --      1.0766                 1.0756                 1.0641
 Frc consts  --      8.1005                 8.1937                 8.5209
 IR Inten    --     30.1537                41.3161                65.2371

 - Thermochemistry -
 -------------------
 Temperature   298.150 Kelvin.  Pressure   1.00000 Atm.
 Atom     1 has atomic number  6 and mass  12.00000

 Molecular mass:   269.11240 amu.
 Principal axes and moments of inertia in atomic units:
                           1         2         3
     Eigenvalues --  2117.25138********************
           X            0.99994  -0.01032  -0.00407
           Y            0.01030   0.99993  -0.00543
           Z            0.00413   0.00539   0.99998
 This molecule is an asymmetric top.
 Rotational symmetry number  1.
 Warning -- assumption of classical behavior for rotation
           may cause significant error
 Rotational temperatures (Kelvin)      0.04091     0.00671     0.00641
 Rotational constants (GHZ):           0.85240     0.13978     0.13354
 Zero-point vibrational energy     716340.5 (Joules/Mol)
                                  171.20950 (Kcal/Mol)
 Warning -- explicit consideration of  29 degrees of freedom as
           vibrations may cause significant error
 Vibrational temperatures:     14.93    30.91    39.11    49.24    56.77
          (Kelvin)             64.01    89.61   102.12   128.83   153.44
                              174.72   214.34   320.74   381.00   419.44
                              448.54   504.59   526.71   533.69   598.44
                              672.03   697.20   722.81   739.07   796.99
                              799.76   855.49   861.39   871.23   927.36
                              962.40   966.66  1000.84  1100.06  1113.40
                             1128.46  1134.41  1172.85  1223.39  1239.25
                             1241.10  1265.37  1333.88  1377.08  1403.34
                             1465.87  1468.92  1529.63  1534.50  1593.51
                             1639.83  1673.38  1708.22  1726.21  1744.36
                             1786.26  1811.74  1868.81  1947.91  1963.25
                             1983.66  1989.44  1994.45  2012.79  2032.01
                             2058.86  2059.26  2069.79  2119.03  2141.92
                             2145.15  2154.39  2167.58  2177.58  2182.65
                             2191.16  2198.05  2357.81  2590.25  2593.79
                             2673.37  4399.19  4425.14  4432.64  4450.26
                             4484.24  4495.89  4512.31  4545.99  4576.32
                             4690.37  4754.25  5113.75  5141.55  5173.49
                             5304.23

 Zero-point correction=                           0.272840 (Hartree/Particle)
 Thermal correction to Energy=                    0.292005
 Thermal correction to Enthalpy=                  0.292949
 Thermal correction to Gibbs Free Energy=         0.219402
 Sum of electronic and zero-point Energies=           -964.548570
 Sum of electronic and thermal Energies=              -964.529404
 Sum of electronic and thermal Enthalpies=            -964.528460
 Sum of electronic and thermal Free Energies=         -964.602007

                     E (Thermal)             CV                S
                      KCal/Mol        Cal/Mol-Kelvin    Cal/Mol-Kelvin
 Total                  183.236             68.419            154.794
 Electronic               0.000              0.000              0.000
 Translational            0.889              2.981             42.669
 Rotational               0.889              2.981             34.268
 Vibrational            181.459             62.457             77.857
 Vibration     1          0.593              1.987              7.938
 Vibration     2          0.593              1.985              6.492
 Vibration     3          0.593              1.984              6.025
 Vibration     4          0.594              1.983              5.568
 Vibration     5          0.594              1.981              5.286
 Vibration     6          0.595              1.980              5.049
 Vibration     7          0.597              1.972              4.384
 Vibration     8          0.598              1.968              4.126
 Vibration     9          0.602              1.957              3.670
 Vibration    10          0.606              1.944              3.329
 Vibration    11          0.609              1.931              3.077
 Vibration    12          0.618              1.904              2.685
 Vibration    13          0.649              1.806              1.935
 Vibration    14          0.671              1.738              1.630
 Vibration    15          0.687              1.690              1.465
 Vibration    16          0.700              1.651              1.353
 Vibration    17          0.728              1.574              1.163
 Vibration    18          0.739              1.542              1.096
 Vibration    19          0.743              1.532              1.076
 Vibration    20          0.779              1.436              0.906
 Vibration    21          0.824              1.323              0.746
 Vibration    22          0.841              1.284              0.698
 Vibration    23          0.858              1.245              0.652
 Vibration    24          0.869              1.220              0.625
 Vibration    25          0.909              1.131              0.536
 Vibration    26          0.911              1.127              0.532
 Vibration    27          0.952              1.043              0.459
 Vibration    28          0.957              1.035              0.452
 Vibration    29          0.964              1.020              0.440

                           ! Non-Optimized Parameters !
 Normal termination of Gaussian 16 at Sat Dec 12 10:22:03 2020.

 ----------------------------------------------------------------------
 # B3LYP/6-311++G(d,p) empiricaldispersion=gd3bj scf=xqc pop=npa geom=c
 heck
 ----------------------------------------------------------------------

 --------------------------------------
 CID_61200956_JID_9617_Energie_neutraal
 --------------------------------------
 Structure from the checkpoint file:  "JID_9617.chk"
 Charge =  0 Multiplicity = 1

 SCF Done:  E(RB3LYP) =  -965.119708296     A.U. after   15 cycles
 Normal termination of Gaussian 16 at Sat Dec 12 10:27:23 2020.

 ----------------------------------------------------------------------
 # B3LYP/6-311++G(d,p) empiricaldispersion=gd3bj scf=xqc pop=npa geom=c
 heck
 ----------------------------------------------------------------------

 ------------------------------------
 CID_61200956_JID_9617_Energie_kation
 ------------------------------------
 Structure from the checkpoint file:  "JID_9617.chk"
 Charge =  1 Multiplicity = 2

 SCF Done:  E(UB3LYP) =  -964.814256054     A.U. after   30 cycles
 Normal termination of Gaussian 16 at Sat Dec 12 10:41:26 2020.
 Gaussian 16:  ES64L-G16RevA.03 25-Dec-2016

 ----------------------------------------------------------------------
 # B3LYP/6-311++G(d,p) empiricaldispersion=gd3bj scf=xqc pop=npa geom=c
 heck
 ----------------------------------------------------------------------

 -----------------------------------
 CID_61200956_JID_9617_Energie_anion
 -----------------------------------
 Structure from the checkpoint file:  "JID_9617.chk"
 Charge = -1 Multiplicity = 2

                         Standard orientation:
 ---------------------------------------------------------------------
 Center     Atomic      Atomic             Coordinates (Angstroms)
 Number     Number       Type             X           Y           Z
 ---------------------------------------------------------------------
      1          6           0        4.992244   -2.138869   -0.220128
      2          6           0        4.959086   -0.687703    0.238362
      3          8           0        5.808839   -0.220963    0.983563
      4          7           0        3.937053    0.089629   -0.251486
      5          6           0        2.759141   -0.352906   -0.977377
      6          6           0        1.595581   -0.750712   -0.050636
      7          7           0        1.293423    0.287124    0.946717
      8          6           0        1.066205    1.597302    0.511120
      9          8           0        1.702248    2.553042    0.938133
     10          7           0        0.084358    1.758355   -0.450969
     11          6           0       -1.044994    0.945564   -0.665691
     12          6           0       -1.651807    0.041779    0.190021
     13          7           0       -2.702396   -0.483862   -0.500941
     14          7           0       -2.837768    0.047985   -1.735782
     15          6           0       -1.823824    0.903118   -1.848539
     16          6           0       -3.709283   -1.392201   -0.014501
     17          6           0       -4.906290   -0.741021    0.671888
     18          8           0       -5.910638   -1.353622    0.947836
     19          8           0       -4.708526    0.559247    0.958616
     20          1           0        5.850073   -2.617721    0.252226
     21          1           0        5.097534   -2.208583   -1.308911
     22          1           0        4.080742   -2.678648    0.060535
     23          1           0        3.929472    1.036959    0.111896
     24          1           0        2.433445    0.467815   -1.625173
     25          1           0        3.017779   -1.190328   -1.631595
     26          1           0        0.702785   -0.965699   -0.643257
     27          1           0        1.847428   -1.658067    0.507618
     28          1           0        2.020406    0.335224    1.654457
     29          1           0       -0.002897    2.729337   -0.724766
     30          1           0       -1.401297   -0.262609    1.193640
     31          1           0       -1.679307    1.461028   -2.764241
     32          1           0       -4.088531   -1.970006   -0.859146
     33          1           0       -3.257788   -2.091457    0.696731
     34          1           0       -5.524259    0.870395    1.394907
 ---------------------------------------------------------------------

 SCF Done:  E(UB3LYP) =  -965.119031910     A.U. after   32 cycles

 The electronic state is 2-A.
 Alpha  occ. eigenvalues --  -19.09312 -19.03695 -19.01790 -19.00649 -14.31693
 Alpha  occ. eigenvalues --  -14.27551 -14.25607 -14.25538 -14.25211 -10.22967
 Alpha  occ. eigenvalues --  -10.22574 -10.19476 -10.15003 -10.13544 -10.13535
 Alpha  occ. eigenvalues --  -10.12845 -10.12775 -10.11669 -10.09348  -1.03517
 Alpha  occ. eigenvalues --   -0.98356  -0.97801  -0.95788  -0.94612  -0.87009
 Alpha  occ. eigenvalues --   -0.85333  -0.82759  -0.77602  -0.71069  -0.67399
 Alpha  occ. eigenvalues --   -0.65815  -0.65363  -0.58194  -0.56388  -0.54556
 Alpha  occ. eigenvalues --   -0.53268  -0.50347  -0.49641  -0.47852  -0.43965
 Alpha  occ. eigenvalues --   -0.42469  -0.42046  -0.41968  -0.40900  -0.40192
 Alpha  occ. eigenvalues --   -0.39868  -0.38559  -0.38294  -0.37711  -0.36270
 Alpha  occ. eigenvalues --   -0.35016  -0.34682  -0.34059  -0.33488  -0.32947
 Alpha  occ. eigenvalues --   -0.32263  -0.31997  -0.31826  -0.31014  -0.29825
 Alpha  occ. eigenvalues --   -0.28290  -0.24887  -0.24403  -0.22730  -0.21530
 Alpha  occ. eigenvalues --   -0.21171  -0.19053  -0.17941  -0.17737  -0.17101
 Alpha  occ. eigenvalues --   -0.14703   0.03277
 Alpha virt. eigenvalues --    0.05094   0.05630   0.06553   0.07003   0.07535
 Alpha virt. eigenvalues --    0.07662   0.08130   0.08763   0.09145   0.09505
 Alpha virt. eigenvalues --    0.09783   0.10105   0.10303   0.11202   0.11834

  Beta  occ. eigenvalues --  -19.09258 -19.03667 -19.01785 -19.00643 -14.31693
  Beta  occ. eigenvalues --  -14.27547 -14.25607 -14.25532 -14.25207 -10.22923
  Beta  occ. eigenvalues --  -10.22569 -10.19471 -10.14964 -10.13533 -10.13527
  Beta  occ. eigenvalues --  -10.12810 -10.12754 -10.11665 -10.09310  -1.03417
  Beta  occ. eigenvalues --   -0.98346  -0.97793  -0.95777  -0.94536  -0.86999
  Beta  occ. eigenvalues --   -0.85321  -0.82745  -0.77578  -0.71046  -0.67359
  Beta  occ. eigenvalues --   -0.65763  -0.65291  -0.58144  -0.56326  -0.54478
  Beta  occ. eigenvalues --   -0.53243  -0.50309  -0.49595  -0.47815  -0.43936
  Beta  occ. eigenvalues --   -0.42427  -0.42004  -0.41915  -0.40823  -0.40156
  Beta  occ. eigenvalues --   -0.39845  -0.38484  -0.38226  -0.37666  -0.36244
  Beta  occ. eigenvalues --   -0.34983  -0.34657  -0.34014  -0.33463  -0.32908
  Beta  occ. eigenvalues --   -0.32217  -0.31945  -0.31768  -0.30983  -0.29789
  Beta  occ. eigenvalues --   -0.28255  -0.24786  -0.24368  -0.22711  -0.21505
  Beta  occ. eigenvalues --   -0.21138  -0.19043  -0.17919  -0.17719  -0.17083
  Beta  occ. eigenvalues --   -0.14684
  Beta virt. eigenvalues --    0.05537   0.06172   0.06310   0.06793   0.07311
  Beta virt. eigenvalues --    0.07770   0.08094   0.08574   0.08890   0.09278
  Beta virt. eigenvalues --    0.09608   0.09852   0.10451   0.10678   0.11388

 Mulliken charges and spin densities:
               1          2
     1  C    0.493920  -0.944851
     2  C   -0.183662   0.291456
     3  O   -0.347701   0.000620
     4  N   -0.144487  -0.006521
     5  C   -0.696586   0.129266
     6  C    0.921303  -1.162486
     7  N   -0.244407   0.109315
     8  C    0.255697  -0.236620
     9  O   -0.337168   0.014305
    10  N   -0.290524   0.076919
    11  C    0.142041   0.012734
    12  C   -0.623673  -0.303852
    13  N    0.520300  -0.018943
    14  N   -0.399839   0.203943
    15  C    0.370303  -0.434160
    16  C    0.732056  -1.030762
    17  C   -0.078774   0.225134
    18  O   -0.308530   0.025136
    19  O   -0.160237  -0.021797
    20  H    0.132892   0.043203
    21  H   -0.094850   0.257059
    22  H   -0.240557   0.396543
    23  H    0.313424   0.020556
    24  H    0.131008   0.074488
    25  H   -0.379901   0.578194
    26  H    0.115171   0.091684
    27  H   -0.437579   0.662107
    28  H    0.318809   0.039924
    29  H    0.271310   0.045058
    30  H   -0.146329   0.348259
    31  H    0.060954   0.077643
    32  H    0.101253   0.112933
    33  H   -0.576282   0.808809
    34  H   -0.189354   0.514705
 Sum of Mulliken charges =  -1.00000   1.00000

 Dipole moment (field-independent basis, Debye):
    X=              0.8273    Y=              3.7630    Z=             -4.1500  Tot=              5.6628
 Quadrupole moment (field-independent basis, Debye-Ang):
   XX=           -239.9695   YY=           -155.8649   ZZ=           -142.9290
   XY=             -5.4309   XZ=             -0.3111   YZ=             -4.8540

 Summary of Natural Population Analysis:

                                       Natural Population
                Natural  -----------------------------------------------
    Atom  No    Charge         Core      Valence    Rydberg      Total
 -----------------------------------------------------------------------
      C    1   -0.33648      0.99963     2.33212    0.00474     3.33648
      C    2    0.34153      0.99970     1.63587    0.02290     2.65847
      O    3   -0.32117      0.99988     3.31526    0.00604     4.32117
      N    4   -0.32877      0.99968     2.81955    0.00955     3.82877
      C    5   -0.10038      0.99961     2.09000    0.01077     3.10038
      C    6   -0.09737      0.99960     2.08569    0.01208     3.09737
      N    7   -0.33928      0.99970     2.82854    0.01104     3.83928
      C    8    0.40743      0.99970     1.56879    0.02407     2.59257
      O    9   -0.33025      0.99988     3.32533    0.00504     4.33025
      N   10   -0.32065      0.99963     2.81236    0.00866     3.82065
      C   11    0.01519      0.99947     1.97311    0.01223     2.98481
      C   12   -0.00693      0.99949     1.99661    0.01082     3.00693
      N   13   -0.10457      0.99967     2.58973    0.01517     3.60457
      N   14   -0.14397      0.99973     2.63314    0.01110     3.64397
      C   15   -0.01904      0.99958     2.00621    0.01325     3.01904
      C   16   -0.13243      0.99956     2.12021    0.01266     3.13243
      C   17    0.40772      0.99974     1.56840    0.02415     2.59228
      O   18   -0.30315      0.99987     3.29699    0.00629     4.30315
      O   19   -0.33640      0.99987     3.32989    0.00663     4.33640
      H   20    0.11310      0.00000     0.38614    0.00076     0.38690
      H   21    0.10907      0.00000     0.39001    0.00093     0.39093
      H   22    0.11188      0.00000     0.38652    0.00160     0.38812
      H   23    0.20042      0.00000     0.29726    0.00232     0.29958
      H   24    0.09953      0.00000     0.39920    0.00127     0.40047
      H   25    0.10608      0.00000     0.39256    0.00135     0.39392
      H   26    0.10568      0.00000     0.39216    0.00217     0.39432
      H   27    0.10278      0.00000     0.39472    0.00250     0.39722
      H   28    0.19316      0.00000     0.30499    0.00184     0.30684
      H   29    0.19972      0.00000     0.29828    0.00200     0.30028
      H   30    0.11833      0.00000     0.37976    0.00191     0.38167
      H   31    0.09860      0.00000     0.40049    0.00090     0.40140
      H   32    0.12140      0.00000     0.37720    0.00139     0.37860
      H   33    0.12392      0.00000     0.37223    0.00385     0.37608
      H   34    0.24530      0.00000     0.24540    0.00930     0.25470
 =======================================================================
   * Total *    0.00000     18.99399    51.74473    0.26128    71.00000

 Normal termination of Gaussian 16 at Sat Dec 12 10:56:22 2020.
