 Gaussian 16, Revision A.03,

 -----------------------------------------------------------
 # opt freq B3LYP/6-31G(d) empiricaldispersion=gd3bj scf=xqc
 -----------------------------------------------------------

 ------------------------------
 CID_64477547_JID_5763_neutraal
 ------------------------------
 Symbolic Z-matrix:
 Charge =  0 Multiplicity = 1

 SCF Done:  E(RB3LYP) =  -1108.22642198     A.U. after   15 cycles
 SCF Done:  E(RB3LYP) =  -1108.23017608     A.U. after   13 cycles
 SCF Done:  E(RB3LYP) =  -1108.23442333     A.U. after   14 cycles
 SCF Done:  E(RB3LYP) =  -1108.23345477     A.U. after   14 cycles
 SCF Done:  E(RB3LYP) =  -1108.23674074     A.U. after   13 cycles
 SCF Done:  E(RB3LYP) =  -1108.23807458     A.U. after   14 cycles
 SCF Done:  E(RB3LYP) =  -1108.24288816     A.U. after   13 cycles
 SCF Done:  E(RB3LYP) =  -1108.24245783     A.U. after   13 cycles
 SCF Done:  E(RB3LYP) =  -1108.24549488     A.U. after   13 cycles
 SCF Done:  E(RB3LYP) =  -1108.24649876     A.U. after   12 cycles
 SCF Done:  E(RB3LYP) =  -1108.24909215     A.U. after    8 cycles
 SCF Done:  E(RB3LYP) =  -1108.24909300     A.U. after    9 cycles
 SCF Done:  E(RB3LYP) =  -1108.24909326     A.U. after    8 cycles
 SCF Done:  E(RB3LYP) =  -1108.24909343     A.U. after    8 cycles
 SCF Done:  E(RB3LYP) =  -1108.24909346     A.U. after    6 cycles
 SCF Done:  E(RB3LYP) =  -1108.24909347     A.U. after    6 cycles
 Optimization completed.
    -- Stationary point found.
 Normal termination of Gaussian 16 at Thu Dec 10 17:41:16 2020.

 --------------------------------------------------------------------
 #N Geom=AllCheck Guess=TCheck SCRF=Check GenChk RB3LYP/6-31G(d) Freq
 --------------------------------------------------------------------

 Structure from the checkpoint file:  "JID_5763.chk"
 ------------------------------
 CID_64477547_JID_5763_neutraal
 ------------------------------
 Charge =  0 Multiplicity = 1

 SCF Done:  E(RB3LYP) =  -1108.24909347     A.U. after    1 cycles

  Exact polarizability: 154.388  -2.488 121.526  -6.254  -2.308 109.003
 Approx polarizability: 191.180   3.075 180.708 -16.101  -5.219 182.982

                      1                      2                      3
                      A                      A                      A
 Frequencies --     22.7144                40.1828                54.3499
 Red. masses --      3.0806                 7.7319                 3.9148
 Frc consts  --      0.0009                 0.0074                 0.0068
 IR Inten    --      1.1172                 2.5335                 1.8020

                      4                      5                      6
                      A                      A                      A
 Frequencies --     81.7229                86.7033               123.8458
 Red. masses --      5.5887                 4.3114                 3.5325
 Frc consts  --      0.0220                 0.0191                 0.0319
 IR Inten    --      0.6440                 1.3626                 2.5634

                      7                      8                      9
                      A                      A                      A
 Frequencies --    164.7290               180.3152               206.6605
 Red. masses --      1.1883                 4.7048                 4.3220
 Frc consts  --      0.0190                 0.0901                 0.1088
 IR Inten    --      1.0939                 2.9976                 9.3297

                     10                     11                     12
                      A                      A                      A
 Frequencies --    220.9820               224.0901               234.7093
 Red. masses --      3.8824                 3.0671                 1.1635
 Frc consts  --      0.1117                 0.0907                 0.0378
 IR Inten    --      2.1326                 8.6221                 0.7321

                     13                     14                     15
                      A                      A                      A
 Frequencies --    262.9816               266.7380               275.8574
 Red. masses --      1.8736                 3.1307                 1.8949
 Frc consts  --      0.0763                 0.1312                 0.0850
 IR Inten    --      0.1020                 1.3571                 1.8346

                     16                     17                     18
                      A                      A                      A
 Frequencies --    298.7584               300.5320               360.9752
 Red. masses --      1.6038                 1.3794                 2.2532
 Frc consts  --      0.0843                 0.0734                 0.1730
 IR Inten    --      4.4635                 0.4085                 2.1518

                     19                     20                     21
                      A                      A                      A
 Frequencies --    376.7414               388.6286               415.2681
 Red. masses --      2.8147                 2.4416                 1.9155
 Frc consts  --      0.2354                 0.2173                 0.1946
 IR Inten    --      3.3848                 1.7230                 0.2149

                     22                     23                     24
                      A                      A                      A
 Frequencies --    427.7273               441.2249               455.6035
 Red. masses --      3.0322                 2.5333                 3.3413
 Frc consts  --      0.3269                 0.2906                 0.4086
 IR Inten    --      4.8232                11.8930                 7.1660

                     25                     26                     27
                      A                      A                      A
 Frequencies --    475.6418               503.0898               550.4948
 Red. masses --      5.5590                 3.2407                 4.3083
 Frc consts  --      0.7410                 0.4833                 0.7692
 IR Inten    --      8.1359                14.7291                73.8108

                     28                     29                     30
                      A                      A                      A
 Frequencies --    599.0807               681.9151               704.1400
 Red. masses --      4.8768                 4.2748                 1.6788
 Frc consts  --      1.0312                 1.1712                 0.4904
 IR Inten    --     11.0696                55.7149               193.3432

                     31                     32                     33
                      A                      A                      A
 Frequencies --    732.4246               755.4673               785.9754
 Red. masses --      4.0091                 2.5279                 3.7883
 Frc consts  --      1.2671                 0.8500                 1.3788
 IR Inten    --      6.4498                23.6186                28.2253

                     34                     35                     36
                      A                      A                      A
 Frequencies --    824.0735               882.7570               896.3631
 Red. masses --      3.3531                 1.8380                 3.1508
 Frc consts  --      1.3416                 0.8439                 1.4916
 IR Inten    --     16.1971                 0.8753               120.1266

                     37                     38                     39
                      A                      A                      A
 Frequencies --    927.8440               954.3045               959.4926
 Red. masses --      2.2019                 1.6371                 1.7467
 Frc consts  --      1.1168                 0.8784                 0.9475
 IR Inten    --      0.7851                 1.5872                11.2138

                     40                     41                     42
                      A                      A                      A
 Frequencies --    961.1619               983.5872               993.8908
 Red. masses --      2.4590                 1.2086                 2.3278
 Frc consts  --      1.3384                 0.6889                 1.3548
 IR Inten    --     32.2799                 0.1620                 0.5818

                     43                     44                     45
                      A                      A                      A
 Frequencies --   1046.9380              1061.5512              1072.8926
 Red. masses --      2.6977                 1.4831                 1.4071
 Frc consts  --      1.7421                 0.9847                 0.9543
 IR Inten    --     21.5214                 6.9127                 2.3093

                     46                     47                     48
                      A                      A                      A
 Frequencies --   1095.7527              1127.8626              1158.9459
 Red. masses --      7.0330                 2.1132                 1.3746
 Frc consts  --      4.9753                 1.5838                 1.0878
 IR Inten    --     77.2310                36.9180                 6.6500

                     49                     50                     51
                      A                      A                      A
 Frequencies --   1171.8226              1195.1088              1226.3479
 Red. masses --      1.3222                 1.6791                 2.1962
 Frc consts  --      1.0697                 1.4130                 1.9460
 IR Inten    --      6.2229                33.8396                47.4312

                     52                     53                     54
                      A                      A                      A
 Frequencies --   1237.6637              1283.6267              1290.4292
 Red. masses --      2.0082                 2.7934                 6.9354
 Frc consts  --      1.8124                 2.7118                 6.8044
 IR Inten    --      9.2587                23.2773               119.9279

                     55                     56                     57
                      A                      A                      A
 Frequencies --   1307.7840              1323.2197              1331.5142
 Red. masses --      1.5575                 1.9271                 1.3448
 Frc consts  --      1.5695                 1.9880                 1.4048
 IR Inten    --     22.8065                 8.1194                 2.9534

                     58                     59                     60
                      A                      A                      A
 Frequencies --   1334.4234              1358.1629              1398.9280
 Red. masses --      1.4934                 1.2819                 1.5163
 Frc consts  --      1.5668                 1.3932                 1.7484
 IR Inten    --      1.3927               144.2408               101.7651

                     61                     62                     63
                      A                      A                      A
 Frequencies --   1401.4265              1431.2715              1437.8467
 Red. masses --      1.3740                 1.2195                 1.2255
 Frc consts  --      1.5899                 1.4719                 1.4927
 IR Inten    --    107.0688                 4.4369                 8.2450

                     64                     65                     66
                      A                      A                      A
 Frequencies --   1462.1540              1476.0712              1482.5322
 Red. masses --      1.1630                 1.1352                 1.1434
 Frc consts  --      1.4650                 1.4572                 1.4807
 IR Inten    --      7.2856                 0.3008                 3.7818

                     67                     68                     69
                      A                      A                      A
 Frequencies --   1503.6132              1510.1603              1513.9859
 Red. masses --      1.0803                 1.0460                 1.0821
 Frc consts  --      1.4390                 1.4055                 1.4614
 IR Inten    --      9.1959                 2.5957                10.2398

                     70                     71                     72
                      A                      A                      A
 Frequencies --   1515.5655              1519.4482              1520.7359
 Red. masses --      1.0486                 1.0519                 1.0461
 Frc consts  --      1.4191                 1.4308                 1.4253
 IR Inten    --      0.1783                11.7560                 1.4381

                     73                     74                     75
                      A                      A                      A
 Frequencies --   1536.6803              1538.1239              1542.0515
 Red. masses --      1.0545                 1.0527                 1.0555
 Frc consts  --      1.4672                 1.4673                 1.4788
 IR Inten    --      6.4505                16.2301                 6.5171

                     76                     77                     78
                      A                      A                      A
 Frequencies --   1550.6691              1864.4493              3042.8037
 Red. masses --      1.0573                 9.2191                 1.0355
 Frc consts  --      1.4979                18.8816                 5.6489
 IR Inten    --     14.7786               293.7049                19.3162

                     79                     80                     81
                      A                      A                      A
 Frequencies --   3049.6120              3056.2872              3060.8060
 Red. masses --      1.0399                 1.0387                 1.0374
 Frc consts  --      5.6978                 5.7165                 5.7265
 IR Inten    --     32.5403                21.9306                14.0970

                     82                     83                     84
                      A                      A                      A
 Frequencies --   3080.8166              3091.7425              3093.2354
 Red. masses --      1.0611                 1.0674                 1.0586
 Frc consts  --      5.9336                 6.0114                 5.9676
 IR Inten    --     13.8535                17.7745                 9.2537

                     85                     86                     87
                      A                      A                      A
 Frequencies --   3108.5623              3111.9810              3119.9877
 Red. masses --      1.1013                 1.1016                 1.1023
 Frc consts  --      6.2700                 6.2856                 6.3219
 IR Inten    --      6.8090                40.9383                11.7368

                     88                     89                     90
                      A                      A                      A
 Frequencies --   3127.2911              3128.3811              3132.4778
 Red. masses --      1.1018                 1.0990                 1.1022
 Frc consts  --      6.3489                 6.3371                 6.3723
 IR Inten    --     50.5392                19.0866                14.0835

                     91                     92                     93
                      A                      A                      A
 Frequencies --   3144.3561              3149.7589              3158.4795
 Red. masses --      1.1019                 1.1066                 1.1025
 Frc consts  --      6.4186                 6.4683                 6.4801
 IR Inten    --     13.1833                 9.6333                17.8001

                     94                     95                     96
                      A                      A                      A
 Frequencies --   3162.1438              3162.6504              3568.3779
 Red. masses --      1.0988                 1.0994                 1.0679
 Frc consts  --      6.4734                 6.4793                 8.0115
 IR Inten    --      7.7037                 1.1618               384.8616

 - Thermochemistry -
 -------------------
 Temperature   298.150 Kelvin.  Pressure   1.00000 Atm.
 Atom     1 has atomic number  6 and mass  12.00000

 Molecular mass:   237.10348 amu.
 Principal axes and moments of inertia in atomic units:
                           1         2         3
     Eigenvalues --  1719.877525576.588776185.86674
           X            0.99971  -0.02398   0.00188
           Y            0.02401   0.99958  -0.01628
           Z           -0.00149   0.01632   0.99987
 This molecule is an asymmetric top.
 Rotational symmetry number  1.
 Warning -- assumption of classical behavior for rotation
           may cause significant error
 Rotational temperatures (Kelvin)      0.05036     0.01553     0.01400
 Rotational constants (GHZ):           1.04934     0.32363     0.29175
 Zero-point vibrational energy     762399.6 (Joules/Mol)
                                  182.21787 (Kcal/Mol)
 Warning -- explicit consideration of  28 degrees of freedom as
           vibrations may cause significant error
 Vibrational temperatures:     32.68    57.81    78.20   117.58   124.75
          (Kelvin)            178.19   237.01   259.43   297.34   317.94
                              322.42   337.69   378.37   383.78   396.90
                              429.85   432.40   519.36   542.05   559.15
                              597.48   615.40   634.82   655.51   684.34
                              723.83   792.04   861.94   981.12  1013.10
                             1053.80  1086.95  1130.84  1185.66  1270.09
                             1289.67  1334.96  1373.03  1380.50  1382.90
                             1415.16  1429.99  1506.31  1527.34  1543.65
                             1576.54  1622.74  1667.46  1685.99  1719.50
                             1764.44  1780.72  1846.85  1856.64  1881.61
                             1903.82  1915.75  1919.94  1954.09  2012.75
                             2016.34  2059.28  2068.74  2103.71  2123.74
                             2133.03  2163.36  2172.78  2178.29  2180.56
                             2186.15  2188.00  2210.94  2213.02  2218.67
                             2231.07  2682.53  4377.92  4387.71  4397.32
                             4403.82  4432.61  4448.33  4450.48  4472.53
                             4477.45  4488.97  4499.47  4501.04  4506.94
                             4524.03  4531.80  4544.35  4549.62  4550.35
                             5134.10

 Zero-point correction=                           0.290383 (Hartree/Particle)
 Thermal correction to Energy=                    0.307811
 Thermal correction to Enthalpy=                  0.308755
 Thermal correction to Gibbs Free Energy=         0.244957
 Sum of electronic and zero-point Energies=          -1107.958711
 Sum of electronic and thermal Energies=             -1107.941283
 Sum of electronic and thermal Enthalpies=           -1107.940339
 Sum of electronic and thermal Free Energies=        -1108.004137

                     E (Thermal)             CV                S
                      KCal/Mol        Cal/Mol-Kelvin    Cal/Mol-Kelvin
 Total                  193.154             65.010            134.274
 Electronic               0.000              0.000              0.000
 Translational            0.889              2.981             42.291
 Rotational               0.889              2.981             32.451
 Vibrational            191.377             59.049             59.532
 Vibration     1          0.593              1.985              6.382
 Vibration     2          0.594              1.981              5.250
 Vibration     3          0.596              1.976              4.652
 Vibration     4          0.600              1.962              3.849
 Vibration     5          0.601              1.958              3.733
 Vibration     6          0.610              1.929              3.039
 Vibration     7          0.623              1.886              2.495
 Vibration     8          0.629              1.866              2.325
 Vibration     9          0.641              1.830              2.073
 Vibration    10          0.648              1.809              1.951
 Vibration    11          0.649              1.804              1.926
 Vibration    12          0.655              1.788              1.843
 Vibration    13          0.670              1.741              1.642
 Vibration    14          0.672              1.734              1.617
 Vibration    15          0.678              1.718              1.559
 Vibration    16          0.692              1.676              1.424
 Vibration    17          0.693              1.673              1.414
 Vibration    18          0.735              1.553              1.118
 Vibration    19          0.747              1.520              1.052
 Vibration    20          0.757              1.494              1.005
 Vibration    21          0.779              1.437              0.908
 Vibration    22          0.789              1.410              0.866
 Vibration    23          0.801              1.380              0.823
 Vibration    24          0.814              1.349              0.779
 Vibration    25          0.832              1.304              0.722
 Vibration    26          0.858              1.243              0.650
 Vibration    27          0.906              1.139              0.543
 Vibration    28          0.957              1.034              0.451

 Optimization completed.
    -- Stationary point found.
 Normal termination of Gaussian 16 at Thu Dec 10 17:53:00 2020.

 ----------------------------------------------------------------------
 # B3LYP/6-311++G(d,p) empiricaldispersion=gd3bj scf=xqc pop=npa geom=c
 heck
 ----------------------------------------------------------------------

 --------------------------------------
 CID_64477547_JID_5763_Energie_neutraal
 --------------------------------------
 Structure from the checkpoint file:  "JID_5763.chk"
 Charge =  0 Multiplicity = 1

 SCF Done:  E(RB3LYP) =  -1108.49332957     A.U. after   15 cycles
 Normal termination of Gaussian 16 at Thu Dec 10 17:58:20 2020.

 ----------------------------------------------------------------------
 # B3LYP/6-311++G(d,p) empiricaldispersion=gd3bj scf=xqc pop=npa geom=c
 heck
 ----------------------------------------------------------------------

 ------------------------------------
 CID_64477547_JID_5763_Energie_kation
 ------------------------------------
 Structure from the checkpoint file:  "JID_5763.chk"
 Charge =  1 Multiplicity = 2

 SCF Done:  E(UB3LYP) =  -1108.15337940     A.U. after   27 cycles
 Normal termination of Gaussian 16 at Thu Dec 10 18:10:48 2020.
 Gaussian 16:  ES64L-G16RevA.03 25-Dec-2016

 ----------------------------------------------------------------------
 # B3LYP/6-311++G(d,p) empiricaldispersion=gd3bj scf=xqc pop=npa geom=c
 heck
 ----------------------------------------------------------------------

 -----------------------------------
 CID_64477547_JID_5763_Energie_anion
 -----------------------------------
 Structure from the checkpoint file:  "JID_5763.chk"
 Charge = -1 Multiplicity = 2

                         Standard orientation:
 ---------------------------------------------------------------------
 Center     Atomic      Atomic             Coordinates (Angstroms)
 Number     Number       Type             X           Y           Z
 ---------------------------------------------------------------------
      1          6           0        2.741126   -1.725164    0.541300
      2          6           0        2.986389   -0.294679    0.031882
      3          6           0        4.268346    0.262784    0.681156
      4          6           0        3.154720   -0.296529   -1.496961
      5          6           0        1.855680    0.670348    0.461283
      6         16           0        0.162948    0.105240    0.140160
      7          8           0        0.019433   -0.271229   -1.290744
      8          8           0       -0.222234   -0.863085    1.168236
      9          7           0       -0.741898    1.510731    0.434940
     10          6           0       -0.635558    2.529367   -0.618063
     11          6           0       -2.128415    1.227716    0.870006
     12          6           0       -3.074505    0.629630   -0.203618
     13          6           0       -3.219997   -0.895164   -0.150225
     14          8           0       -4.028179   -1.420868    0.578296
     15          8           0       -2.448618   -1.629683   -0.973885
     16          1           0        3.623538   -2.341103    0.336494
     17          1           0        1.883922   -2.191633    0.048663
     18          1           0        2.554385   -1.741079    1.619936
     19          1           0        5.130186   -0.345269    0.385658
     20          1           0        4.463103    1.294836    0.365525
     21          1           0        4.202729    0.245464    1.775161
     22          1           0        2.260999   -0.673683   -1.997778
     23          1           0        3.357198    0.714690   -1.871318
     24          1           0        4.003519   -0.930962   -1.774774
     25          1           0        1.856232    0.830769    1.542908
     26          1           0        1.975532    1.636844   -0.034506
     27          1           0       -1.050126    2.208733   -1.580708
     28          1           0       -1.168847    3.418074   -0.270783
     29          1           0        0.409741    2.805182   -0.771554
     30          1           0       -2.085351    0.576484    1.743839
     31          1           0       -2.518894    2.195331    1.197463
     32          1           0       -4.080643    1.013039   -0.016135
     33          1           0       -2.779193    0.963057   -1.203815
     34          1           0       -1.701857   -1.108666   -1.337198
 ---------------------------------------------------------------------

 SCF Done:  E(UB3LYP) =  -1108.49196320     A.U. after   31 cycles

 The electronic state is 2-A.
 Alpha  occ. eigenvalues --  -88.97560 -19.06068 -19.03773 -19.03198 -19.00841
 Alpha  occ. eigenvalues --  -14.26321 -10.20586 -10.13066 -10.12365 -10.11557
 Alpha  occ. eigenvalues --  -10.11239 -10.09871 -10.07724 -10.07325 -10.06806
 Alpha  occ. eigenvalues --   -8.03859  -6.00125  -6.00106  -5.99918  -1.03556
 Alpha  occ. eigenvalues --   -1.00034  -0.92563  -0.91980  -0.85516  -0.75581
 Alpha  occ. eigenvalues --   -0.69689  -0.66273  -0.61950  -0.60597  -0.60189
 Alpha  occ. eigenvalues --   -0.58289  -0.51649  -0.50107  -0.46236  -0.44900
 Alpha  occ. eigenvalues --   -0.42554  -0.41528  -0.40391  -0.38608  -0.37908
 Alpha  occ. eigenvalues --   -0.37538  -0.36125  -0.35713  -0.34536  -0.33822
 Alpha  occ. eigenvalues --   -0.33200  -0.32999  -0.32019  -0.30728  -0.30415
 Alpha  occ. eigenvalues --   -0.29385  -0.28975  -0.28206  -0.27193  -0.26568
 Alpha  occ. eigenvalues --   -0.25619  -0.25458  -0.24973  -0.23868  -0.22647
 Alpha  occ. eigenvalues --   -0.22167  -0.21276  -0.18162  -0.17197   0.03483
 Alpha virt. eigenvalues --    0.05744   0.07298   0.07754   0.08563   0.08661
 Alpha virt. eigenvalues --    0.08898   0.09710   0.09946   0.10622   0.10963
 Alpha virt. eigenvalues --    0.11213   0.12122   0.12290   0.12666   0.13169

  Beta  occ. eigenvalues --  -88.97554 -19.06061 -19.03759 -19.03186 -19.00824
  Beta  occ. eigenvalues --  -14.26320 -10.20570 -10.13039 -10.12331 -10.11558
  Beta  occ. eigenvalues --  -10.11169 -10.09856 -10.07687 -10.07309 -10.06781
  Beta  occ. eigenvalues --   -8.03854  -6.00112  -6.00099  -5.99914  -1.03519
  Beta  occ. eigenvalues --   -1.00010  -0.92533  -0.91953  -0.85496  -0.75554
  Beta  occ. eigenvalues --   -0.69646  -0.66213  -0.61861  -0.60544  -0.60143
  Beta  occ. eigenvalues --   -0.58236  -0.51626  -0.50035  -0.46177  -0.44823
  Beta  occ. eigenvalues --   -0.42508  -0.41493  -0.40355  -0.38563  -0.37858
  Beta  occ. eigenvalues --   -0.37494  -0.36086  -0.35684  -0.34499  -0.33769
  Beta  occ. eigenvalues --   -0.33169  -0.32942  -0.31980  -0.30687  -0.30378
  Beta  occ. eigenvalues --   -0.29351  -0.28940  -0.28176  -0.27161  -0.26532
  Beta  occ. eigenvalues --   -0.25584  -0.25433  -0.24943  -0.23842  -0.22617
  Beta  occ. eigenvalues --   -0.22124  -0.21234  -0.18142  -0.17171
  Beta virt. eigenvalues --    0.05909   0.06616   0.08148   0.08265   0.08851
  Beta virt. eigenvalues --    0.08973   0.09403   0.09889   0.10356   0.10914
  Beta virt. eigenvalues --    0.11180   0.11398   0.12373   0.12574   0.12899

 Mulliken charges and spin densities:
               1          2
     1  C    0.003994  -0.662990
     2  C   -1.413071   2.073637
     3  C    0.454710  -0.966903
     4  C    0.042168  -0.633216
     5  C    0.828927  -1.436084
     6  S   -0.215971  -0.290952
     7  O   -0.019279   0.026968
     8  O   -0.114038   0.013205
     9  N   -0.339247   0.275693
    10  C    1.233092  -1.540902
    11  C   -0.057519  -0.255805
    12  C    0.075938  -0.215163
    13  C   -0.139473   0.065140
    14  O   -0.271826   0.007223
    15  O   -0.092186   0.001800
    16  H    0.070326   0.075349
    17  H    0.269120  -0.042177
    18  H    0.054167   0.113985
    19  H   -0.108739   0.258955
    20  H   -0.460784   0.623019
    21  H   -0.048671   0.182646
    22  H    0.140475   0.047950
    23  H   -0.141615   0.292016
    24  H    0.039630   0.106603
    25  H   -0.038509   0.321273
    26  H    0.553091  -0.355414
    27  H   -0.073925   0.269283
    28  H   -0.595471   0.782350
    29  H   -0.888759   1.041518
    30  H    0.291459  -0.049882
    31  H   -0.330984   0.532273
    32  H   -0.014547   0.232484
    33  H    0.095199   0.068483
    34  H    0.212317   0.037634
 Sum of Mulliken charges =  -1.00000   1.00000

 Dipole moment (field-independent basis, Debye):
    X=              1.0139    Y=             -3.4987    Z=             -0.1705  Tot=              3.6466
 Quadrupole moment (field-independent basis, Debye-Ang):
   XX=           -173.4220   YY=           -160.9236   ZZ=           -130.0190
   XY=            -14.4123   XZ=              5.2454   YZ=              4.4038

 Summary of Natural Population Analysis:

                                       Natural Population
                Natural  -----------------------------------------------
    Atom  No    Charge         Core      Valence    Rydberg      Total
 -----------------------------------------------------------------------
      C    1   -0.28798      0.99962     2.28199    0.00637     3.28798
      C    2   -0.05407      0.99959     2.04256    0.01191     3.05407
      C    3   -0.28193      0.99962     2.27450    0.00781     3.28193
      C    4   -0.28918      0.99962     2.28194    0.00762     3.28918
      C    5   -0.28153      0.99951     2.26663    0.01539     3.28153
      S    6    1.09617      4.99921     1.80697    0.09764     6.90383
      O    7   -0.48182      0.99990     3.47615    0.00577     4.48182
      O    8   -0.45754      0.99991     3.45234    0.00529     4.45754
      N    9   -0.36666      0.99976     2.85081    0.01609     3.86666
      C   10   -0.18411      0.99962     2.17420    0.01029     3.18411
      C   11   -0.08915      0.99959     2.07641    0.01315     3.08915
      C   12   -0.25865      0.99957     2.25041    0.00868     3.25865
      C   13    0.40484      0.99972     1.56934    0.02610     2.59516
      O   14   -0.30122      0.99986     3.29530    0.00606     4.30122
      O   15   -0.34835      0.99986     3.34172    0.00677     4.34835
      H   16    0.09862      0.00000     0.40062    0.00075     0.40138
      H   17    0.10726      0.00000     0.39173    0.00102     0.39274
      H   18    0.10396      0.00000     0.39529    0.00074     0.39604
      H   19    0.10118      0.00000     0.39792    0.00090     0.39882
      H   20    0.10509      0.00000     0.39337    0.00154     0.39491
      H   21    0.10008      0.00000     0.39893    0.00099     0.39992
      H   22    0.11314      0.00000     0.38578    0.00108     0.38686
      H   23    0.10260      0.00000     0.39630    0.00110     0.39740
      H   24    0.09767      0.00000     0.40155    0.00078     0.40233
      H   25    0.12155      0.00000     0.37704    0.00141     0.37845
      H   26    0.12407      0.00000     0.37330    0.00263     0.37593
      H   27    0.09488      0.00000     0.40333    0.00179     0.40512
      H   28    0.10733      0.00000     0.38947    0.00320     0.39267
      H   29    0.10595      0.00000     0.39128    0.00276     0.39405
      H   30    0.11544      0.00000     0.38330    0.00127     0.38456
      H   31    0.10709      0.00000     0.39150    0.00141     0.39291
      H   32    0.11678      0.00000     0.38208    0.00113     0.38322
      H   33    0.10741      0.00000     0.39118    0.00141     0.39259
      H   34    0.25104      0.00000     0.24542    0.00355     0.24896
 =======================================================================
   * Total *   -0.00000     18.99496    44.73067    0.27438    64.00000

 Normal termination of Gaussian 16 at Thu Dec 10 18:24:27 2020.
