 Gaussian 16, Revision A.03,

 -----------------------------------------------------------
 # opt freq B3LYP/6-31G(d) empiricaldispersion=gd3bj scf=xqc
 -----------------------------------------------------------

 -----------------------------
 CID_67555385_JID_806_neutraal
 -----------------------------
 Symbolic Z-matrix:
 Charge =  0 Multiplicity = 1

 SCF Done:  E(RB3LYP) =  -499.584097649     A.U. after   13 cycles
 SCF Done:  E(RB3LYP) =  -499.597742849     A.U. after   11 cycles
 SCF Done:  E(RB3LYP) =  -499.599458373     A.U. after   11 cycles
 SCF Done:  E(RB3LYP) =  -499.599949943     A.U. after   10 cycles
 SCF Done:  E(RB3LYP) =  -499.600182175     A.U. after   11 cycles
 SCF Done:  E(RB3LYP) =  -499.600256991     A.U. after   10 cycles
 SCF Done:  E(RB3LYP) =  -499.600306661     A.U. after   10 cycles
 SCF Done:  E(RB3LYP) =  -499.600311593     A.U. after    9 cycles
 SCF Done:  E(RB3LYP) =  -499.600314748     A.U. after    9 cycles
 SCF Done:  E(RB3LYP) =  -499.600315090     A.U. after    7 cycles
 SCF Done:  E(RB3LYP) =  -499.600315227     A.U. after    7 cycles
 SCF Done:  E(RB3LYP) =  -499.600315245     A.U. after    6 cycles
 SCF Done:  E(RB3LYP) =  -499.600315259     A.U. after    6 cycles
 SCF Done:  E(RB3LYP) =  -499.600315267     A.U. after    6 cycles
 Optimization completed.
    -- Stationary point found.

 1\1\GINC-NODE112\FOpt\RB3LYP\6-31G(d)\C7H12O3\VSC10255\08-Dec-2020\0\\
 # opt freq B3LYP/6-31G(d) empiricaldispersion=gd3bj scf=xqc\\CID_67555
 385_JID_806_neutraal\\0,1\C,0.956641525,-0.1871183108,0.0592083896\O,0
 .1483602089,0.5175208855,1.0012651616\C,0.5858319591,0.4504103979,2.29
 16367909\C,0.7765224666,-0.9071311252,3.0153495727\C,1.3950389755,-0.3
 439347753,4.3301878065\C,1.3799329217,1.1512209272,3.917558199\C,-0.04
 65561729,1.36563603,3.3443822636\O,1.8957135039,1.0970613292,2.5671585
 431\O,2.0502312171,2.0806596117,4.6771845934\C,1.4756236831,2.28495517

 Normal termination of Gaussian 16 at Tue Dec  8 12:42:49 2020.

 --------------------------------------------------------------------
 #N Geom=AllCheck Guess=TCheck SCRF=Check GenChk RB3LYP/6-31G(d) Freq
 --------------------------------------------------------------------

 Structure from the checkpoint file:  "JID_806.chk"
 -----------------------------
 CID_67555385_JID_806_neutraal
 -----------------------------
 Charge =  0 Multiplicity = 1

 SCF Done:  E(RB3LYP) =  -499.600315267     A.U. after    1 cycles

  Exact polarizability:  97.481   0.169  71.083  -1.778  -1.017  67.012
 Approx polarizability: 117.210  -0.761 100.696  -0.459   2.136 105.206

                      1                      2                      3
                      A                      A                      A
 Frequencies --     55.0819                72.8853               154.2847
 Red. masses --      2.6130                 2.5313                 1.2729
 Frc consts  --      0.0047                 0.0079                 0.0179
 IR Inten    --      3.4899                 5.9880                 2.1765

                      4                      5                      6
                      A                      A                      A
 Frequencies --    180.6351               203.8859               223.8451
 Red. masses --      1.1792                 2.5996                 2.0924
 Frc consts  --      0.0227                 0.0637                 0.0618
 IR Inten    --      0.6124                 0.3544                 0.7798

                      7                      8                      9
                      A                      A                      A
 Frequencies --    275.4357               319.4245               381.9066
 Red. masses --      2.1885                 4.0613                 3.5256
 Frc consts  --      0.0978                 0.2441                 0.3030
 IR Inten    --      0.6646                 4.8934                 1.9020

                     10                     11                     12
                      A                      A                      A
 Frequencies --    442.7381               485.1444               517.5763
 Red. masses --      2.7659                 2.9365                 4.2845
 Frc consts  --      0.3194                 0.4072                 0.6762
 IR Inten    --      0.9362                 3.0395                 6.6641

                     13                     14                     15
                      A                      A                      A
 Frequencies --    584.7688               591.8112               646.3181
 Red. masses --      3.3576                 4.5874                 4.3952
 Frc consts  --      0.6765                 0.9466                 1.0817
 IR Inten    --     10.3338                 9.2180                10.0098

                     16                     17                     18
                      A                      A                      A
 Frequencies --    727.0112               790.5946               840.5852
 Red. masses --      4.4326                 3.6900                 1.8843
 Frc consts  --      1.3804                 1.3589                 0.7844
 IR Inten    --     36.2782                44.8474                 1.7647

                     19                     20                     21
                      A                      A                      A
 Frequencies --    861.5278               936.4422               977.7153
 Red. masses --      1.9120                 1.9554                 2.7697
 Frc consts  --      0.8361                 1.0103                 1.5599
 IR Inten    --      4.7211                 7.0740                 0.2156

                     22                     23                     24
                      A                      A                      A
 Frequencies --   1010.6968              1032.0331              1045.4560
 Red. masses --      2.1091                 2.6533                 2.9405
 Frc consts  --      1.2694                 1.6650                 1.8936
 IR Inten    --     12.2137                63.0211                 6.5225

                     25                     26                     27
                      A                      A                      A
 Frequencies --   1082.2668              1114.1601              1161.7049
 Red. masses --      5.2532                 2.5109                 1.9656
 Frc consts  --      3.6253                 1.8364                 1.5629
 IR Inten    --      4.3536                73.6845               110.4495

                     28                     29                     30
                      A                      A                      A
 Frequencies --   1181.8310              1187.6328              1190.1134
 Red. masses --      2.1637                 1.3857                 1.5156
 Frc consts  --      1.7806                 1.1515                 1.2648
 IR Inten    --     37.5095                13.9080                17.8218

                     31                     32                     33
                      A                      A                      A
 Frequencies --   1193.3520              1214.5380              1221.9277
 Red. masses --      1.2900                 1.4730                 1.5484
 Frc consts  --      1.0824                 1.2802                 1.3621
 IR Inten    --      3.7020                 4.0223                14.7288

                     34                     35                     36
                      A                      A                      A
 Frequencies --   1251.0945              1262.5971              1269.1258
 Red. masses --      1.2189                 1.8248                 1.9391
 Frc consts  --      1.1241                 1.7139                 1.8401
 IR Inten    --     41.4085                56.7638               190.1331

                     37                     38                     39
                      A                      A                      A
 Frequencies --   1285.0582              1347.2934              1399.6019
 Red. masses --      2.6078                 2.1719                 2.8263
 Frc consts  --      2.5373                 2.3228                 3.2620
 IR Inten    --     38.6933               295.6579                46.1857

                     40                     41                     42
                      A                      A                      A
 Frequencies --   1499.0608              1505.0783              1508.8260
 Red. masses --      1.1415                 1.1252                 1.1309
 Frc consts  --      1.5113                 1.5018                 1.5169
 IR Inten    --      3.1008                 1.2206                 8.5895

                     43                     44                     45
                      A                      A                      A
 Frequencies --   1517.0752              1520.7728              1522.3939
 Red. masses --      1.2031                 1.0555                 1.0535
 Frc consts  --      1.6314                 1.4382                 1.4387
 IR Inten    --      1.0944                 4.5038                 7.0092

                     46                     47                     48
                      A                      A                      A
 Frequencies --   1536.2215              1537.6889              1545.9243
 Red. masses --      1.0581                 1.0551                 1.2734
 Frc consts  --      1.4713                 1.4698                 1.7930
 IR Inten    --      9.4606                13.4083                 9.5168

                     49                     50                     51
                      A                      A                      A
 Frequencies --   3016.4729              3040.8143              3068.2451
 Red. masses --      1.0361                 1.0355                 1.1022
 Frc consts  --      5.5547                 5.6415                 6.1135
 IR Inten    --     43.4688                39.3006                35.2438

                     52                     53                     54
                      A                      A                      A
 Frequencies --   3082.0360              3089.0250              3095.5069
 Red. masses --      1.0614                 1.0619                 1.0607
 Frc consts  --      5.9401                 5.9703                 5.9884
 IR Inten    --     48.4578                22.6683                21.2391

                     55                     56                     57
                      A                      A                      A
 Frequencies --   3109.9720              3131.7452              3148.1033
 Red. masses --      1.1026                 1.1070                 1.1060
 Frc consts  --      6.2832                 6.3972                 6.4578
 IR Inten    --     38.3541                 1.3690                35.5020

                     58                     59                     60
                      A                      A                      A
 Frequencies --   3154.9341              3160.3602              3178.4597
 Red. masses --      1.0986                 1.1031                 1.1077
 Frc consts  --      6.4428                 6.4917                 6.5933
 IR Inten    --     27.7685                25.5186                14.2775

 - Thermochemistry -
 -------------------
 Temperature   298.150 Kelvin.  Pressure   1.00000 Atm.
 Atom     1 has atomic number  6 and mass  12.00000

 Molecular mass:   144.07864 amu.
 Principal axes and moments of inertia in atomic units:
                           1         2         3
     Eigenvalues --   550.603592021.292812155.64468
           X            0.99976   0.00084  -0.02195
           Y           -0.00172   0.99920  -0.03999
           Z            0.02190   0.04002   0.99896
 This molecule is an asymmetric top.
 Rotational symmetry number  1.
 Warning -- assumption of classical behavior for rotation
           may cause significant error
 Rotational temperatures (Kelvin)      0.15731     0.04285     0.04018
 Rotational constants (GHZ):           3.27775     0.89286     0.83722
 Zero-point vibrational energy     494589.0 (Joules/Mol)
                                  118.20960 (Kcal/Mol)
 Warning -- explicit consideration of  14 degrees of freedom as
           vibrations may cause significant error
 Vibrational temperatures:     79.25   104.87   221.98   259.89   293.35
          (Kelvin)            322.06   396.29   459.58   549.48   637.00
                              698.01   744.68   841.35   851.48   929.91
                             1046.01  1137.49  1209.41  1239.55  1347.33
                             1406.71  1454.17  1484.87  1504.18  1557.14
                             1603.03  1671.43  1700.39  1708.74  1712.31
                             1716.97  1747.45  1758.08  1800.05  1816.60
                             1825.99  1848.91  1938.45  2013.71  2156.81
                             2165.47  2170.86  2182.73  2188.05  2190.39
                             2210.28  2212.39  2224.24  4340.03  4375.05
                             4414.52  4434.36  4444.42  4453.74  4474.56
                             4505.88  4529.42  4539.25  4547.05  4573.09

 Zero-point correction=                           0.188379 (Hartree/Particle)
 Thermal correction to Energy=                    0.198271
 Thermal correction to Enthalpy=                  0.199215
 Thermal correction to Gibbs Free Energy=         0.153089
 Sum of electronic and zero-point Energies=           -499.411936
 Sum of electronic and thermal Energies=              -499.402044
 Sum of electronic and thermal Enthalpies=            -499.401100
 Sum of electronic and thermal Free Energies=         -499.447226

                     E (Thermal)             CV                S
                      KCal/Mol        Cal/Mol-Kelvin    Cal/Mol-Kelvin
 Total                  124.417             37.123             97.079
 Electronic               0.000              0.000              0.000
 Translational            0.889              2.981             40.807
 Rotational               0.889              2.981             29.263
 Vibrational            122.639             31.161             27.010
 Vibration     1          0.596              1.976              4.626
 Vibration     2          0.599              1.967              4.074
 Vibration     3          0.620              1.898              2.619
 Vibration     4          0.630              1.866              2.322
 Vibration     5          0.640              1.834              2.098
 Vibration     6          0.649              1.805              1.928
 Vibration     7          0.677              1.719              1.562
 Vibration     8          0.705              1.636              1.313
 Vibration     9          0.751              1.509              1.032
 Vibration    10          0.802              1.377              0.818
 Vibration    11          0.841              1.283              0.696
 Vibration    12          0.873              1.211              0.616
 Vibration    13          0.942              1.064              0.477
 Vibration    14          0.949              1.049              0.464

 Optimization completed.
    -- Stationary point found.

 1\1\GINC-NODE112\Freq\RB3LYP\6-31G(d)\C7H12O3\VSC10255\08-Dec-2020\0\\
 #N Geom=AllCheck Guess=TCheck SCRF=Check GenChk RB3LYP/6-31G(d) Freq\\
 CID_67555385_JID_806_neutraal\\0,1\C,0.956641525,-0.1871183108,0.05920
 83896\O,0.1483602089,0.5175208855,1.0012651616\C,0.5858319591,0.450410
 3979,2.2916367909\C,0.7765224666,-0.9071311252,3.0153495727\C,1.395038
 9755,-0.3439347753,4.3301878065\C,1.3799329217,1.1512209272,3.91755819
 9\C,-0.0465561729,1.36563603,3.3443822636\O,1.8957135039,1.0970613292,
 2.5671585431\O,2.0502312171,2.0806596117,4.6771845934\C,1.4756236831,2

 Normal termination of Gaussian 16 at Tue Dec  8 13:04:03 2020.

 ----------------------------------------------------------------------
 # B3LYP/6-311++G(d,p) empiricaldispersion=gd3bj scf=xqc pop=npa geom=c
 heck
 ----------------------------------------------------------------------

 -------------------------------------
 CID_67555385_JID_806_Energie_neutraal
 -------------------------------------
 Structure from the checkpoint file:  "JID_806.chk"
 Charge =  0 Multiplicity = 1

 SCF Done:  E(RB3LYP) =  -499.745343192     A.U. after   13 cycles
 Normal termination of Gaussian 16 at Tue Dec  8 13:08:44 2020.

 ----------------------------------------------------------------------
 # B3LYP/6-311++G(d,p) empiricaldispersion=gd3bj scf=xqc pop=npa geom=c
 heck
 ----------------------------------------------------------------------

 -----------------------------------
 CID_67555385_JID_806_Energie_kation
 -----------------------------------
 Structure from the checkpoint file:  "JID_806.chk"
 Charge =  1 Multiplicity = 2

 SCF Done:  E(UB3LYP) =  -499.413810589     A.U. after   21 cycles
 Normal termination of Gaussian 16 at Tue Dec  8 13:17:24 2020.
 Gaussian 16:  ES64L-G16RevA.03 25-Dec-2016

 ----------------------------------
 CID_67555385_JID_806_Energie_anion
 ----------------------------------
 Structure from the checkpoint file:  "JID_806.chk"
 Charge = -1 Multiplicity = 2

                         Standard orientation:
 ---------------------------------------------------------------------
 Center     Atomic      Atomic             Coordinates (Angstroms)
 Number     Number       Type             X           Y           Z
 ---------------------------------------------------------------------
      1          6           0        3.156877   -0.328374   -0.458594
      2          8           0        2.170818   -0.647055    0.522954
      3          6           0        0.950973   -0.073311    0.313812
      4          6           0        0.783642    1.464162    0.207893
      5          6           0       -0.731885    1.472566   -0.154956
      6          6           0       -0.929835   -0.065850   -0.163534
      7          6           0       -0.246726   -0.537189    1.148174
      8          8           0        0.226884   -0.515040   -0.907020
      9          8           0       -2.091529   -0.606571   -0.661805
     10          6           0       -3.232390   -0.324958    0.132290
     11          1           0        4.020158   -0.958117   -0.236435
     12          1           0        3.456674    0.725712   -0.403069
     13          1           0        2.788517   -0.550899   -1.465932
     14          1           0        1.401645    1.884321   -0.588481
     15          1           0        1.018877    1.972508    1.147878
     16          1           0       -1.350348    1.990745    0.583982
     17          1           0       -0.933207    1.885508   -1.146437
     18          1           0       -0.458905   -0.029276    2.093347
     19          1           0       -0.266803   -1.623517    1.237900
     20          1           0       -3.101419   -0.684523    1.163158
     21          1           0       -3.460173    0.749555    0.158410
     22          1           0       -4.068343   -0.854978   -0.327865
 ---------------------------------------------------------------------

 SCF Done:  E(UB3LYP) =  -499.728890062     A.U. after   27 cycles

 The electronic state is 2-A.
 Alpha  occ. eigenvalues --  -19.04447 -19.03582 -19.01517 -10.17797 -10.17682
 Alpha  occ. eigenvalues --  -10.11800 -10.11275 -10.07005 -10.06946 -10.06698
 Alpha  occ. eigenvalues --   -0.99415  -0.96051  -0.91847  -0.70156  -0.63800
 Alpha  occ. eigenvalues --   -0.62181  -0.59816  -0.55514  -0.46881  -0.45146
 Alpha  occ. eigenvalues --   -0.43879  -0.39557  -0.38577  -0.36714  -0.35991
 Alpha  occ. eigenvalues --   -0.34840  -0.34183  -0.33673  -0.29887  -0.27826
 Alpha  occ. eigenvalues --   -0.27752  -0.26929  -0.25485  -0.24735  -0.22448
 Alpha  occ. eigenvalues --   -0.21886  -0.18413  -0.16628  -0.15162   0.04715
 Alpha virt. eigenvalues --    0.06367   0.08169   0.08654   0.09579   0.10061
 Alpha virt. eigenvalues --    0.10426   0.11387   0.12065   0.12470   0.12953
 Alpha virt. eigenvalues --    0.13600   0.14928   0.15468   0.16698   0.17648

  Beta  occ. eigenvalues --  -19.04440 -19.03573 -19.01512 -10.17797 -10.17683
  Beta  occ. eigenvalues --  -10.11768 -10.11227 -10.06979 -10.06925 -10.06672
  Beta  occ. eigenvalues --   -0.99403  -0.96035  -0.91831  -0.70130  -0.63766
  Beta  occ. eigenvalues --   -0.62139  -0.59760  -0.55448  -0.46823  -0.45100
  Beta  occ. eigenvalues --   -0.43833  -0.39530  -0.38542  -0.36687  -0.35961
  Beta  occ. eigenvalues --   -0.34805  -0.34142  -0.33629  -0.29853  -0.27781
  Beta  occ. eigenvalues --   -0.27718  -0.26896  -0.25455  -0.24695  -0.22419
  Beta  occ. eigenvalues --   -0.21853  -0.18394  -0.16609  -0.15146
  Beta virt. eigenvalues --    0.07168   0.07724   0.09065   0.09343   0.10510
  Beta virt. eigenvalues --    0.10554   0.11085   0.11768   0.12509   0.13152
  Beta virt. eigenvalues --    0.13478   0.14222   0.15134   0.15833   0.16784

 Mulliken charges and spin densities:
               1          2
     1  C    0.656212  -0.904987
     2  O   -0.167528   0.047073
     3  C   -1.656701   1.880171
     4  C    1.346042  -1.512965
     5  C    0.602425  -0.889936
     6  C   -1.396219   1.479859
     7  C    1.224382  -2.021550
     8  O   -0.164958  -0.010539
     9  O   -0.196419   0.027184
    10  C    1.755263  -2.042653
    11  H   -0.184443   0.328897
    12  H   -0.539695   0.681956
    13  H   -0.017759   0.188862
    14  H    0.034849   0.098984
    15  H   -0.343492   0.532607
    16  H   -0.175088   0.317209
    17  H   -0.155854   0.353543
    18  H   -0.353090   0.529960
    19  H    0.117549   0.085374
    20  H   -0.569816   0.717337
    21  H   -0.669705   0.815975
    22  H   -0.145956   0.297640
 Sum of Mulliken charges =  -1.00000   1.00000

 Dipole moment (field-independent basis, Debye):
    X=              2.2689    Y=             -2.3561    Z=             -1.9346  Tot=              3.8002
 Quadrupole moment (field-independent basis, Debye-Ang):
   XX=           -130.1085   YY=            -95.6513   ZZ=            -94.6112
   XY=             -0.1262   XZ=              6.2105   YZ=             -3.4433

 Summary of Natural Population Analysis:

                                       Natural Population
                Natural  -----------------------------------------------
    Atom  No    Charge         Core      Valence    Rydberg      Total
 -----------------------------------------------------------------------
      C    1   -0.10232      0.99959     2.09393    0.00880     3.10232
      O    2   -0.28884      0.99983     3.27949    0.00951     4.28884
      C    3    0.28447      0.99947     1.69030    0.02576     2.71553
      C    4   -0.20829      0.99958     2.19989    0.00882     3.20829
      C    5   -0.20841      0.99958     2.19959    0.00923     3.20841
      C    6    0.28928      0.99946     1.68621    0.02505     2.71072
      C    7   -0.21412      0.99950     2.20317    0.01145     3.21412
      O    8   -0.31704      0.99990     3.31051    0.00663     4.31704
      O    9   -0.29075      0.99984     3.28128    0.00963     4.29075
      C   10   -0.09903      0.99959     2.09047    0.00898     3.09903
      H   11    0.09054      0.00000     0.40842    0.00105     0.40946
      H   12    0.08483      0.00000     0.41336    0.00182     0.41517
      H   13    0.08907      0.00000     0.40961    0.00131     0.41093
      H   14    0.10440      0.00000     0.39397    0.00163     0.39560
      H   15    0.10404      0.00000     0.39425    0.00171     0.39596
      H   16    0.10473      0.00000     0.39296    0.00231     0.39527
      H   17    0.10416      0.00000     0.39455    0.00128     0.39584
      H   18    0.10272      0.00000     0.39542    0.00186     0.39728
      H   19    0.10998      0.00000     0.38869    0.00133     0.39002
      H   20    0.08414      0.00000     0.41356    0.00230     0.41586
      H   21    0.08497      0.00000     0.41261    0.00242     0.41503
      H   22    0.09147      0.00000     0.40739    0.00114     0.40853
 =======================================================================
   * Total *    0.00000      9.99635    28.85962    0.14403    39.00000

 Normal termination of Gaussian 16 at Tue Dec  8 13:30:41 2020.
