 Gaussian 16, Revision A.03,

 -----------------------------------------------------------
 # opt freq B3LYP/6-31G(d) empiricaldispersion=gd3bj scf=xqc
 -----------------------------------------------------------

 -------------------------------
 CID_144535833_JID_3260_neutraal
 -------------------------------
 Symbolic Z-matrix:
 Charge =  0 Multiplicity = 1

 SCF Done:  E(RB3LYP) =  -538.390775631     A.U. after   14 cycles
 SCF Done:  E(RB3LYP) =  -538.392978491     A.U. after   12 cycles
 SCF Done:  E(RB3LYP) =  -538.393217484     A.U. after   11 cycles
 SCF Done:  E(RB3LYP) =  -538.393267929     A.U. after   10 cycles
 SCF Done:  E(RB3LYP) =  -538.393290663     A.U. after   10 cycles
 SCF Done:  E(RB3LYP) =  -538.393297308     A.U. after    9 cycles
 SCF Done:  E(RB3LYP) =  -538.393298164     A.U. after    8 cycles
 SCF Done:  E(RB3LYP) =  -538.393298373     A.U. after    7 cycles
 SCF Done:  E(RB3LYP) =  -538.393298683     A.U. after    7 cycles
 SCF Done:  E(RB3LYP) =  -538.393299048     A.U. after    7 cycles
 SCF Done:  E(RB3LYP) =  -538.393342780     A.U. after   10 cycles
 SCF Done:  E(RB3LYP) =  -538.393344493     A.U. after   10 cycles
 SCF Done:  E(RB3LYP) =  -538.393344919     A.U. after    8 cycles
 SCF Done:  E(RB3LYP) =  -538.393345025     A.U. after    7 cycles
 SCF Done:  E(RB3LYP) =  -538.393345033     A.U. after    6 cycles
 Optimization completed.
    -- Stationary point found.
 Normal termination of Gaussian 16 at Wed Dec  9 22:40:44 2020.

 --------------------------------------------------------------------
 #N Geom=AllCheck Guess=TCheck SCRF=Check GenChk RB3LYP/6-31G(d) Freq
 --------------------------------------------------------------------

 Structure from the checkpoint file:  "JID_3260.chk"
 -------------------------------
 CID_144535833_JID_3260_neutraal
 -------------------------------
 Charge =  0 Multiplicity = 1

 SCF Done:  E(RB3LYP) =  -538.393345033     A.U. after    1 cycles

  Exact polarizability: 150.040   2.613 130.239  -1.188  -1.062  85.268
 Approx polarizability: 211.788   0.224 202.361  -2.931  -2.997 129.310

                      1                      2                      3
                      A                      A                      A
 Frequencies --     35.9805                62.9730               104.3031
 Red. masses --      1.0345                 2.9543                 3.3452
 Frc consts  --      0.0008                 0.0069                 0.0214
 IR Inten    --      0.5386                 0.0161                 0.4595

                      4                      5                      6
                      A                      A                      A
 Frequencies --    138.0856               213.6992               236.7923
 Red. masses --      2.7933                 2.7091                 1.1044
 Frc consts  --      0.0314                 0.0729                 0.0365
 IR Inten    --      1.3684                 0.1195                 0.1192

                      7                      8                      9
                      A                      A                      A
 Frequencies --    260.1056               271.7465               296.5912
 Red. masses --      2.2969                 1.1056                 2.6736
 Frc consts  --      0.0916                 0.0481                 0.1386
 IR Inten    --      0.2027                 0.5724                 1.6108

                     10                     11                     12
                      A                      A                      A
 Frequencies --    311.0732               345.3659               368.9840
 Red. masses --      2.7501                 2.9162                 2.8356
 Frc consts  --      0.1568                 0.2049                 0.2275
 IR Inten    --      0.5955                 2.1274                 1.4296

                     13                     14                     15
                      A                      A                      A
 Frequencies --    384.4055               429.6469               457.5837
 Red. masses --      2.3051                 2.9855                 3.0678
 Frc consts  --      0.2007                 0.3247                 0.3785
 IR Inten    --      0.1004                 1.0865                 2.1158

                     16                     17                     18
                      A                      A                      A
 Frequencies --    462.9496               512.8914               551.8739
 Red. masses --      3.3120                 3.4059                 3.5206
 Frc consts  --      0.4182                 0.5279                 0.6318
 IR Inten    --      0.3553                 1.1014                 1.9278

                     19                     20                     21
                      A                      A                      A
 Frequencies --    586.9340               661.1241               719.6753
 Red. masses --      2.4080                 4.1723                 6.2691
 Frc consts  --      0.4887                 1.0745                 1.9131
 IR Inten    --      1.0516                 2.5556                 6.3650

                     22                     23                     24
                      A                      A                      A
 Frequencies --    745.1289               813.5502               829.7417
 Red. masses --      3.4707                 4.0811                 2.9625
 Frc consts  --      1.1354                 1.5915                 1.2017
 IR Inten    --      3.1723                 3.5204                 3.7614

                     25                     26                     27
                      A                      A                      A
 Frequencies --    875.6995               899.1133               931.1100
 Red. masses --      1.5207                 2.4542                 3.5950
 Frc consts  --      0.6871                 1.1689                 1.8363
 IR Inten    --      2.2346                 0.3687                 6.6869

                     28                     29                     30
                      A                      A                      A
 Frequencies --    958.8456               966.3589               972.4130
 Red. masses --      1.6997                 1.6783                 1.5642
 Frc consts  --      0.9207                 0.9234                 0.8714
 IR Inten    --      0.6699                 1.7904                 1.2406

                     31                     32                     33
                      A                      A                      A
 Frequencies --    984.5348              1028.5393              1035.8943
 Red. masses --      1.9606                 1.3791                 1.5630
 Frc consts  --      1.1197                 0.8596                 0.9882
 IR Inten    --     10.0569                 1.9505                 5.6145

                     34                     35                     36
                      A                      A                      A
 Frequencies --   1064.2626              1073.7550              1078.8136
 Red. masses --      1.7691                 1.7609                 1.6294
 Frc consts  --      1.1806                 1.1962                 1.1173
 IR Inten    --      1.0059                 0.7579                 4.8659

                     37                     38                     39
                      A                      A                      A
 Frequencies --   1146.0626              1155.1107              1200.1163
 Red. masses --      2.8689                 1.4909                 1.9086
 Frc consts  --      2.2201                 1.1721                 1.6196
 IR Inten    --      3.8098                 0.7710                 0.9508

                     40                     41                     42
                      A                      A                      A
 Frequencies --   1235.4420              1248.0252              1257.5666
 Red. masses --      2.3731                 2.1649                 2.5242
 Frc consts  --      2.1341                 1.9867                 2.3520
 IR Inten    --      3.0544                 2.2857                 0.4988

                     43                     44                     45
                      A                      A                      A
 Frequencies --   1270.6577              1290.3187              1322.7174
 Red. masses --      2.7079                 2.1108                 1.8338
 Frc consts  --      2.5760                 2.0705                 1.8904
 IR Inten    --      7.2976                 4.4998                 8.5693

                     46                     47                     48
                      A                      A                      A
 Frequencies --   1333.5201              1380.9609              1387.6516
 Red. masses --      1.8234                 1.8112                 1.4798
 Frc consts  --      1.9105                 2.0350                 1.6789
 IR Inten    --      3.5074                 8.0484                 0.0937

                     49                     50                     51
                      A                      A                      A
 Frequencies --   1400.4006              1417.8634              1423.0045
 Red. masses --      1.4724                 1.2216                 1.8714
 Frc consts  --      1.7013                 1.4469                 2.2327
 IR Inten    --      4.1978                 5.2803                 2.0108

                     52                     53                     54
                      A                      A                      A
 Frequencies --   1433.2366              1449.2781              1482.5767
 Red. masses --      1.4363                 1.5565                 3.0657
 Frc consts  --      1.7383                 1.9262                 3.9702
 IR Inten    --      1.0278                 9.0958               147.6437

                     55                     56                     57
                      A                      A                      A
 Frequencies --   1505.5690              1508.8880              1509.2652
 Red. masses --      1.1105                 1.0543                 1.0950
 Frc consts  --      1.4832                 1.4143                 1.4696
 IR Inten    --      6.0334                 5.7695                 5.2863

                     58                     59                     60
                      A                      A                      A
 Frequencies --   1511.9480              1518.5500              1527.1995
 Red. masses --      1.1367                 1.0688                 1.0559
 Frc consts  --      1.5310                 1.4521                 1.4510
 IR Inten    --     17.4014                 2.0588                 7.3558

                     61                     62                     63
                      A                      A                      A
 Frequencies --   1528.5532              1531.8571              1547.4083
 Red. masses --      1.0780                 1.0782                 1.0751
 Frc consts  --      1.4840                 1.4907                 1.5168
 IR Inten    --      3.0274                 8.2552                 5.9686

                     64                     65                     66
                      A                      A                      A
 Frequencies --   1598.9957              1638.6838              3018.7614
 Red. masses --      7.0316                 6.1885                 1.0679
 Frc consts  --     10.5925                 9.7910                 5.7339
 IR Inten    --     95.5712               100.2075                20.0349

                     67                     68                     69
                      A                      A                      A
 Frequencies --   3028.3417              3046.9387              3049.9289
 Red. masses --      1.0649                 1.0449                 1.0526
 Frc consts  --      5.7542                 5.7154                 5.7687
 IR Inten    --     24.5999                 7.6738                34.6173

                     70                     71                     72
                      A                      A                      A
 Frequencies --   3052.7313              3061.6969              3069.7468
 Red. masses --      1.0412                 1.0378                 1.0931
 Frc consts  --      5.7170                 5.7316                 6.0688
 IR Inten    --     26.7024                13.1167                34.7642

                     73                     74                     75
                      A                      A                      A
 Frequencies --   3078.5844              3092.5452              3110.9230
 Red. masses --      1.0944                 1.1044                 1.1025
 Frc consts  --      6.1112                 6.2230                 6.2864
 IR Inten    --     50.1255                47.1204                33.2720

                     76                     77                     78
                      A                      A                      A
 Frequencies --   3116.8988              3117.0959              3138.5161
 Red. masses --      1.1015                 1.1004                 1.1016
 Frc consts  --      6.3049                 6.2992                 6.3931
 IR Inten    --     37.4551                17.9870                12.7870

                     79                     80                     81
                      A                      A                      A
 Frequencies --   3145.0807              3152.4467              3167.4069
 Red. masses --      1.0905                 1.0996                 1.1020
 Frc consts  --      6.3553                 6.4382                 6.5136
 IR Inten    --     36.9418                16.5607                 8.9841

 - Thermochemistry -
 -------------------
 Temperature   298.150 Kelvin.  Pressure   1.00000 Atm.
 Atom     1 has atomic number  6 and mass  12.00000

 Molecular mass:   176.13135 amu.
 Principal axes and moments of inertia in atomic units:
                           1         2         3
     Eigenvalues --  1399.280422605.891563556.25759
           X            0.99982   0.01922   0.00014
           Y           -0.01922   0.99982   0.00055
           Z           -0.00013  -0.00055   1.00000
 This molecule is an asymmetric top.
 Rotational symmetry number  1.
 Warning -- assumption of classical behavior for rotation
           may cause significant error
 Rotational temperatures (Kelvin)      0.06190     0.03324     0.02436
 Rotational constants (GHZ):           1.28976     0.69256     0.50748
 Zero-point vibrational energy     669188.7 (Joules/Mol)
                                  159.93994 (Kcal/Mol)
 Warning -- explicit consideration of  19 degrees of freedom as
           vibrations may cause significant error
 Vibrational temperatures:     51.77    90.60   150.07   198.67   307.47
          (Kelvin)            340.69   374.23   390.98   426.73   447.56
                              496.90   530.89   553.07   618.17   658.36
                              666.08   737.94   794.02   844.47   951.21
                             1035.45  1072.07  1170.52  1193.81  1259.94
                             1293.62  1339.66  1379.56  1390.37  1399.09
                             1416.53  1479.84  1490.42  1531.24  1544.89
                             1552.17  1648.93  1661.95  1726.70  1777.53
                             1795.63  1809.36  1828.19  1856.48  1903.10
                             1918.64  1986.89  1996.52  2014.86  2039.99
                             2047.39  2062.11  2085.19  2133.10  2166.18
                             2170.95  2171.50  2175.36  2184.85  2197.30
                             2199.25  2204.00  2226.38  2300.60  2357.70
                             4343.32  4357.11  4383.87  4388.17  4392.20
                             4405.10  4416.68  4429.40  4449.48  4475.92
                             4484.52  4484.81  4515.62  4525.07  4535.67
                             4557.19

 Zero-point correction=                           0.254881 (Hartree/Particle)
 Thermal correction to Energy=                    0.267171
 Thermal correction to Enthalpy=                  0.268115
 Thermal correction to Gibbs Free Energy=         0.216485
 Sum of electronic and zero-point Energies=           -538.138465
 Sum of electronic and thermal Energies=              -538.126174
 Sum of electronic and thermal Enthalpies=            -538.125230
 Sum of electronic and thermal Free Energies=         -538.176860

                     E (Thermal)             CV                S
                      KCal/Mol        Cal/Mol-Kelvin    Cal/Mol-Kelvin
 Total                  167.652             48.035            108.665
 Electronic               0.000              0.000              0.000
 Translational            0.889              2.981             41.405
 Rotational               0.889              2.981             30.940
 Vibrational            165.875             42.073             36.320
 Vibration     1          0.594              1.982              5.469
 Vibration     2          0.597              1.972              4.362
 Vibration     3          0.605              1.946              3.372
 Vibration     4          0.614              1.915              2.830
 Vibration     5          0.644              1.820              2.012
 Vibration     6          0.656              1.784              1.827
 Vibration     7          0.668              1.746              1.661
 Vibration     8          0.675              1.725              1.585
 Vibration     9          0.690              1.680              1.436
 Vibration    10          0.700              1.653              1.357
 Vibration    11          0.724              1.585              1.187
 Vibration    12          0.741              1.536              1.084
 Vibration    13          0.753              1.503              1.022
 Vibration    14          0.791              1.406              0.860
 Vibration    15          0.816              1.344              0.773
 Vibration    16          0.821              1.332              0.758
 Vibration    17          0.868              1.221              0.627
 Vibration    18          0.907              1.136              0.540
 Vibration    19          0.944              1.060              0.473

 Optimization completed.
    -- Stationary point found.
 Normal termination of Gaussian 16 at Wed Dec  9 22:49:44 2020.

 ----------------------------------------------------------------------
 # B3LYP/6-311++G(d,p) empiricaldispersion=gd3bj scf=xqc pop=npa geom=c
 heck
 ----------------------------------------------------------------------

 ---------------------------------------
 CID_144535833_JID_3260_Energie_neutraal
 ---------------------------------------
 Structure from the checkpoint file:  "JID_3260.chk"
 Charge =  0 Multiplicity = 1

 SCF Done:  E(RB3LYP) =  -538.531551469     A.U. after   15 cycles
 Normal termination of Gaussian 16 at Wed Dec  9 22:53:58 2020.

 ----------------------------------------------------------------------
 # B3LYP/6-311++G(d,p) empiricaldispersion=gd3bj scf=xqc pop=npa geom=c
 heck
 ----------------------------------------------------------------------

 -------------------------------------
 CID_144535833_JID_3260_Energie_kation
 -------------------------------------
 Structure from the checkpoint file:  "JID_3260.chk"
 Charge =  1 Multiplicity = 2

 SCF Done:  E(UB3LYP) =  -538.213115208     A.U. after   24 cycles
 Normal termination of Gaussian 16 at Wed Dec  9 23:03:26 2020.
 Gaussian 16:  ES64L-G16RevA.03 25-Dec-2016

 ----------------------------------------------------------------------
 # B3LYP/6-311++G(d,p) empiricaldispersion=gd3bj scf=xqc pop=npa geom=c
 heck
 ----------------------------------------------------------------------

 ------------------------------------
 CID_144535833_JID_3260_Energie_anion
 ------------------------------------
 Structure from the checkpoint file:  "JID_3260.chk"
 Charge = -1 Multiplicity = 2

                         Standard orientation:
 ---------------------------------------------------------------------
 Center     Atomic      Atomic             Coordinates (Angstroms)
 Number     Number       Type             X           Y           Z
 ---------------------------------------------------------------------
      1          6           0       -3.596943   -0.966544    0.087045
      2          6           0       -2.321447   -0.171881    0.024483
      3          7           0       -2.439524    1.168347   -0.005575
      4          6           0       -1.296902    1.850329   -0.060367
      5          6           0       -0.032089    1.255866   -0.095083
      6          6           0        1.231570    2.080339   -0.158804
      7          6           0        2.444193    1.285403    0.333705
      8          6           0        2.487708   -0.073516   -0.369113
      9          6           0        1.266461   -0.964585   -0.048322
     10          6           0       -0.022273   -0.144967   -0.060223
     11          7           0       -1.168331   -0.845259    0.006491
     12          6           0        1.170823   -2.091847   -1.092816
     13          6           0        1.409384   -1.594576    1.354792
     14          1           0       -3.375805   -2.034687    0.120373
     15          1           0       -4.222038   -0.750783   -0.786693
     16          1           0       -4.177630   -0.684809    0.972301
     17          1           0       -1.384816    2.937832   -0.072427
     18          1           0        1.101932    3.003325    0.419900
     19          1           0        1.408107    2.394484   -1.198368
     20          1           0        2.379619    1.148603    1.420506
     21          1           0        3.365267    1.846520    0.139744
     22          1           0        2.530057    0.097517   -1.454190
     23          1           0        3.401064   -0.620162   -0.105092
     24          1           0        2.090884   -2.687964   -1.084764
     25          1           0        0.322200   -2.745421   -0.879182
     26          1           0        1.039720   -1.681653   -2.100734
     27          1           0        1.524948   -0.831672    2.132215
     28          1           0        0.521126   -2.186656    1.592580
     29          1           0        2.287436   -2.250221    1.385627
 ---------------------------------------------------------------------

 SCF Done:  E(UB3LYP) =  -538.519614015     A.U. after   33 cycles
 SCF Done:  E(UB3LYP) =  -538.519614015     a.u. after    1 cycles

 The electronic state is 2-A.
 Alpha  occ. eigenvalues --  -14.16854 -14.16787 -10.10985 -10.07313 -10.07100
 Alpha  occ. eigenvalues --  -10.06708 -10.05596 -10.05451 -10.05412 -10.05052
 Alpha  occ. eigenvalues --  -10.04759 -10.04351 -10.04050  -0.84808  -0.75526
 Alpha  occ. eigenvalues --   -0.72010  -0.67032  -0.65225  -0.60036  -0.57069
 Alpha  occ. eigenvalues --   -0.55659  -0.52532  -0.49774  -0.46936  -0.42327
 Alpha  occ. eigenvalues --   -0.39302  -0.36668  -0.34902  -0.32579  -0.32109
 Alpha  occ. eigenvalues --   -0.31587  -0.31177  -0.30617  -0.29226  -0.28075
 Alpha  occ. eigenvalues --   -0.27161  -0.26456  -0.25893  -0.25091  -0.23849
 Alpha  occ. eigenvalues --   -0.23448  -0.21147  -0.20619  -0.20441  -0.17422
 Alpha  occ. eigenvalues --   -0.16451  -0.13110  -0.11349   0.05197
 Alpha virt. eigenvalues --    0.07280   0.08100   0.08435   0.08986   0.09494
 Alpha virt. eigenvalues --    0.10325   0.10621   0.10920   0.11273   0.12190
 Alpha virt. eigenvalues --    0.12410   0.12753   0.13600   0.14159   0.14364

  Beta  occ. eigenvalues --  -14.16705 -14.16577 -10.11022 -10.07046 -10.06897
  Beta  occ. eigenvalues --  -10.06727 -10.05575 -10.05528 -10.05410 -10.05031
  Beta  occ. eigenvalues --  -10.04733 -10.04329 -10.04023  -0.84503  -0.75128
  Beta  occ. eigenvalues --   -0.71873  -0.66963  -0.65120  -0.59982  -0.57006
  Beta  occ. eigenvalues --   -0.55539  -0.52079  -0.49685  -0.46849  -0.42220
  Beta  occ. eigenvalues --   -0.39146  -0.36580  -0.34845  -0.32332  -0.32037
  Beta  occ. eigenvalues --   -0.31484  -0.31074  -0.30573  -0.29045  -0.28026
  Beta  occ. eigenvalues --   -0.27112  -0.26365  -0.25619  -0.24976  -0.23766
  Beta  occ. eigenvalues --   -0.23257  -0.20996  -0.20492  -0.20361  -0.16288
  Beta  occ. eigenvalues --   -0.16156  -0.12516  -0.11139
  Beta virt. eigenvalues --    0.07674   0.08392   0.08786   0.09193   0.09707
  Beta virt. eigenvalues --    0.10015   0.10541   0.10892   0.11226   0.11450
  Beta virt. eigenvalues --    0.12218   0.12635   0.13054   0.13717   0.14344

 Mulliken charges and spin densities:
               1          2
     1  C   -0.157637  -0.309185
     2  C    0.097416  -0.052814
     3  N   -0.096016   0.095421
     4  C    0.239945  -0.280211
     5  C    0.454635   0.132974
     6  C   -0.644161  -0.213099
     7  C    0.388927  -0.721325
     8  C   -0.352432  -0.021871
     9  C    0.058966   1.056507
    10  C   -0.486853  -0.403558
    11  N    0.106374   0.082305
    12  C    0.262232  -0.864711
    13  C   -0.065498  -0.619422
    14  H    0.127318   0.011160
    15  H    0.101367   0.040248
    16  H    0.138447   0.002678
    17  H   -0.007853   0.157247
    18  H   -0.232826   0.374428
    19  H    0.099037   0.055132
    20  H    0.045219   0.075917
    21  H   -0.889579   1.076114
    22  H   -0.057326   0.190910
    23  H   -0.317573   0.481605
    24  H   -0.152852   0.299201
    25  H    0.149567  -0.013906
    26  H   -0.042188   0.177261
    27  H    0.049155   0.070210
    28  H    0.156484   0.000665
    29  H    0.027706   0.120120
 Sum of Mulliken charges =  -1.00000   1.00000

 Dipole moment (field-independent basis, Debye):
    X=             -3.9034    Y=             -2.4127    Z=             -0.0357  Tot=              4.5890
 Quadrupole moment (field-independent basis, Debye-Ang):
   XX=           -138.6922   YY=           -116.3482   ZZ=           -100.1709
   XY=             -0.9049   XZ=              1.2468   YZ=             -4.5990

 Summary of Natural Population Analysis:

                                       Natural Population
                Natural  -----------------------------------------------
    Atom  No    Charge         Core      Valence    Rydberg      Total
 -----------------------------------------------------------------------
      C    1   -0.29938      0.99963     2.29434    0.00541     3.29938
      C    2    0.20514      0.99963     1.77856    0.01668     2.79486
      N    3   -0.23885      0.99968     2.72806    0.01111     3.73885
      C    4    0.08278      0.99954     1.90313    0.01455     2.91722
      C    5   -0.06891      0.99945     2.06076    0.00871     3.06891
      C    6   -0.19153      0.99961     2.18245    0.00947     3.19153
      C    7   -0.18809      0.99963     2.17917    0.00929     3.18809
      C    8   -0.18447      0.99960     2.17420    0.01066     3.18447
      C    9   -0.05885      0.99955     2.04681    0.01250     3.05885
      C   10    0.17498      0.99945     1.81106    0.01452     2.82502
      N   11   -0.25018      0.99964     2.74055    0.00999     3.75018
      C   12   -0.27925      0.99963     2.27217    0.00744     3.27925
      C   13   -0.27683      0.99962     2.27179    0.00542     3.27683
      H   14    0.10286      0.00000     0.39622    0.00092     0.39714
      H   15    0.10134      0.00000     0.39745    0.00120     0.39866
      H   16    0.10134      0.00000     0.39750    0.00116     0.39866
      H   17    0.08032      0.00000     0.41777    0.00191     0.41968
      H   18    0.10237      0.00000     0.39614    0.00149     0.39763
      H   19    0.09754      0.00000     0.40118    0.00127     0.40246
      H   20    0.09412      0.00000     0.40426    0.00162     0.40588
      H   21    0.09986      0.00000     0.39839    0.00175     0.40014
      H   22    0.09619      0.00000     0.40241    0.00140     0.40381
      H   23    0.09970      0.00000     0.39864    0.00166     0.40030
      H   24    0.09480      0.00000     0.40432    0.00088     0.40520
      H   25    0.10701      0.00000     0.39193    0.00106     0.39299
      H   26    0.09869      0.00000     0.40052    0.00079     0.40131
      H   27    0.09825      0.00000     0.40076    0.00099     0.40175
      H   28    0.10506      0.00000     0.39398    0.00096     0.39494
      H   29    0.09399      0.00000     0.40516    0.00085     0.40601
 =======================================================================
   * Total *    0.00000     12.99465    34.84969    0.15565    48.00000

 Normal termination of Gaussian 16 at Wed Dec  9 23:16:27 2020.
