 Gaussian 16, Revision A.03,

 -----------------------------------------------------------
 # opt freq B3LYP/6-31G(d) empiricaldispersion=gd3bj scf=xqc
 -----------------------------------------------------------

 ------------------------------
 CID_67202991_JID_4103_neutraal
 ------------------------------
 Symbolic Z-matrix:
 Charge =  0 Multiplicity = 1

 SCF Done:  E(RB3LYP) =  -608.732464836     A.U. after   15 cycles
 SCF Done:  E(RB3LYP) =  -608.737777876     A.U. after   12 cycles
 SCF Done:  E(RB3LYP) =  -608.738118158     A.U. after   11 cycles
 SCF Done:  E(RB3LYP) =  -608.737745268     A.U. after   12 cycles
 SCF Done:  E(RB3LYP) =  -608.738179263     A.U. after   11 cycles
 Optimization completed.
    -- Stationary point found.
 Normal termination of Gaussian 16 at Sun Dec 13 20:01:48 2020.

 --------------------------------------------------------------------
 #N Geom=AllCheck Guess=TCheck SCRF=Check GenChk RB3LYP/6-31G(d) Freq
 --------------------------------------------------------------------

 Structure from the checkpoint file:  "JID_4103.chk"
 ------------------------------
 CID_67202991_JID_4103_neutraal
 ------------------------------
 Charge =  0 Multiplicity = 1

 SCF Done:  E(RB3LYP) =  -608.738179263     A.U. after    2 cycles

  Exact polarizability: 210.289  -8.046 145.569  -0.174  -0.058  48.293
 Approx polarizability: 362.678  -6.108 264.236  -0.038   0.167  77.678

 ******    1 imaginary frequencies (negative Signs) ******

                      1                      2                      3
                      A                      A                      A
 Frequencies --    -15.6121               106.3008               154.3433
 Red. masses --      3.6214                 5.4069                 3.4067
 Frc consts  --      0.0005                 0.0360                 0.0478
 IR Inten    --      6.1431                 4.2535                 0.0086

                      4                      5                      6
                      A                      A                      A
 Frequencies --    211.4086               228.3954               259.2371
 Red. masses --      6.1183                 3.0458                 4.9731
 Frc consts  --      0.1611                 0.0936                 0.1969
 IR Inten    --      1.4704                 1.3274                 5.5071

                      7                      8                      9
                      A                      A                      A
 Frequencies --    332.1167               396.2392               435.6106
 Red. masses --      3.6388                 7.3272                 7.1524
 Frc consts  --      0.2365                 0.6778                 0.7997
 IR Inten    --      0.0011                 9.9873                 1.0744

                     10                     11                     12
                      A                      A                      A
 Frequencies --    455.9882               484.1690               535.8675
 Red. masses --      6.4345                 1.4336                 2.8619
 Frc consts  --      0.7883                 0.1980                 0.4842
 IR Inten    --      6.8151                76.0282                 2.3833

                     13                     14                     15
                      A                      A                      A
 Frequencies --    544.2032               562.8698               611.0565
 Red. masses --      4.8242                 2.7828                 7.1184
 Frc consts  --      0.8418                 0.5195                 1.5660
 IR Inten    --      7.2698                 3.8914                 0.9012

                     16                     17                     18
                      A                      A                      A
 Frequencies --    630.0802               657.3990               664.6380
 Red. masses --      3.0699                 6.3390                 2.7921
 Frc consts  --      0.7181                 1.6141                 0.7267
 IR Inten    --      1.8087                 0.3799                 4.9510

                     19                     20                     21
                      A                      A                      A
 Frequencies --    722.9510               723.6555               781.1283
 Red. masses --      6.5867                 1.3044                 1.6361
 Frc consts  --      2.0283                 0.4024                 0.5882
 IR Inten    --      1.4619                62.3625                 1.2068

                     22                     23                     24
                      A                      A                      A
 Frequencies --    804.1818               838.0173               848.3071
 Red. masses --      4.8884                 5.1726                 1.4971
 Frc consts  --      1.8626                 2.1403                 0.6348
 IR Inten    --      0.0109                 9.3824                41.2437

                     25                     26                     27
                      A                      A                      A
 Frequencies --    854.6006               884.0680               920.9601
 Red. masses --      6.5522                 1.4095                 5.1227
 Frc consts  --      2.8195                 0.6491                 2.5599
 IR Inten    --      5.0085                 3.7352                 9.1769

                     28                     29                     30
                      A                      A                      A
 Frequencies --    946.1613               964.3872              1011.4635
 Red. masses --      1.3439                 2.2036                 2.5373
 Frc consts  --      0.7088                 1.2075                 1.5294
 IR Inten    --      0.0177                 0.0523                 2.5703

                     31                     32                     33
                      A                      A                      A
 Frequencies --   1036.9895              1098.3001              1113.7535
 Red. masses --      1.7622                 1.9859                 1.6124
 Frc consts  --      1.1165                 1.4114                 1.1784
 IR Inten    --     31.6005                30.3359                 2.8855

                     34                     35                     36
                      A                      A                      A
 Frequencies --   1147.6470              1197.5234              1201.6704
 Red. masses --      1.6508                 1.2272                 2.3727
 Frc consts  --      1.2811                 1.0369                 2.0187
 IR Inten    --      4.7371                15.1024                65.9760

                     37                     38                     39
                      A                      A                      A
 Frequencies --   1216.6996              1261.7227              1286.8112
 Red. masses --      2.2953                 2.7549                 1.7901
 Frc consts  --      2.0020                 2.5840                 1.7464
 IR Inten    --     69.9194                82.4168                20.5873

                     40                     41                     42
                      A                      A                      A
 Frequencies --   1348.0000              1354.4538              1393.8975
 Red. masses --      2.2107                 1.8055                 2.7398
 Frc consts  --      2.3668                 1.9516                 3.1364
 IR Inten    --     29.7614                 0.4766                35.7496

                     43                     44                     45
                      A                      A                      A
 Frequencies --   1434.6726              1446.0647              1462.3957
 Red. masses --      1.1361                 1.7905                 5.4847
 Frc consts  --      1.3777                 2.2060                 6.9108
 IR Inten    --     11.0067                10.3278                 5.1370

                     46                     47                     48
                      A                      A                      A
 Frequencies --   1516.9790              1529.0013              1560.2165
 Red. masses --      4.3801                 6.2819                10.4090
 Frc consts  --      5.9388                 8.6528                14.9290
 IR Inten    --     20.7694                80.5204               396.8264

                     49                     50                     51
                      A                      A                      A
 Frequencies --   1609.7637              1654.5383              1705.6328
 Red. masses --      4.2472                 6.1753                 7.2784
 Frc consts  --      6.4844                 9.9600                12.4755
 IR Inten    --     16.5814                18.4499               234.0385

                     52                     53                     54
                      A                      A                      A
 Frequencies --   1782.1963              3030.7205              3055.4373
 Red. masses --     12.6748                 1.0641                 1.0954
 Frc consts  --     23.7194                 5.7587                 6.0253
 IR Inten    --    285.4623                 1.7828                 2.1992

                     55                     56                     57
                      A                      A                      A
 Frequencies --   3162.9243              3188.4109              3206.9105
 Red. masses --      1.0905                 1.0862                 1.0969
 Frc consts  --      6.4277                 6.5059                 6.6467
 IR Inten    --     14.9109                 0.6175                23.1251

                     58                     59                     60
                      A                      A                      A
 Frequencies --   3279.1906              3298.5030              3658.6187
 Red. masses --      1.0912                 1.1032                 1.0803
 Frc consts  --      6.9134                 7.0721                 8.5197
 IR Inten    --      0.3543                 2.5477                83.9689

 - Thermochemistry -
 -------------------
 Temperature   298.150 Kelvin.  Pressure   1.00000 Atm.
 Atom     1 has atomic number  6 and mass  12.00000

 Molecular mass:   184.06366 amu.
 Principal axes and moments of inertia in atomic units:
                           1         2         3
     Eigenvalues --  1238.435893312.106324539.29418
           X            0.99968  -0.02545  -0.00047
           Y            0.02545   0.99968  -0.00032
           Z            0.00048   0.00031   1.00000
 This molecule is an asymmetric top.
 Rotational symmetry number  1.
 Warning -- assumption of classical behavior for rotation
           may cause significant error
 Rotational temperatures (Kelvin)      0.06994     0.02615     0.01908
 Rotational constants (GHZ):           1.45727     0.54489     0.39758
    1 imaginary frequencies ignored.
 Zero-point vibrational energy     441478.6 (Joules/Mol)
                                  105.51591 (Kcal/Mol)
 Warning -- explicit consideration of  14 degrees of freedom as
           vibrations may cause significant error
 Vibrational temperatures:    152.94   222.07   304.17   328.61   372.98
          (Kelvin)            477.84   570.10   626.75   656.07   696.61
                              770.99   782.99   809.84   879.17   906.54
                              945.85   956.27  1040.17  1041.18  1123.87
                             1157.04  1205.72  1220.52  1229.58  1271.98
                             1325.06  1361.32  1387.54  1455.27  1492.00
                             1580.21  1602.44  1651.21  1722.97  1728.94
                             1750.56  1815.34  1851.43  1939.47  1948.76
                             2005.51  2064.17  2080.56  2104.06  2182.59
                             2199.89  2244.80  2316.09  2380.51  2454.03
                             2564.18  4360.53  4396.09  4550.74  4587.41
                             4614.03  4718.02  4745.81  5263.94

 Zero-point correction=                           0.168150 (Hartree/Particle)
 Thermal correction to Energy=                    0.177510
 Thermal correction to Enthalpy=                  0.178454
 Thermal correction to Gibbs Free Energy=         0.133410
 Sum of electronic and zero-point Energies=           -608.570029
 Sum of electronic and thermal Energies=              -608.560670
 Sum of electronic and thermal Enthalpies=            -608.559725
 Sum of electronic and thermal Free Energies=         -608.604770

                     E (Thermal)             CV                S
                      KCal/Mol        Cal/Mol-Kelvin    Cal/Mol-Kelvin
 Total                  111.389             39.394             94.804
 Electronic               0.000              0.000              0.000
 Translational            0.889              2.981             41.537
 Rotational               0.889              2.981             31.299
 Vibrational            109.612             33.432             21.968
 Vibration     1          0.605              1.944              3.335
 Vibration     2          0.620              1.898              2.618
 Vibration     3          0.643              1.823              2.031
 Vibration     4          0.651              1.798              1.892
 Vibration     5          0.668              1.747              1.667
 Vibration     6          0.714              1.611              1.250
 Vibration     7          0.763              1.478              0.977
 Vibration     8          0.796              1.393              0.841
 Vibration     9          0.814              1.348              0.778
 Vibration    10          0.840              1.285              0.699
 Vibration    11          0.891              1.171              0.574
 Vibration    12          0.899              1.152              0.556
 Vibration    13          0.919              1.112              0.518
 Vibration    14          0.970              1.008              0.431

                           ! Non-Optimized Parameters !
 Normal termination of Gaussian 16 at Sun Dec 13 20:07:54 2020.

 ----------------------------------------------------------------------
 # B3LYP/6-311++G(d,p) empiricaldispersion=gd3bj scf=xqc pop=npa geom=c
 heck
 ----------------------------------------------------------------------

 --------------------------------------
 CID_67202991_JID_4103_Energie_neutraal
 --------------------------------------
 Structure from the checkpoint file:  "JID_4103.chk"
 Charge =  0 Multiplicity = 1

 SCF Done:  E(RB3LYP) =  -608.899945146     A.U. after   16 cycles
 Normal termination of Gaussian 16 at Sun Dec 13 20:10:35 2020.

 ----------------------------------------------------------------------
 # B3LYP/6-311++G(d,p) empiricaldispersion=gd3bj scf=xqc pop=npa geom=c
 heck
 ----------------------------------------------------------------------

 ------------------------------------
 CID_67202991_JID_4103_Energie_kation
 ------------------------------------
 Structure from the checkpoint file:  "JID_4103.chk"
 Charge =  1 Multiplicity = 2

 SCF Done:  E(UB3LYP) =  -608.623253908     A.U. after   25 cycles
 Normal termination of Gaussian 16 at Sun Dec 13 20:16:32 2020.
 Gaussian 16:  ES64L-G16RevA.03 25-Dec-2016

 ----------------------------------------------------------------------
 # B3LYP/6-311++G(d,p) empiricaldispersion=gd3bj scf=xqc pop=npa geom=c
 heck
 ----------------------------------------------------------------------

 -----------------------------------
 CID_67202991_JID_4103_Energie_anion
 -----------------------------------
 Structure from the checkpoint file:  "JID_4103.chk"
 Charge = -1 Multiplicity = 2

                         Standard orientation:
 ---------------------------------------------------------------------
 Center     Atomic      Atomic             Coordinates (Angstroms)
 Number     Number       Type             X           Y           Z
 ---------------------------------------------------------------------
      1          6           0       -3.019401    0.583689    0.032689
      2          6           0       -1.936031    1.601285    0.011560
      3          6           0       -0.633123    1.240023   -0.002423
      4          6           0        0.437796    2.226997   -0.015378
      5          6           0        1.744447    1.866580   -0.015884
      6          6           0        2.049601    0.465870   -0.004172
      7          6           0        1.079901   -0.546462    0.005175
      8          6           0       -0.320494   -0.220554    0.002758
      9          7           0       -1.204967   -1.187178    0.004050
     10          6           0       -2.564325   -0.883331   -0.006057
     11          8           0       -3.408555   -1.762852   -0.039178
     12          6           0        1.762008   -1.800057    0.013046
     13          6           0        3.107624   -1.523810    0.008866
     14          7           0        3.272894   -0.146430   -0.001661
     15          1           0       -3.642836    0.717440    0.929505
     16          1           0       -3.712748    0.744180   -0.805129
     17          1           0       -2.212170    2.655056    0.012948
     18          1           0        0.152023    3.275045   -0.022758
     19          1           0        2.538946    2.607163   -0.024593
     20          1           0        1.295341   -2.773390    0.020408
     21          1           0        3.965052   -2.180397    0.012401
     22          1           0        4.161320    0.331596   -0.007163
 ---------------------------------------------------------------------

 SCF Done:  E(UB3LYP) =  -608.944121351     A.U. after   22 cycles

 The electronic state is 2-A.
 Alpha  occ. eigenvalues --  -18.92149 -14.23567 -14.11705 -10.09682 -10.07687
 Alpha  occ. eigenvalues --  -10.06803 -10.05636 -10.03686 -10.03479 -10.03253
 Alpha  occ. eigenvalues --  -10.03000 -10.02584 -10.02161 -10.01592  -0.86771
 Alpha  occ. eigenvalues --   -0.85884  -0.75603  -0.68626  -0.65793  -0.64074
 Alpha  occ. eigenvalues --   -0.58997  -0.57257  -0.50731  -0.47124  -0.46747
 Alpha  occ. eigenvalues --   -0.43419  -0.41341  -0.38256  -0.34491  -0.32393
 Alpha  occ. eigenvalues --   -0.31840  -0.30753  -0.30234  -0.29711  -0.29108
 Alpha  occ. eigenvalues --   -0.26897  -0.25143  -0.24798  -0.22792  -0.22506
 Alpha  occ. eigenvalues --   -0.21056  -0.20904  -0.16636  -0.12404  -0.11258
 Alpha  occ. eigenvalues --   -0.10533  -0.07663  -0.06198   0.01523
 Alpha virt. eigenvalues --    0.07164   0.08881   0.09788   0.10947   0.11279
 Alpha virt. eigenvalues --    0.12129   0.12950   0.13460   0.14514   0.15274
 Alpha virt. eigenvalues --    0.15425   0.15714   0.16935   0.17774   0.18342

  Beta  occ. eigenvalues --  -18.92038 -14.23477 -14.11587 -10.09630 -10.07748
  Beta  occ. eigenvalues --  -10.06640 -10.05361 -10.03687 -10.03246 -10.03190
  Beta  occ. eigenvalues --  -10.03061 -10.02737 -10.02210 -10.00867  -0.86557
  Beta  occ. eigenvalues --   -0.85730  -0.75199  -0.68293  -0.65514  -0.63510
  Beta  occ. eigenvalues --   -0.58755  -0.56996  -0.50315  -0.46884  -0.46359
  Beta  occ. eigenvalues --   -0.43065  -0.41011  -0.38114  -0.34378  -0.32199
  Beta  occ. eigenvalues --   -0.31624  -0.30105  -0.29997  -0.29185  -0.28857
  Beta  occ. eigenvalues --   -0.26790  -0.24936  -0.24572  -0.22568  -0.21571
  Beta  occ. eigenvalues --   -0.20679  -0.20067  -0.15812  -0.11226  -0.10503
  Beta  occ. eigenvalues --   -0.10345  -0.07563  -0.04977
  Beta virt. eigenvalues --    0.07161   0.08122   0.08882   0.09797   0.10946
  Beta virt. eigenvalues --    0.12138   0.12249   0.13044   0.13467   0.14523
  Beta virt. eigenvalues --    0.15427   0.15732   0.16020   0.17069   0.17778

 Mulliken charges and spin densities:
               1          2
     1  C   -0.815756  -0.060992
     2  C    0.472138   0.641355
     3  C    0.739146  -0.184632
     4  C   -0.187682   0.185894
     5  C   -0.312582  -0.019553
     6  C   -0.228429   0.115818
     7  C   -0.534334  -0.060962
     8  C   -0.884498   0.141929
     9  N   -0.112346   0.067432
    10  C    0.296527   0.038173
    11  O   -0.389753   0.045035
    12  C    0.222257   0.067681
    13  C   -0.258004  -0.042759
    14  N   -0.098060   0.030825
    15  H    0.131340   0.046529
    16  H    0.133471   0.040416
    17  H    0.099782  -0.033957
    18  H    0.075870  -0.015011
    19  H    0.094341  -0.001239
    20  H    0.168886  -0.003282
    21  H    0.123170   0.003260
    22  H    0.264517  -0.001958
 Sum of Mulliken charges =  -1.00000   1.00000

 Dipole moment (field-independent basis, Debye):
    X=              7.3827    Y=              4.4913    Z=              0.0909  Tot=              8.6420
 Quadrupole moment (field-independent basis, Debye-Ang):
   XX=           -105.7115   YY=           -100.8682   ZZ=            -89.5171
   XY=            -13.5398   XZ=             -0.3822   YZ=             -0.2082

 Summary of Natural Population Analysis:

                                       Natural Population
                Natural  -----------------------------------------------
    Atom  No    Charge         Core      Valence    Rydberg      Total
 -----------------------------------------------------------------------
      C    1   -0.26640      0.99959     2.25852    0.00829     3.26640
      C    2    0.13330      0.99952     1.85939    0.00779     2.86670
      C    3   -0.11614      0.99946     2.10785    0.00884     3.11614
      C    4   -0.02611      0.99955     2.01736    0.00920     3.02611
      C    5   -0.14921      0.99953     2.14038    0.00929     3.14921
      C    6    0.09482      0.99954     1.88942    0.01622     2.90518
      C    7   -0.02952      0.99947     2.02104    0.00902     3.02952
      C    8    0.17101      0.99955     1.80736    0.02209     2.82899
      N    9   -0.28787      0.99964     2.77329    0.01494     3.78787
      C   10    0.34303      0.99968     1.63433    0.02296     2.65697
      O   11   -0.31602      0.99987     3.30823    0.00792     4.31602
      C   12   -0.12014      0.99949     2.10498    0.01568     3.12014
      C   13   -0.04698      0.99950     2.03446    0.01302     3.04698
      N   14   -0.25791      0.99961     2.74935    0.00895     3.75791
      H   15    0.11989      0.00000     0.37885    0.00125     0.38011
      H   16    0.11866      0.00000     0.38005    0.00129     0.38134
      H   17    0.07250      0.00000     0.42564    0.00186     0.42750
      H   18    0.08584      0.00000     0.41212    0.00204     0.41416
      H   19    0.08957      0.00000     0.40846    0.00197     0.41043
      H   20    0.10949      0.00000     0.38948    0.00103     0.39051
      H   21    0.08970      0.00000     0.40861    0.00169     0.41030
      H   22    0.18871      0.00000     0.30851    0.00279     0.31129
 =======================================================================
   * Total *    0.00022     13.99399    33.81766    0.18813    47.99978

 Normal termination of Gaussian 16 at Sun Dec 13 20:21:45 2020.
