 Gaussian 16, Revision A.03,

 -----------------------------------------------------------
 # opt freq B3LYP/6-31G(d) empiricaldispersion=gd3bj scf=xqc
 -----------------------------------------------------------

 -------------------------------
 CID_150877803_JID_1573_neutraal
 -------------------------------
 Symbolic Z-matrix:
 Charge =  0 Multiplicity = 1

 SCF Done:  E(RB3LYP) =  -1012.31241317     A.U. after   27 cycles
 SCF Done:  E(RB3LYP) =  -1012.36087896     A.U. after   18 cycles
 SCF Done:  E(RB3LYP) =  -1012.45109965     A.U. after   18 cycles
 SCF Done:  E(RB3LYP) =  -1012.48662449     A.U. after   17 cycles
 SCF Done:  E(RB3LYP) =  -1012.50842679     A.U. after   17 cycles
 SCF Done:  E(RB3LYP) =  -1012.50956420     A.U. after   13 cycles
 SCF Done:  E(RB3LYP) =  -1012.51586523     A.U. after   18 cycles
 SCF Done:  E(RB3LYP) =  -1012.52012305     A.U. after   16 cycles
 SCF Done:  E(RB3LYP) =  -1012.52360345     A.U. after   16 cycles
 SCF Done:  E(RB3LYP) =  -1012.52558467     A.U. after   15 cycles
 SCF Done:  E(RB3LYP) =  -1012.53440521     A.U. after   10 cycles
 SCF Done:  E(RB3LYP) =  -1012.53441598     A.U. after   12 cycles
 SCF Done:  E(RB3LYP) =  -1012.53442107     A.U. after   11 cycles
 SCF Done:  E(RB3LYP) =  -1012.53442777     A.U. after   12 cycles
 SCF Done:  E(RB3LYP) =  -1012.53443486     A.U. after   11 cycles
 SCF Done:  E(RB3LYP) =  -1012.53443882     A.U. after   11 cycles
 Optimization completed.
    -- Stationary point found.
 Normal termination of Gaussian 16 at Tue Dec  8 20:45:50 2020.

 --------------------------------------------------------------------
 #N Geom=AllCheck Guess=TCheck SCRF=Check GenChk RB3LYP/6-31G(d) Freq
 --------------------------------------------------------------------

 Structure from the checkpoint file:  "JID_1573.chk"
 -------------------------------
 CID_150877803_JID_1573_neutraal
 -------------------------------
 Charge =  0 Multiplicity = 1

 SCF Done:  E(RB3LYP) =  -1012.53443882     A.U. after    1 cycles

  Exact polarizability: 146.386   5.716  74.965  -8.165  -8.472  61.605
 Approx polarizability: 312.143  19.707 138.413 -32.522 -38.218 139.300

                      1                      2                      3
                      A                      A                      A
 Frequencies --     29.5614                56.1480                85.4419
 Red. masses --     11.8309                12.3635                12.7371
 Frc consts  --      0.0061                 0.0230                 0.0548
 IR Inten    --      0.4221                 1.4765                 0.3884

                      4                      5                      6
                      A                      A                      A
 Frequencies --     96.2839               106.6809               146.4980
 Red. masses --     10.4092                 8.7524                12.3503
 Frc consts  --      0.0569                 0.0587                 0.1562
 IR Inten    --      4.1275                 0.9556                19.3173

                      7                      8                      9
                      A                      A                      A
 Frequencies --    159.0873               192.1577               244.7023
 Red. masses --     12.0146                 5.5785                 8.1141
 Frc consts  --      0.1792                 0.1214                 0.2863
 IR Inten    --      3.7038                 1.6274                 3.0319

                     10                     11                     12
                      A                      A                      A
 Frequencies --    283.9812               340.0893               371.2135
 Red. masses --      8.0278                 6.7178                 5.3057
 Frc consts  --      0.3814                 0.4578                 0.4308
 IR Inten    --     32.3574               221.4901                 2.5270

                     13                     14                     15
                      A                      A                      A
 Frequencies --    386.9135               411.3189               430.2427
 Red. masses --      4.4023                 7.5209                 1.6826
 Frc consts  --      0.3883                 0.7497                 0.1835
 IR Inten    --     59.2350                19.6830                61.2603

                     16                     17                     18
                      A                      A                      A
 Frequencies --    522.1665               534.9834               587.5280
 Red. masses --      2.9760                 2.0124                13.7740
 Frc consts  --      0.4781                 0.3393                 2.8014
 IR Inten    --     41.6325               123.5374                 8.1056

                     19                     20                     21
                      A                      A                      A
 Frequencies --    660.3640               686.1944               688.3284
 Red. masses --     12.0092                 4.4253                 4.0523
 Frc consts  --      3.0855                 1.2277                 1.1312
 IR Inten    --      2.9437                65.0776               100.2060

                     22                     23                     24
                      A                      A                      A
 Frequencies --    757.2708               804.2453              1020.2545
 Red. masses --      6.0297                14.3393                 1.3244
 Frc consts  --      2.0373                 5.4646                 0.8122
 IR Inten    --     72.2014                55.9903               120.6133

                     25                     26                     27
                      A                      A                      A
 Frequencies --   1167.4100              1266.9517              1286.4961
 Red. masses --      3.3328                 1.1885                 8.9138
 Frc consts  --      2.6761                 1.1240                 8.6922
 IR Inten    --    262.2318                15.0437               273.9802

                     28                     29                     30
                      A                      A                      A
 Frequencies --   1349.3638              1380.5301              1614.9877
 Red. masses --      2.2270                 7.5677                 5.8850
 Frc consts  --      2.3890                 8.4978                 9.0435
 IR Inten    --    142.7933               251.2728               309.2241

                     31                     32                     33
                      A                      A                      A
 Frequencies --   1683.5423              1878.8926              2188.3361
 Red. masses --      1.1879                12.3109                13.8831
 Frc consts  --      1.9837                25.6061                39.1710
 IR Inten    --     27.6798               210.1742               715.9168

                     34                     35                     36
                      A                      A                      A
 Frequencies --   3246.2422              3466.5759              3649.0237
 Red. masses --      1.0633                 1.0817                 1.0641
 Frc consts  --      6.6017                 7.6588                 8.3484
 IR Inten    --    101.3677                40.4080               101.7970

 - Thermochemistry -
 -------------------
 Temperature   298.150 Kelvin.  Pressure   1.00000 Atm.
 Atom     1 has atomic number  6 and mass  12.00000

 Molecular mass:   180.99058 amu.
 Principal axes and moments of inertia in atomic units:
                           1         2         3
     Eigenvalues --  1101.841872533.724422964.67214
           X            0.99999   0.00312  -0.00087
           Y           -0.00313   0.99993  -0.01163
           Z            0.00083   0.01164   0.99993
 This molecule is an asymmetric top.
 Rotational symmetry number  1.
 Warning -- assumption of classical behavior for rotation
           may cause significant error
 Rotational temperatures (Kelvin)      0.07861     0.03418     0.02922
 Rotational constants (GHZ):           1.63793     0.71229     0.60875
 Zero-point vibrational energy     202049.3 (Joules/Mol)
                                   48.29095 (Kcal/Mol)
 Warning -- explicit consideration of  18 degrees of freedom as
           vibrations may cause significant error
 Vibrational temperatures:     42.53    80.78   122.93   138.53   153.49
          (Kelvin)            210.78   228.89   276.47   352.07   408.59
                              489.31   534.09   556.68   591.80   619.02
                              751.28   769.72   845.32   950.12   987.28
                              990.35  1089.54  1157.13  1467.92  1679.64
                             1822.86  1850.98  1941.43  1986.27  2323.61
                             2422.24  2703.31  3148.53  4670.62  4987.63
                             5250.13

 Zero-point correction=                           0.076957 (Hartree/Particle)
 Thermal correction to Energy=                    0.089324
 Thermal correction to Enthalpy=                  0.090268
 Thermal correction to Gibbs Free Energy=         0.036940
 Sum of electronic and zero-point Energies=          -1012.457482
 Sum of electronic and thermal Energies=             -1012.445115
 Sum of electronic and thermal Enthalpies=           -1012.444171
 Sum of electronic and thermal Free Energies=        -1012.497499

                     E (Thermal)             CV                S
                      KCal/Mol        Cal/Mol-Kelvin    Cal/Mol-Kelvin
 Total                   56.052             41.044            112.239
 Electronic               0.000              0.000              0.000
 Translational            0.889              2.981             41.486
 Rotational               0.889              2.981             30.493
 Vibrational             54.274             35.082             40.259
 Vibration     1          0.593              1.984              5.859
 Vibration     2          0.596              1.975              4.588
 Vibration     3          0.601              1.959              3.762
 Vibration     4          0.603              1.952              3.528
 Vibration     5          0.606              1.944              3.328
 Vibration     6          0.617              1.906              2.717
 Vibration     7          0.621              1.892              2.561
 Vibration     8          0.634              1.851              2.207
 Vibration     9          0.660              1.772              1.768
 Vibration    10          0.682              1.703              1.510
 Vibration    11          0.720              1.595              1.212
 Vibration    12          0.743              1.531              1.075
 Vibration    13          0.755              1.498              1.012
 Vibration    14          0.775              1.446              0.922
 Vibration    15          0.791              1.404              0.858
 Vibration    16          0.877              1.201              0.605
 Vibration    17          0.890              1.173              0.576
 Vibration    18          0.945              1.058              0.472

                           ! Non-Optimized Parameters !
 Normal termination of Gaussian 16 at Tue Dec  8 20:48:12 2020.

 ----------------------------------------------------------------------
 # B3LYP/6-311++G(d,p) empiricaldispersion=gd3bj scf=xqc pop=npa geom=c
 heck
 ----------------------------------------------------------------------

 ---------------------------------------
 CID_150877803_JID_1573_Energie_neutraal
 ---------------------------------------
 Structure from the checkpoint file:  "JID_1573.chk"
 Charge =  0 Multiplicity = 1

 SCF Done:  E(RB3LYP) =  -1012.76804898     A.U. after   17 cycles
 Normal termination of Gaussian 16 at Tue Dec  8 20:49:35 2020.

 ----------------------------------------------------------------------
 # B3LYP/6-311++G(d,p) empiricaldispersion=gd3bj scf=xqc pop=npa geom=c
 heck
 ----------------------------------------------------------------------

 -------------------------------------
 CID_150877803_JID_1573_Energie_kation
 -------------------------------------
 Structure from the checkpoint file:  "JID_1573.chk"
 Charge =  1 Multiplicity = 2

 SCF Done:  E(UB3LYP) =  -1012.42987409     A.U. after   29 cycles
 Normal termination of Gaussian 16 at Tue Dec  8 20:52:31 2020.
 Gaussian 16:  ES64L-G16RevA.03 25-Dec-2016

 ----------------------------------------------------------------------
 # B3LYP/6-311++G(d,p) empiricaldispersion=gd3bj scf=xqc pop=npa geom=c
 heck
 ----------------------------------------------------------------------

 ------------------------------------
 CID_150877803_JID_1573_Energie_anion
 ------------------------------------
 Structure from the checkpoint file:  "JID_1573.chk"
 Charge = -1 Multiplicity = 2

                         Standard orientation:
 ---------------------------------------------------------------------
 Center     Atomic      Atomic             Coordinates (Angstroms)
 Number     Number       Type             X           Y           Z
 ---------------------------------------------------------------------
      1          6           0        0.042011    1.176601    0.438305
      2          8           0       -0.287892    1.071898    1.585742
      3          8           0        0.450830    2.239956   -0.231646
      4         16           0       -0.028474   -0.282474   -0.711500
      5          7           0       -0.354299   -1.553437    0.330843
      6          7           0       -1.891461    0.174448   -1.114252
      7          7           0       -2.683549   -0.249030   -0.270847
      8          7           0       -3.448016   -0.634218    0.492414
      9          7           0        2.115087   -0.499320   -0.100452
     10          8           0        2.921693    0.318570   -0.504725
     11          8           0        2.390482   -1.511245    0.556500
     12          1           0        0.475687    3.004017    0.379534
     13          1           0        0.562734   -1.965689    0.580001
     14          1           0       -0.800151   -1.200880    1.183728
 ---------------------------------------------------------------------

 SCF Done:  E(UB3LYP) =  -1012.81444799     A.U. after   29 cycles

 The electronic state is 2-A.
 Alpha  occ. eigenvalues --  -88.81098 -19.08176 -19.01833 -19.00381 -19.00237
 Alpha  occ. eigenvalues --  -14.32363 -14.29331 -14.21058 -14.19062 -14.18751
 Alpha  occ. eigenvalues --  -10.20628  -7.89060  -5.85275  -5.85213  -5.84727
 Alpha  occ. eigenvalues --   -1.05353  -1.02172  -0.96197  -0.93732  -0.89393
 Alpha  occ. eigenvalues --   -0.82230  -0.78529  -0.63177  -0.53219  -0.48239
 Alpha  occ. eigenvalues --   -0.42891  -0.41260  -0.39471  -0.37514  -0.36112
 Alpha  occ. eigenvalues --   -0.35481  -0.35082  -0.34169  -0.33150  -0.32865
 Alpha  occ. eigenvalues --   -0.30414  -0.28533  -0.25259  -0.23768  -0.19934
 Alpha  occ. eigenvalues --   -0.18552  -0.16945  -0.16636  -0.14316  -0.10039
 Alpha  occ. eigenvalues --   -0.09406   0.02214
 Alpha virt. eigenvalues --    0.07521   0.08456   0.10402   0.11695   0.13409
 Alpha virt. eigenvalues --    0.13627   0.14748   0.15588   0.16593   0.16757
 Alpha virt. eigenvalues --    0.17944   0.18135   0.19529   0.19651   0.20142

  Beta  occ. eigenvalues --  -88.80827 -19.08127 -19.01700 -19.00340 -19.00125
  Beta  occ. eigenvalues --  -14.31912 -14.29125 -14.21057 -14.18576 -14.18427
  Beta  occ. eigenvalues --  -10.20425  -7.88807  -5.85107  -5.84653  -5.84337
  Beta  occ. eigenvalues --   -1.05024  -1.01971  -0.95492  -0.93519  -0.89143
  Beta  occ. eigenvalues --   -0.81729  -0.77970  -0.62357  -0.52828  -0.47335
  Beta  occ. eigenvalues --   -0.42408  -0.40797  -0.39207  -0.36938  -0.35597
  Beta  occ. eigenvalues --   -0.35122  -0.34531  -0.33530  -0.32550  -0.31885
  Beta  occ. eigenvalues --   -0.29898  -0.27449  -0.24566  -0.23123  -0.19764
  Beta  occ. eigenvalues --   -0.18026  -0.16845  -0.15819  -0.13799  -0.09590
  Beta  occ. eigenvalues --   -0.07716
  Beta virt. eigenvalues --    0.07600   0.08875   0.09410   0.10705   0.13012
  Beta virt. eigenvalues --    0.13700   0.14212   0.14872   0.15709   0.16676
  Beta virt. eigenvalues --    0.17042   0.18174   0.18288   0.19593   0.19790

 Mulliken charges and spin densities:
               1          2
     1  C   -0.298748   0.105647
     2  O   -0.234566   0.046311
     3  O   -0.069562   0.007759
     4  S    0.282132   0.296928
     5  N   -0.350732  -0.013398
     6  N   -0.367295   0.032676
     7  N    0.293859   0.030010
     8  N   -0.495083   0.321153
     9  N   -0.287101   0.117433
    10  O   -0.153300   0.012056
    11  O   -0.131503   0.011166
    12  H    0.245260   0.006023
    13  H    0.309062   0.013387
    14  H    0.257577   0.012849
 Sum of Mulliken charges =  -1.00000   1.00000

 Dipole moment (field-independent basis, Debye):
    X=              0.9681    Y=              2.7830    Z=              0.1409  Tot=              2.9500
 Quadrupole moment (field-independent basis, Debye-Ang):
   XX=           -121.0218   YY=            -72.1566   ZZ=            -80.7230
   XY=              0.2844   XZ=              1.4703   YZ=              3.5276

 Summary of Natural Population Analysis:

                                       Natural Population
                Natural  -----------------------------------------------
    Atom  No    Charge         Core      Valence    Rydberg      Total
 -----------------------------------------------------------------------
      C    1    0.35656      0.99980     1.60523    0.03842     2.64344
      O    2   -0.29144      0.99985     3.28302    0.00856     4.29144
      O    3   -0.32756      0.99986     3.31970    0.00800     4.32756
      S    4    0.59636      4.99946     2.36798    0.03620     7.40364
      N    5   -0.49990      0.99979     2.98964    0.01047     3.99990
      N    6   -0.28812      0.99975     2.77127    0.01710     3.78812
      N    7    0.09928      0.99972     2.38292    0.01809     3.40072
      N    8    0.00449      0.99982     2.48266    0.01303     3.49551
      N    9    0.18064      0.99985     2.26967    0.04985     3.31936
      O   10   -0.22337      0.99989     3.20989    0.01359     4.22337
      O   11   -0.24333      0.99989     3.22948    0.01396     4.24333
      H   12    0.23560      0.00000     0.26063    0.00377     0.26440
      H   13    0.20619      0.00000     0.29016    0.00364     0.29381
      H   14    0.19459      0.00000     0.30144    0.00397     0.30541
 =======================================================================
   * Total *   -0.00000     14.99767    30.76368    0.23865    46.00000

 Normal termination of Gaussian 16 at Tue Dec  8 20:54:57 2020.
