 Gaussian 16, Revision A.03,

 -----------------------------------------------------------
 # opt freq B3LYP/6-31G(d) empiricaldispersion=gd3bj scf=xqc
 -----------------------------------------------------------

 -----------------------------
 CID_58570171_JID_742_neutraal
 -----------------------------
 Symbolic Z-matrix:
 Charge =  0 Multiplicity = 1

 SCF Done:  E(RB3LYP) =  -535.462421734     A.U. after   14 cycles
 SCF Done:  E(RB3LYP) =  -535.456371755     A.U. after   14 cycles
 SCF Done:  E(RB3LYP) =  -535.463288588     A.U. after   13 cycles
 SCF Done:  E(RB3LYP) =  -535.461584213     A.U. after   13 cycles
 SCF Done:  E(RB3LYP) =  -535.461507080     A.U. after   13 cycles
 SCF Done:  E(RB3LYP) =  -535.457992630     A.U. after   13 cycles
 SCF Done:  E(RB3LYP) =  -535.459512211     A.U. after   12 cycles
 SCF Done:  E(RB3LYP) =  -535.463331769     A.U. after   10 cycles
 SCF Done:  E(RB3LYP) =  -535.465012061     A.U. after   12 cycles
 SCF Done:  E(RB3LYP) =  -535.465712415     A.U. after   12 cycles
 SCF Done:  E(RB3LYP) =  -535.466600004     A.U. after   10 cycles
 SCF Done:  E(RB3LYP) =  -535.466603780     A.U. after   10 cycles
 SCF Done:  E(RB3LYP) =  -535.466606305     A.U. after    9 cycles
 SCF Done:  E(RB3LYP) =  -535.466606911     A.U. after    8 cycles
 SCF Done:  E(RB3LYP) =  -535.466607068     A.U. after    8 cycles
 Optimization completed.
    -- Stationary point found.

 1\1\GINC-NODE200\FOpt\RB3LYP\6-31G(d)\C6H10O4\VSC10255\08-Dec-2020\0\\
 # opt freq B3LYP/6-31G(d) empiricaldispersion=gd3bj scf=xqc\\CID_58570
 171_JID_742_neutraal\\0,1\C,0.8100729117,0.1181324302,-0.1659579775\C,
 0.3378927341,0.4476489125,1.0348010004\C,-1.1299880158,0.4781546428,1.
 3621280408\C,-1.531816613,-0.5706823118,2.4263434469\C,-1.3972837403,-
 0.0982171185,3.8847034125\C,-2.5744819147,0.7667698273,4.277773235\O,-
 3.7370377137,0.4521258808,4.1988585445\O,-2.1939890168,1.9879824014,4.
 7729170922\O,-1.6091550217,1.8009736977,1.6906485775\O,-0.6050261377,2

 Normal termination of Gaussian 16 at Tue Dec  8 13:05:42 2020.

 --------------------------------------------------------------------
 #N Geom=AllCheck Guess=TCheck SCRF=Check GenChk RB3LYP/6-31G(d) Freq
 --------------------------------------------------------------------

 Structure from the checkpoint file:  "JID_742.chk"
 -----------------------------
 CID_58570171_JID_742_neutraal
 -----------------------------
 Charge =  0 Multiplicity = 1

 SCF Done:  E(RB3LYP) =  -535.466607068     A.U. after    1 cycles

  Exact polarizability:  97.595   5.997  65.818   1.193  -6.905  62.264
 Approx polarizability: 124.403   7.914  98.997   2.235 -18.162 100.224

                      1                      2                      3
                      A                      A                      A
 Frequencies --     42.4921                62.2778                80.4428
 Red. masses --      4.4230                 3.3771                 6.8461
 Frc consts  --      0.0047                 0.0077                 0.0261
 IR Inten    --      0.4861                 0.7332                 2.8553

                      4                      5                      6
                      A                      A                      A
 Frequencies --    137.7841               188.1202               211.8559
 Red. masses --      5.7980                 3.3423                 6.7946
 Frc consts  --      0.0649                 0.0697                 0.1797
 IR Inten    --      1.4386                 0.7891                 4.8878

                      7                      8                      9
                      A                      A                      A
 Frequencies --    254.4217               294.1081               328.6813
 Red. masses --      4.3365                 3.4215                 1.9139
 Frc consts  --      0.1654                 0.1744                 0.1218
 IR Inten    --     10.7795                 6.2724                 1.0576

                     10                     11                     12
                      A                      A                      A
 Frequencies --    381.6627               408.1556               452.4759
 Red. masses --      2.9851                 2.7367                 2.7781
 Frc consts  --      0.2562                 0.2686                 0.3351
 IR Inten    --      2.5911                 4.7887                 3.5489

                     13                     14                     15
                      A                      A                      A
 Frequencies --    543.6710               558.9500               663.4936
 Red. masses --      1.3176                 2.4420                 2.1178
 Frc consts  --      0.2295                 0.4495                 0.5493
 IR Inten    --     56.6870                19.6576                28.7800

                     16                     17                     18
                      A                      A                      A
 Frequencies --    679.9900               712.8053               747.7256
 Red. masses --      2.3616                 2.4608                 1.6449
 Frc consts  --      0.6434                 0.7367                 0.5418
 IR Inten    --     44.1883                10.5906               140.7318

                     19                     20                     21
                      A                      A                      A
 Frequencies --    813.0967               830.5821               900.8263
 Red. masses --      3.1261                 3.1278                 3.9864
 Frc consts  --      1.2177                 1.2713                 1.9060
 IR Inten    --      6.7764                 8.4398                18.5668

                     22                     23                     24
                      A                      A                      A
 Frequencies --    948.2997               955.0056               958.3493
 Red. masses --      2.0315                 1.6368                 2.2397
 Frc consts  --      1.0764                 0.8795                 1.2120
 IR Inten    --      5.5149                32.4544                10.8917

                     25                     26                     27
                      A                      A                      A
 Frequencies --   1014.1597              1029.7687              1039.2302
 Red. masses --      1.7543                 1.1263                 2.6117
 Frc consts  --      1.0631                 0.7037                 1.6619
 IR Inten    --     14.1349                17.0762                34.7114

                     28                     29                     30
                      A                      A                      A
 Frequencies --   1093.3718              1128.6740              1186.0171
 Red. masses --      3.1382                 1.7962                 2.2905
 Frc consts  --      2.2104                 1.3481                 1.8983
 IR Inten    --      4.3976               173.0340                91.7591

                     31                     32                     33
                      A                      A                      A
 Frequencies --   1245.2580              1266.3991              1317.0577
 Red. masses --      1.2515                 1.2889                 1.3911
 Frc consts  --      1.1434                 1.2179                 1.4217
 IR Inten    --     29.3105                 7.8512                 2.1680

                     34                     35                     36
                      A                      A                      A
 Frequencies --   1328.4843              1350.8303              1360.1434
 Red. masses --      1.3527                 1.3306                 1.3593
 Frc consts  --      1.4066                 1.4306                 1.4816
 IR Inten    --      0.9501                 6.4810                 5.1847

                     37                     38                     39
                      A                      A                      A
 Frequencies --   1395.5712              1417.5485              1467.0736
 Red. masses --      1.4240                 1.5528                 1.1001
 Frc consts  --      1.6341                 1.8385                 1.3950
 IR Inten    --      9.9574                31.8224                55.5635

                     40                     41                     42
                      A                      A                      A
 Frequencies --   1483.1571              1506.3870              1519.9936
 Red. masses --      1.2165                 1.1180                 1.0808
 Frc consts  --      1.5767                 1.4947                 1.4712
 IR Inten    --     13.5777                11.9681                 7.6382

                     43                     44                     45
                      A                      A                      A
 Frequencies --   1733.4226              1864.3399              3061.8374
 Red. masses --      4.5373                 9.5178                 1.0768
 Frc consts  --      8.0327                19.4911                 5.9476
 IR Inten    --      0.8315               244.5100                 7.7799

                     46                     47                     48
                      A                      A                      A
 Frequencies --   3070.9638              3078.6002              3112.5589
 Red. masses --      1.0700                 1.0662                 1.1045
 Frc consts  --      5.9454                 5.9538                 6.3048
 IR Inten    --     22.6131                10.4311                12.3791

                     49                     50                     51
                      A                      A                      A
 Frequencies --   3153.0442              3157.5338              3199.9508
 Red. masses --      1.0966                 1.0601                 1.0916
 Frc consts  --      6.4233                 6.2272                 6.5859
 IR Inten    --      8.7275                11.2294                 1.9836

                     52                     53                     54
                      A                      A                      A
 Frequencies --   3239.4184              3621.8926              3672.7571
 Red. masses --      1.1149                 1.0683                 1.0638
 Frc consts  --      6.8929                 8.2567                 8.4546
 IR Inten    --     17.8062               222.4858                44.7924

 - Thermochemistry -
 -------------------
 Temperature   298.150 Kelvin.  Pressure   1.00000 Atm.
 Atom     1 has atomic number  6 and mass  12.00000

 Molecular mass:   146.05791 amu.
 Principal axes and moments of inertia in atomic units:
                           1         2         3
     Eigenvalues --   712.478482174.658032492.33258
           X            0.99985   0.01706  -0.00268
           Y           -0.01706   0.99985   0.00142
           Z            0.00270  -0.00137   1.00000
 This molecule is an asymmetric top.
 Rotational symmetry number  1.
 Warning -- assumption of classical behavior for rotation
           may cause significant error
 Rotational temperatures (Kelvin)      0.12157     0.03983     0.03475
 Rotational constants (GHZ):           2.53305     0.82990     0.72412
 Zero-point vibrational energy     426293.6 (Joules/Mol)
                                  101.88661 (Kcal/Mol)
 Warning -- explicit consideration of  14 degrees of freedom as
           vibrations may cause significant error
 Vibrational temperatures:     61.14    89.60   115.74   198.24   270.66
          (Kelvin)            304.81   366.06   423.16   472.90   549.13
                              587.24   651.01   782.22   804.20   954.62
                              978.35  1025.57  1075.81  1169.86  1195.02
                             1296.09  1364.39  1374.04  1378.85  1459.15
                             1481.61  1495.22  1573.12  1623.91  1706.41
                             1791.65  1822.07  1894.95  1911.39  1943.54
                             1956.94  2007.92  2039.54  2110.79  2133.93
                             2167.35  2186.93  2494.01  2682.37  4405.30
                             4418.43  4429.42  4478.28  4536.53  4542.99
                             4604.02  4660.80  5211.10  5284.28

 Zero-point correction=                           0.162367 (Hartree/Particle)
 Thermal correction to Energy=                    0.173031
 Thermal correction to Enthalpy=                  0.173975
 Thermal correction to Gibbs Free Energy=         0.125465
 Sum of electronic and zero-point Energies=           -535.304240
 Sum of electronic and thermal Energies=              -535.293576
 Sum of electronic and thermal Enthalpies=            -535.292632
 Sum of electronic and thermal Free Energies=         -535.341142

                     E (Thermal)             CV                S
                      KCal/Mol        Cal/Mol-Kelvin    Cal/Mol-Kelvin
 Total                  108.578             38.686            102.098
 Electronic               0.000              0.000              0.000
 Translational            0.889              2.981             40.847
 Rotational               0.889              2.981             29.736
 Vibrational            106.801             32.725             31.515
 Vibration     1          0.595              1.980              5.139
 Vibration     2          0.597              1.972              4.384
 Vibration     3          0.600              1.962              3.880
 Vibration     4          0.614              1.916              2.834
 Vibration     5          0.633              1.856              2.246
 Vibration     6          0.643              1.823              2.028
 Vibration     7          0.665              1.755              1.700
 Vibration     8          0.689              1.685              1.450
 Vibration     9          0.712              1.618              1.267
 Vibration    10          0.751              1.509              1.033
 Vibration    11          0.773              1.453              0.933
 Vibration    12          0.811              1.355              0.788
 Vibration    13          0.899              1.154              0.557
 Vibration    14          0.915              1.120              0.526

                           ! Non-Optimized Parameters !

 1\1\GINC-NODE200\Freq\RB3LYP\6-31G(d)\C6H10O4\VSC10255\08-Dec-2020\0\\
 #N Geom=AllCheck Guess=TCheck SCRF=Check GenChk RB3LYP/6-31G(d) Freq\\
 CID_58570171_JID_742_neutraal\\0,1\C,0.8100729117,0.1181324302,-0.1659
 579775\C,0.3378927341,0.4476489125,1.0348010004\C,-1.1299880158,0.4781
 546428,1.3621280408\C,-1.531816613,-0.5706823118,2.4263434469\C,-1.397
 2837403,-0.0982171185,3.8847034125\C,-2.5744819147,0.7667698273,4.2777
 73235\O,-3.7370377137,0.4521258808,4.1988585445\O,-2.1939890168,1.9879
 824014,4.7729170922\O,-1.6091550217,1.8009736977,1.6906485775\O,-0.605

 Normal termination of Gaussian 16 at Tue Dec  8 13:10:46 2020.

 ----------------------------------------------------------------------
 # B3LYP/6-311++G(d,p) empiricaldispersion=gd3bj scf=xqc pop=npa geom=c
 heck
 ----------------------------------------------------------------------

 -------------------------------------
 CID_58570171_JID_742_Energie_neutraal
 -------------------------------------
 Structure from the checkpoint file:  "JID_742.chk"
 Charge =  0 Multiplicity = 1

 SCF Done:  E(RB3LYP) =  -535.643624100     A.U. after   14 cycles
 Normal termination of Gaussian 16 at Tue Dec  8 13:12:48 2020.

 ----------------------------------------------------------------------
 # B3LYP/6-311++G(d,p) empiricaldispersion=gd3bj scf=xqc pop=npa geom=c
 heck
 ----------------------------------------------------------------------

 -----------------------------------
 CID_58570171_JID_742_Energie_kation
 -----------------------------------
 Structure from the checkpoint file:  "JID_742.chk"
 Charge =  1 Multiplicity = 2

 SCF Done:  E(UB3LYP) =  -535.296785952     A.U. after   25 cycles
 Normal termination of Gaussian 16 at Tue Dec  8 13:23:33 2020.
 Gaussian 16:  ES64L-G16RevA.03 25-Dec-2016

 ----------------------------------
 CID_58570171_JID_742_Energie_anion
 ----------------------------------
 Structure from the checkpoint file:  "JID_742.chk"
 Charge = -1 Multiplicity = 2

                         Standard orientation:
 ---------------------------------------------------------------------
 Center     Atomic      Atomic             Coordinates (Angstroms)
 Number     Number       Type             X           Y           Z
 ---------------------------------------------------------------------
      1          6           0       -3.594658   -0.240704   -0.077900
      2          6           0       -2.322974    0.000480   -0.390962
      3          6           0       -1.175261   -0.309792    0.530578
      4          6           0       -0.226136   -1.393961   -0.033175
      5          6           0        0.899973   -0.862532   -0.937387
      6          6           0        2.028441   -0.291637   -0.107242
      7          8           0        2.628771   -0.875762    0.761761
      8          8           0        2.341468    0.998357   -0.452542
      9          8           0       -0.461702    0.869795    0.962766
     10          8           0       -0.346898    1.799304   -0.157500
     11          1           0       -3.879420   -0.646535    0.890734
     12          1           0       -4.403064   -0.039457   -0.775383
     13          1           0       -2.065103    0.415745   -1.361089
     14          1           0       -1.582833   -0.676974    1.480006
     15          1           0        0.244445   -1.932515    0.795965
     16          1           0       -0.827719   -2.120934   -0.589390
     17          1           0        1.330951   -1.702168   -1.494781
     18          1           0        0.539197   -0.126863   -1.657601
     19          1           0        3.067020    1.266454    0.144140
     20          1           0        0.627107    1.818569   -0.251955
 ---------------------------------------------------------------------

 SCF Done:  E(UB3LYP) =  -535.629734315     A.U. after   33 cycles
 SCF Done:  E(UB3LYP) =  -535.629734315     a.u. after    1 cycles

 The electronic state is 2-A.
 Alpha  occ. eigenvalues --  -19.07355 -19.06830 -19.06128 -19.01046 -10.20094
 Alpha  occ. eigenvalues --  -10.13238 -10.08058 -10.08046 -10.07579 -10.07434
 Alpha  occ. eigenvalues --   -1.01140  -1.00262  -0.91772  -0.81078  -0.70371
 Alpha  occ. eigenvalues --   -0.67826  -0.60171  -0.53292  -0.49150  -0.46846
 Alpha  occ. eigenvalues --   -0.41769  -0.40178  -0.39272  -0.38104  -0.37331
 Alpha  occ. eigenvalues --   -0.34990  -0.33881  -0.32455  -0.30781  -0.29814
 Alpha  occ. eigenvalues --   -0.28120  -0.27258  -0.26377  -0.23709  -0.22685
 Alpha  occ. eigenvalues --   -0.20267  -0.18109  -0.17669  -0.15771   0.04825
 Alpha virt. eigenvalues --    0.06770   0.07656   0.08136   0.08649   0.09497
 Alpha virt. eigenvalues --    0.10080   0.10716   0.11315   0.11468   0.13469
 Alpha virt. eigenvalues --    0.13729   0.13997   0.16037   0.16605   0.17614

  Beta  occ. eigenvalues --  -19.07327 -19.06755 -19.06098 -19.01022 -10.20053
  Beta  occ. eigenvalues --  -10.13236 -10.08044 -10.08005 -10.07560 -10.07412
  Beta  occ. eigenvalues --   -1.01060  -1.00162  -0.91684  -0.81018  -0.70323
  Beta  occ. eigenvalues --   -0.67773  -0.60090  -0.53199  -0.49043  -0.46758
  Beta  occ. eigenvalues --   -0.41704  -0.40114  -0.39220  -0.38031  -0.37277
  Beta  occ. eigenvalues --   -0.34908  -0.33831  -0.32388  -0.30725  -0.29755
  Beta  occ. eigenvalues --   -0.28083  -0.27187  -0.26314  -0.23673  -0.22590
  Beta  occ. eigenvalues --   -0.20219  -0.18046  -0.17642  -0.15731
  Beta virt. eigenvalues --    0.07192   0.08264   0.08461   0.08741   0.08894
  Beta virt. eigenvalues --    0.09963   0.10456   0.11302   0.11680   0.12186
  Beta virt. eigenvalues --    0.13741   0.13954   0.14364   0.16329   0.16905

 Mulliken charges and spin densities:
               1          2
     1  C    1.480684  -2.043768
     2  C   -1.228283   1.354628
     3  C    0.451695  -0.389018
     4  C   -0.345283  -0.118960
     5  C    0.979495  -1.375394
     6  C    0.327299  -0.402733
     7  O   -0.307077   0.048781
     8  O   -0.248157   0.063780
     9  O   -0.039938   0.033147
    10  O   -0.231722  -0.042092
    11  H   -0.077210   0.180973
    12  H   -0.251631   0.376504
    13  H   -0.354559   0.555188
    14  H   -0.152914   0.363472
    15  H    0.190957   0.011750
    16  H   -0.164490   0.327191
    17  H   -0.886489   1.089843
    18  H    0.171049   0.037608
    19  H   -0.577878   0.889408
    20  H    0.264451   0.039692
 Sum of Mulliken charges =  -1.00000   1.00000

 Dipole moment (field-independent basis, Debye):
    X=             -3.2285    Y=              0.0039    Z=              1.9630  Tot=              3.7784
 Quadrupole moment (field-independent basis, Debye-Ang):
   XX=           -120.6005   YY=            -96.3877   ZZ=            -87.2627
   XY=             -2.0418   XZ=             -2.7705   YZ=             -5.7509

 Summary of Natural Population Analysis:

                                       Natural Population
                Natural  -----------------------------------------------
    Atom  No    Charge         Core      Valence    Rydberg      Total
 -----------------------------------------------------------------------
      C    1   -0.18163      0.99956     2.17563    0.00645     3.18163
      C    2   -0.09208      0.99953     2.08129    0.01126     3.09208
      C    3    0.04691      0.99952     1.93736    0.01621     2.95309
      C    4   -0.19750      0.99960     2.18776    0.01014     3.19750
      C    5   -0.24378      0.99956     2.23345    0.01077     3.24378
      C    6    0.41503      0.99971     1.55914    0.02612     2.58497
      O    7   -0.30317      0.99986     3.29688    0.00643     4.30317
      O    8   -0.36095      0.99987     3.35290    0.00817     4.36095
      O    9   -0.16686      0.99989     3.15824    0.00873     4.16686
      O   10   -0.23709      0.99991     3.23085    0.00634     4.23709
      H   11    0.08895      0.00000     0.40968    0.00137     0.41105
      H   12    0.09424      0.00000     0.40450    0.00126     0.40576
      H   13    0.10319      0.00000     0.39509    0.00172     0.39681
      H   14    0.09539      0.00000     0.40256    0.00205     0.40461
      H   15    0.10705      0.00000     0.39160    0.00135     0.39295
      H   16    0.10675      0.00000     0.39153    0.00173     0.39325
      H   17    0.12317      0.00000     0.37237    0.00445     0.37683
      H   18    0.11156      0.00000     0.38629    0.00215     0.38844
      H   19    0.25030      0.00000     0.22490    0.02480     0.24970
      H   20    0.24053      0.00000     0.25545    0.00402     0.25947
 =======================================================================
   * Total *    0.00000      9.99702    28.84747    0.15551    39.00000

 Normal termination of Gaussian 16 at Tue Dec  8 13:29:57 2020.
