 Gaussian 16, Revision A.03,

 -----------------------------------------------------------
 # opt freq B3LYP/6-31G(d) empiricaldispersion=gd3bj scf=xqc
 -----------------------------------------------------------

 -------------------------------
 CID_103550836_JID_6312_neutraal
 -------------------------------
 Symbolic Z-matrix:
 Charge =  0 Multiplicity = 1

 SCF Done:  E(RB3LYP) =  -786.335189656     A.U. after   14 cycles
 SCF Done:  E(RB3LYP) =  -786.339416547     A.U. after   12 cycles
 SCF Done:  E(RB3LYP) =  -786.335237741     A.U. after   14 cycles
 SCF Done:  E(RB3LYP) =  -786.338474726     A.U. after   12 cycles
 SCF Done:  E(RB3LYP) =  -786.340471395     A.U. after   10 cycles
 SCF Done:  E(RB3LYP) =  -786.341285901     A.U. after   13 cycles
 SCF Done:  E(RB3LYP) =  -786.341955090     A.U. after   13 cycles
 SCF Done:  E(RB3LYP) =  -786.343208382     A.U. after   12 cycles
 SCF Done:  E(RB3LYP) =  -786.345388701     A.U. after   13 cycles
 SCF Done:  E(RB3LYP) =  -786.347340179     A.U. after   13 cycles
 SCF Done:  E(RB3LYP) =  -786.351192216     A.U. after   10 cycles
 SCF Done:  E(RB3LYP) =  -786.351191927     A.U. after   10 cycles
 SCF Done:  E(RB3LYP) =  -786.351195102     A.U. after   10 cycles
 SCF Done:  E(RB3LYP) =  -786.351195253     A.U. after    8 cycles
 SCF Done:  E(RB3LYP) =  -786.351195278     A.U. after    7 cycles
 Optimization completed.
    -- Stationary point found.
 Normal termination of Gaussian 16 at Thu Dec 10 22:41:55 2020.

 --------------------------------------------------------------------
 #N Geom=AllCheck Guess=TCheck SCRF=Check GenChk RB3LYP/6-31G(d) Freq
 --------------------------------------------------------------------

 Structure from the checkpoint file:  "JID_6312.chk"
 -------------------------------
 CID_103550836_JID_6312_neutraal
 -------------------------------
 Charge =  0 Multiplicity = 1

 SCF Done:  E(RB3LYP) =  -786.351195278     A.U. after    1 cycles

  Exact polarizability: 139.999   5.367 139.571   1.308   4.486 108.237
 Approx polarizability: 184.305   7.453 201.714  -3.794   3.520 167.518

                      1                      2                      3
                      A                      A                      A
 Frequencies --     30.9130                45.6535                62.4297
 Red. masses --      6.4149                 7.6078                 4.2307
 Frc consts  --      0.0036                 0.0093                 0.0097
 IR Inten    --      0.2899                 1.1811                 0.2821

                      4                      5                      6
                      A                      A                      A
 Frequencies --     96.3210                99.4644               140.4572
 Red. masses --      4.3821                 4.2574                 7.0936
 Frc consts  --      0.0240                 0.0248                 0.0825
 IR Inten    --      1.8020                 0.2553                 7.9324

                      7                      8                      9
                      A                      A                      A
 Frequencies --    150.8094               177.9403               213.8182
 Red. masses --      3.4417                 3.4950                 3.7461
 Frc consts  --      0.0461                 0.0652                 0.1009
 IR Inten    --      0.8048                 1.7749                 2.0315

                     10                     11                     12
                      A                      A                      A
 Frequencies --    239.7084               243.3267               256.6768
 Red. masses --      1.2486                 2.5988                 1.8367
 Frc consts  --      0.0423                 0.0907                 0.0713
 IR Inten    --      1.2706                 0.7980                 0.3011

                     13                     14                     15
                      A                      A                      A
 Frequencies --    281.3304               287.9104               301.9687
 Red. masses --      1.3161                 2.5374                 3.3229
 Frc consts  --      0.0614                 0.1239                 0.1785
 IR Inten    --      0.3295                 0.3884                 0.4356

                     16                     17                     18
                      A                      A                      A
 Frequencies --    346.5013               350.7859               395.9019
 Red. masses --      3.0683                 2.4032                 4.0909
 Frc consts  --      0.2170                 0.1742                 0.3778
 IR Inten    --      5.8480                 1.7318                 2.8479

                     19                     20                     21
                      A                      A                      A
 Frequencies --    401.8146               424.2744               465.2660
 Red. masses --      2.2622                 4.1208                 2.9637
 Frc consts  --      0.2152                 0.4370                 0.3780
 IR Inten    --      1.0842                 7.3280                 2.2212

                     22                     23                     24
                      A                      A                      A
 Frequencies --    527.5585               567.9906               612.9159
 Red. masses --      2.9250                 2.5818                 1.7008
 Frc consts  --      0.4796                 0.4907                 0.3765
 IR Inten    --      5.3005                15.2860                42.4112

                     25                     26                     27
                      A                      A                      A
 Frequencies --    622.0987               626.9854               638.2008
 Red. masses --      1.6106                 1.3247                 1.6309
 Frc consts  --      0.3672                 0.3068                 0.3914
 IR Inten    --     69.7981               158.7559                77.6947

                     28                     29                     30
                      A                      A                      A
 Frequencies --    660.3677               714.2110               738.0789
 Red. masses --      2.3071                 2.7337                 3.9005
 Frc consts  --      0.5928                 0.8216                 1.2519
 IR Inten    --     13.0242                 4.1745                60.5896

                     31                     32                     33
                      A                      A                      A
 Frequencies --    766.7363               778.8455               780.1878
 Red. masses --      3.0870                 3.5101                 3.6242
 Frc consts  --      1.0692                 1.2545                 1.2998
 IR Inten    --     14.7018                31.5729                 6.2368

                     34                     35                     36
                      A                      A                      A
 Frequencies --    812.6105               862.0674               880.6359
 Red. masses --      3.4907                 1.9732                 2.0318
 Frc consts  --      1.3581                 0.8640                 0.9284
 IR Inten    --     15.3198                 9.8251                 3.5622

                     37                     38                     39
                      A                      A                      A
 Frequencies --    939.9521               944.2463               949.8561
 Red. masses --      2.2307                 2.5777                 1.4860
 Frc consts  --      1.1612                 1.3541                 0.7899
 IR Inten    --      9.9195                 0.6323                 2.3018

                     40                     41                     42
                      A                      A                      A
 Frequencies --    958.4503               969.4224              1004.0598
 Red. masses --      2.7529                 2.4309                 1.8113
 Frc consts  --      1.4900                 1.3460                 1.0759
 IR Inten    --      8.7578                10.4353                10.7820

                     43                     44                     45
                      A                      A                      A
 Frequencies --   1015.4717              1040.0677              1056.1898
 Red. masses --      1.4829                 1.5719                 1.7319
 Frc consts  --      0.9009                 1.0018                 1.1383
 IR Inten    --      7.1198                 3.3002                 5.9022

                     46                     47                     48
                      A                      A                      A
 Frequencies --   1078.9492              1095.7475              1145.0012
 Red. masses --      2.5048                 3.6961                 2.4906
 Frc consts  --      1.7180                 2.6147                 1.9238
 IR Inten    --     23.9175                 0.7774                45.6883

                     49                     50                     51
                      A                      A                      A
 Frequencies --   1177.7475              1186.2174              1203.6738
 Red. masses --      1.7140                 2.1180                 1.3367
 Frc consts  --      1.4008                 1.7559                 1.1410
 IR Inten    --    186.4252                 7.0582                24.6771

                     52                     53                     54
                      A                      A                      A
 Frequencies --   1214.0734              1223.7354              1231.1731
 Red. masses --      1.5029                 1.8231                 1.6076
 Frc consts  --      1.3052                 1.6085                 1.4357
 IR Inten    --     84.3128                56.3270                14.7356

                     55                     56                     57
                      A                      A                      A
 Frequencies --   1252.6530              1281.9204              1309.7021
 Red. masses --      2.3073                 1.3156                 1.4361
 Frc consts  --      2.1331                 1.2738                 1.4513
 IR Inten    --     14.7534                 6.1011                25.0900

                     58                     59                     60
                      A                      A                      A
 Frequencies --   1320.3725              1325.3046              1338.2436
 Red. masses --      1.3758                 1.3016                 1.3736
 Frc consts  --      1.4132                 1.3469                 1.4493
 IR Inten    --      2.1175                 1.0716                 1.4393

                     61                     62                     63
                      A                      A                      A
 Frequencies --   1362.3051              1372.3974              1379.5034
 Red. masses --      1.4711                 1.2777                 1.6921
 Frc consts  --      1.6085                 1.4179                 1.8972
 IR Inten    --      6.9645                10.4686                91.9361

                     64                     65                     66
                      A                      A                      A
 Frequencies --   1400.0347              1415.2710              1421.3376
 Red. masses --      1.3316                 1.2618                 1.5263
 Frc consts  --      1.5378                 1.4891                 1.8167
 IR Inten    --      4.6390                 6.8159                61.3630

                     67                     68                     69
                      A                      A                      A
 Frequencies --   1436.0911              1442.3035              1464.4789
 Red. masses --      1.3021                 2.1118                 1.4754
 Frc consts  --      1.5822                 2.5883                 1.8644
 IR Inten    --     27.6820                67.6662                26.5444

                     70                     71                     72
                      A                      A                      A
 Frequencies --   1505.6161              1513.6855              1516.2268
 Red. masses --      1.0998                 1.3998                 1.1646
 Frc consts  --      1.4688                 1.8897                 1.5775
 IR Inten    --      3.6731                46.9796                14.2051

                     73                     74                     75
                      A                      A                      A
 Frequencies --   1517.4332              1523.3092              1534.0393
 Red. masses --      1.1252                 1.0531                 1.1259
 Frc consts  --      1.5265                 1.4398                 1.5611
 IR Inten    --      0.8874                 1.3727                 1.8810

                     76                     77                     78
                      A                      A                      A
 Frequencies --   1543.6519              1546.1243              1552.6066
 Red. masses --      1.0870                 1.0721                 1.0961
 Frc consts  --      1.5261                 1.5100                 1.5568
 IR Inten    --      6.7168                16.0862                 1.3831

                     79                     80                     81
                      A                      A                      A
 Frequencies --   1767.4117              1801.8201              3026.9991
 Red. masses --      6.8425                 8.7382                 1.0744
 Frc consts  --     12.5934                16.7146                 5.8003
 IR Inten    --    362.7429               322.1621                33.8153

                     82                     83                     84
                      A                      A                      A
 Frequencies --   3048.3901              3058.3391              3062.4541
 Red. masses --      1.0365                 1.0378                 1.0665
 Frc consts  --      5.6749                 5.7190                 5.8933
 IR Inten    --     25.1894                20.8191                27.8866

                     85                     86                     87
                      A                      A                      A
 Frequencies --   3091.0689              3095.9567              3100.7548
 Red. masses --      1.0763                 1.0691                 1.0795
 Frc consts  --      6.0590                 6.0377                 6.1149
 IR Inten    --      4.2300                30.5017                17.6165

                     88                     89                     90
                      A                      A                      A
 Frequencies --   3106.9643              3114.5616              3120.5352
 Red. masses --      1.0777                 1.1019                 1.0997
 Frc consts  --      6.1297                 6.2976                 6.3096
 IR Inten    --     16.3081                27.8218                14.3178

                     91                     92                     93
                      A                      A                      A
 Frequencies --   3127.5573              3134.7929              3135.1478
 Red. masses --      1.1004                 1.1022                 1.1023
 Frc consts  --      6.3416                 6.3815                 6.3839
 IR Inten    --     10.1266                36.5392                25.3801

                     94                     95                     96
                      A                      A                      A
 Frequencies --   3144.4136              3167.8206              3221.3774
 Red. masses --      1.1028                 1.0968                 1.0851
 Frc consts  --      6.4245                 6.4849                 6.6346
 IR Inten    --     21.6925                 2.9698                 8.7348

                     97                     98                     99
                      A                      A                      A
 Frequencies --   3586.5075              3664.5135              3675.5483
 Red. masses --      1.0748                 1.0661                 1.0639
 Frc consts  --      8.1458                 8.4348                 8.4686
 IR Inten    --     14.5935               160.3489                47.0059

 - Thermochemistry -
 -------------------
 Temperature   298.150 Kelvin.  Pressure   1.00000 Atm.
 Atom     1 has atomic number  6 and mass  12.00000

 Molecular mass:   229.13141 amu.
 Principal axes and moments of inertia in atomic units:
                           1         2         3
     Eigenvalues --  2977.372453716.452545433.09742
           X            0.99387   0.11000   0.01084
           Y           -0.11017   0.99377   0.01663
           Z           -0.00895  -0.01772   0.99980
 This molecule is an asymmetric top.
 Rotational symmetry number  1.
 Warning -- assumption of classical behavior for rotation
           may cause significant error
 Rotational temperatures (Kelvin)      0.02909     0.02331     0.01594
 Rotational constants (GHZ):           0.60615     0.48561     0.33218
 Zero-point vibrational energy     798892.2 (Joules/Mol)
                                  190.93982 (Kcal/Mol)
 Warning -- explicit consideration of  24 degrees of freedom as
           vibrations may cause significant error
 Vibrational temperatures:     44.48    65.69    89.82   138.58   143.11
          (Kelvin)            202.09   216.98   256.02   307.64   344.89
                              350.09   369.30   404.77   414.24   434.47
                              498.54   504.70   569.61   578.12   610.44
                              669.41   759.04   817.21   881.85   895.06
                              902.09   918.23   950.12  1027.59  1061.93
                             1103.16  1120.58  1122.52  1169.17  1240.32
                             1267.04  1352.38  1358.56  1366.63  1379.00
                             1394.78  1444.62  1461.04  1496.43  1519.62
                             1552.37  1576.54  1647.40  1694.52  1706.70
                             1731.82  1746.78  1760.68  1771.38  1802.29
                             1844.40  1884.37  1899.72  1906.82  1925.43
                             1960.05  1974.57  1984.80  2014.34  2036.26
                             2044.99  2066.21  2075.15  2107.06  2166.25
                             2177.86  2181.51  2183.25  2191.70  2207.14
                             2220.97  2224.53  2233.85  2542.91  2592.42
                             4355.18  4385.95  4400.27  4406.19  4447.36
                             4454.39  4461.29  4470.23  4481.16  4489.75
                             4499.86  4510.27  4510.78  4524.11  4557.79
                             4634.84  5160.18  5272.42  5288.29

 Zero-point correction=                           0.304282 (Hartree/Particle)
 Thermal correction to Energy=                    0.320670
 Thermal correction to Enthalpy=                  0.321614
 Thermal correction to Gibbs Free Energy=         0.260421
 Sum of electronic and zero-point Energies=           -786.046913
 Sum of electronic and thermal Energies=              -786.030525
 Sum of electronic and thermal Enthalpies=            -786.029581
 Sum of electronic and thermal Free Energies=         -786.090775

                     E (Thermal)             CV                S
                      KCal/Mol        Cal/Mol-Kelvin    Cal/Mol-Kelvin
 Total                  201.223             63.043            128.793
 Electronic               0.000              0.000              0.000
 Translational            0.889              2.981             42.189
 Rotational               0.889              2.981             32.464
 Vibrational            199.446             57.082             54.139
 Vibration     1          0.594              1.984              5.770
 Vibration     2          0.595              1.979              4.997
 Vibration     3          0.597              1.972              4.379
 Vibration     4          0.603              1.952              3.527
 Vibration     5          0.604              1.949              3.465
 Vibration     6          0.615              1.913              2.798
 Vibration     7          0.618              1.902              2.662
 Vibration     8          0.628              1.869              2.350
 Vibration     9          0.644              1.820              2.011
 Vibration    10          0.657              1.780              1.805
 Vibration    11          0.659              1.774              1.778
 Vibration    12          0.666              1.751              1.684
 Vibration    13          0.681              1.708              1.526
 Vibration    14          0.685              1.696              1.486
 Vibration    15          0.694              1.670              1.406
 Vibration    16          0.724              1.582              1.182
 Vibration    17          0.728              1.574              1.163
 Vibration    18          0.763              1.479              0.978
 Vibration    19          0.767              1.466              0.956
 Vibration    20          0.786              1.417              0.878
 Vibration    21          0.823              1.327              0.751
 Vibration    22          0.883              1.189              0.593
 Vibration    23          0.924              1.100              0.508
 Vibration    24          0.972              1.005              0.428

 Optimization completed.
    -- Stationary point found.
 Normal termination of Gaussian 16 at Thu Dec 10 22:55:26 2020.

 ----------------------------------------------------------------------
 # B3LYP/6-311++G(d,p) empiricaldispersion=gd3bj scf=xqc pop=npa geom=c
 heck
 ----------------------------------------------------------------------

 ---------------------------------------
 CID_103550836_JID_6312_Energie_neutraal
 ---------------------------------------
 Structure from the checkpoint file:  "JID_6312.chk"
 Charge =  0 Multiplicity = 1

 SCF Done:  E(RB3LYP) =  -786.597211477     A.U. after   14 cycles
 Normal termination of Gaussian 16 at Thu Dec 10 23:01:01 2020.

 ----------------------------------------------------------------------
 # B3LYP/6-311++G(d,p) empiricaldispersion=gd3bj scf=xqc pop=npa geom=c
 heck
 ----------------------------------------------------------------------

 -------------------------------------
 CID_103550836_JID_6312_Energie_kation
 -------------------------------------
 Structure from the checkpoint file:  "JID_6312.chk"
 Charge =  1 Multiplicity = 2

 SCF Done:  E(UB3LYP) =  -786.281943179     A.U. after   26 cycles
 Normal termination of Gaussian 16 at Thu Dec 10 23:14:08 2020.
 Gaussian 16:  ES64L-G16RevA.03 25-Dec-2016

 ----------------------------------------------------------------------
 # B3LYP/6-311++G(d,p) empiricaldispersion=gd3bj scf=xqc pop=npa geom=c
 heck
 ----------------------------------------------------------------------

 ------------------------------------
 CID_103550836_JID_6312_Energie_anion
 ------------------------------------
 Structure from the checkpoint file:  "JID_6312.chk"
 Charge = -1 Multiplicity = 2

                         Standard orientation:
 ---------------------------------------------------------------------
 Center     Atomic      Atomic             Coordinates (Angstroms)
 Number     Number       Type             X           Y           Z
 ---------------------------------------------------------------------
      1          6           0       -3.561140   -0.162018    0.392124
      2          6           0       -2.219032   -0.840148    0.131262
      3          6           0       -2.412570   -2.270240   -0.393933
      4          6           0       -1.375046   -0.053498   -0.907272
      5          7           0       -1.335870    1.387864   -0.739254
      6          6           0       -0.334527    2.276883   -0.431164
      7          8           0       -0.576950    3.480249   -0.457428
      8          6           0        1.051676    1.800513    0.004911
      9          6           0        1.056163    1.132521    1.399644
     10          6           0        2.370827    0.344332    1.431730
     11          6           0        2.544917   -0.209515    0.003650
     12          6           0        1.854126    0.846822   -0.931623
     13          6           0        1.904017   -1.564281   -0.171933
     14          8           0        0.982877   -2.028828    0.479757
     15          8           0        2.447007   -2.248962   -1.200298
     16          8           0       -1.555141   -0.884073    1.395411
     17          1           0       -4.132242   -0.044396   -0.536290
     18          1           0       -3.403648    0.822293    0.841894
     19          1           0       -4.151791   -0.764071    1.088689
     20          1           0       -2.987716   -2.287108   -1.326580
     21          1           0       -1.441877   -2.746188   -0.578097
     22          1           0       -2.945220   -2.864655    0.354381
     23          1           0       -0.365504   -0.450537   -0.872327
     24          1           0       -1.767923   -0.271030   -1.910609
     25          1           0       -2.188076    1.885022   -0.968741
     26          1           0        1.610929    2.736246    0.074927
     27          1           0        0.995010    1.880574    2.195616
     28          1           0        0.195602    0.472254    1.512719
     29          1           0        2.376051   -0.445897    2.187833
     30          1           0        3.210236    1.016467    1.644948
     31          1           0        3.596307   -0.321702   -0.273423
     32          1           0        1.242419    0.372678   -1.702122
     33          1           0        2.621224    1.411351   -1.467298
     34          1           0        1.954300   -3.089439   -1.265813
     35          1           0       -0.725795   -1.382215    1.271158
 ---------------------------------------------------------------------

 SCF Done:  E(UB3LYP) =  -786.591627440     A.U. after   33 cycles
 SCF Done:  E(UB3LYP) =  -786.591627441     a.u. after    1 cycles

 The electronic state is 2-A.
 Alpha  occ. eigenvalues --  -19.07498 -19.02892 -19.01698 -18.98998 -14.24174
 Alpha  occ. eigenvalues --  -10.21733 -10.17852 -10.13835 -10.11347 -10.10015
 Alpha  occ. eigenvalues --  -10.09092 -10.09059 -10.08151 -10.07305 -10.07087
 Alpha  occ. eigenvalues --  -10.06394  -1.02006  -0.94276  -0.93136  -0.92443
 Alpha  occ. eigenvalues --   -0.82528  -0.75887  -0.69510  -0.66130  -0.63363
 Alpha  occ. eigenvalues --   -0.61209  -0.59960  -0.56028  -0.51777  -0.48564
 Alpha  occ. eigenvalues --   -0.47988  -0.47213  -0.43151  -0.41865  -0.40884
 Alpha  occ. eigenvalues --   -0.39839  -0.38138  -0.37408  -0.36800  -0.36140
 Alpha  occ. eigenvalues --   -0.35161  -0.33392  -0.32781  -0.31993  -0.31520
 Alpha  occ. eigenvalues --   -0.30671  -0.29820  -0.29652  -0.27647  -0.27015
 Alpha  occ. eigenvalues --   -0.26691  -0.26508  -0.25816  -0.25683  -0.24659
 Alpha  occ. eigenvalues --   -0.24032  -0.23414  -0.22704  -0.19543  -0.18755
 Alpha  occ. eigenvalues --   -0.16070  -0.15245   0.03937
 Alpha virt. eigenvalues --    0.05986   0.06614   0.07716   0.08266   0.08912
 Alpha virt. eigenvalues --    0.09026   0.09133   0.09935   0.10652   0.11043
 Alpha virt. eigenvalues --    0.11271   0.11418   0.12211   0.12585   0.13083

  Beta  occ. eigenvalues --  -19.07421 -19.02863 -19.01695 -18.98991 -14.24170
  Beta  occ. eigenvalues --  -10.21707 -10.17849 -10.13834 -10.11324 -10.09991
  Beta  occ. eigenvalues --  -10.09086 -10.09031 -10.08136 -10.07304 -10.07071
  Beta  occ. eigenvalues --  -10.06368  -1.01900  -0.94265  -0.93060  -0.92417
  Beta  occ. eigenvalues --   -0.82514  -0.75856  -0.69489  -0.66073  -0.63320
  Beta  occ. eigenvalues --   -0.61173  -0.59917  -0.55914  -0.51738  -0.48534
  Beta  occ. eigenvalues --   -0.47957  -0.47111  -0.43115  -0.41815  -0.40844
  Beta  occ. eigenvalues --   -0.39784  -0.38099  -0.37354  -0.36731  -0.36109
  Beta  occ. eigenvalues --   -0.35126  -0.33368  -0.32736  -0.31962  -0.31471
  Beta  occ. eigenvalues --   -0.30645  -0.29795  -0.29629  -0.27618  -0.26992
  Beta  occ. eigenvalues --   -0.26670  -0.26470  -0.25774  -0.25650  -0.24626
  Beta  occ. eigenvalues --   -0.23967  -0.23394  -0.22645  -0.19486  -0.18741
  Beta  occ. eigenvalues --   -0.16058  -0.15230
  Beta virt. eigenvalues --    0.06308   0.06725   0.07896   0.07925   0.08535
  Beta virt. eigenvalues --    0.09209   0.09382   0.09557   0.10323   0.10689
  Beta virt. eigenvalues --    0.11190   0.11557   0.11681   0.12346   0.12724

 Mulliken charges and spin densities:
               1          2
     1  C   -0.172695  -0.363965
     2  C   -0.843161   1.016607
     3  C    0.653183  -1.205098
     4  C    0.018475  -0.656875
     5  N   -0.194525   0.065774
     6  C   -0.576830   0.468867
     7  O   -0.336172  -0.001293
     8  C    0.332346  -0.130728
     9  C   -0.184580  -0.199024
    10  C   -0.143730  -0.491861
    11  C    1.010146  -0.374852
    12  C   -0.027556  -0.580104
    13  C    0.206469  -0.711873
    14  O   -0.297675   0.012298
    15  O   -0.127491   0.055410
    16  O   -0.076638  -0.030117
    17  H   -0.021860   0.169830
    18  H    0.132141   0.041934
    19  H    0.077963   0.067855
    20  H   -0.139229   0.279513
    21  H   -0.304323   0.466006
    22  H    0.055354   0.099261
    23  H    0.524119  -0.328258
    24  H   -0.407172   0.614268
    25  H    0.205967   0.110809
    26  H    0.205503   0.065350
    27  H    0.146706   0.006518
    28  H    0.235055  -0.033234
    29  H    0.040746   0.148061
    30  H   -0.013014   0.165366
    31  H   -0.445247   0.752544
    32  H   -0.015797   0.205103
    33  H   -0.219314   0.409535
    34  H   -0.553019   0.865212
    35  H    0.255851   0.021162
 Sum of Mulliken charges =  -1.00000   1.00000

 Dipole moment (field-independent basis, Debye):
    X=             -2.4956    Y=              2.9496    Z=              3.6156  Tot=              5.2916
 Quadrupole moment (field-independent basis, Debye-Ang):
   XX=           -150.1495   YY=           -164.3574   ZZ=           -132.8840
   XY=              6.7591   XZ=              5.8014   YZ=             -7.4233

 Summary of Natural Population Analysis:

                                       Natural Population
                Natural  -----------------------------------------------
    Atom  No    Charge         Core      Valence    Rydberg      Total
 -----------------------------------------------------------------------
      C    1   -0.29424      0.99961     2.28767    0.00696     3.29424
      C    2    0.12329      0.99955     1.86251    0.01465     2.87671
      C    3   -0.29878      0.99961     2.29246    0.00671     3.29878
      C    4   -0.10114      0.99953     2.08899    0.01261     3.10114
      N    5   -0.31686      0.99966     2.80779    0.00941     3.81686
      C    6    0.35187      0.99963     1.62616    0.02234     2.64813
      O    7   -0.32938      0.99988     3.32413    0.00537     4.32938
      C    8   -0.15116      0.99955     2.14044    0.01117     3.15116
      C    9   -0.19547      0.99961     2.18785    0.00801     3.19547
      C   10   -0.18825      0.99963     2.17937    0.00926     3.18825
      C   11   -0.15769      0.99955     2.14548    0.01267     3.15769
      C   12   -0.18114      0.99961     2.17276    0.00877     3.18114
      C   13    0.42249      0.99966     1.55230    0.02554     2.57751
      O   14   -0.33355      0.99985     3.32658    0.00713     4.33355
      O   15   -0.33641      0.99987     3.32991    0.00662     4.33641
      O   16   -0.38876      0.99988     3.38239    0.00648     4.38876
      H   17    0.09844      0.00000     0.40081    0.00075     0.40156
      H   18    0.10507      0.00000     0.39400    0.00093     0.39493
      H   19    0.10380      0.00000     0.39547    0.00073     0.39620
      H   20    0.10049      0.00000     0.39830    0.00121     0.39951
      H   21    0.10890      0.00000     0.38938    0.00172     0.39110
      H   22    0.10213      0.00000     0.39698    0.00089     0.39787
      H   23    0.10488      0.00000     0.39172    0.00340     0.39512
      H   24    0.09821      0.00000     0.40018    0.00161     0.40179
      H   25    0.19196      0.00000     0.30568    0.00236     0.30804
      H   26    0.11138      0.00000     0.38741    0.00121     0.38862
      H   27    0.10081      0.00000     0.39841    0.00078     0.39919
      H   28    0.11452      0.00000     0.38347    0.00201     0.38548
      H   29    0.10762      0.00000     0.39155    0.00083     0.39238
      H   30    0.09862      0.00000     0.40042    0.00097     0.40138
      H   31    0.11949      0.00000     0.37819    0.00231     0.38051
      H   32    0.10561      0.00000     0.39275    0.00163     0.39439
      H   33    0.10834      0.00000     0.39045    0.00121     0.39166
      H   34    0.24920      0.00000     0.22351    0.02728     0.25080
      H   35    0.24572      0.00000     0.25095    0.00333     0.25428
 =======================================================================
   * Total *   -0.00000     15.99469    45.77643    0.22888    62.00000

 Normal termination of Gaussian 16 at Thu Dec 10 23:30:19 2020.
