 Gaussian 16, Revision A.03,

 -----------------------------------------------------------
 # opt freq B3LYP/6-31G(d) empiricaldispersion=gd3bj scf=xqc
 -----------------------------------------------------------

 ------------------------------
 CID_43238973_JID_9997_neutraal
 ------------------------------
 Symbolic Z-matrix:
 Charge =  0 Multiplicity = 1

 SCF Done:  E(RB3LYP) =  -931.522578974     A.U. after   16 cycles
 SCF Done:  E(RB3LYP) =  -931.532030545     A.U. after   13 cycles
 SCF Done:  E(RB3LYP) =  -931.533679415     A.U. after   14 cycles
 SCF Done:  E(RB3LYP) =  -931.535458574     A.U. after   13 cycles
 SCF Done:  E(RB3LYP) =  -931.536326034     A.U. after   12 cycles
 SCF Done:  E(RB3LYP) =  -931.536716526     A.U. after   13 cycles
 SCF Done:  E(RB3LYP) =  -931.537463641     A.U. after   13 cycles
 SCF Done:  E(RB3LYP) =  -931.537902208     A.U. after   13 cycles
 SCF Done:  E(RB3LYP) =  -931.538567456     A.U. after   13 cycles
 SCF Done:  E(RB3LYP) =  -931.538779693     A.U. after   14 cycles
 SCF Done:  E(RB3LYP) =  -931.538670321     A.U. after   15 cycles
 SCF Done:  E(RB3LYP) =  -931.540605650     A.U. after   12 cycles
 SCF Done:  E(RB3LYP) =  -931.540635924     A.U. after   10 cycles
 SCF Done:  E(RB3LYP) =  -931.540642176     A.U. after   10 cycles
 SCF Done:  E(RB3LYP) =  -931.540642796     A.U. after    8 cycles
 SCF Done:  E(RB3LYP) =  -931.540642907     A.U. after    7 cycles
 Optimization completed.
    -- Stationary point found.
 Normal termination of Gaussian 16 at Mon Dec 14 17:44:07 2020.

 --------------------------------------------------------------------
 #N Geom=AllCheck Guess=TCheck SCRF=Check GenChk RB3LYP/6-31G(d) Freq
 --------------------------------------------------------------------

 Structure from the checkpoint file:  "JID_9997.chk"
 ------------------------------
 CID_43238973_JID_9997_neutraal
 ------------------------------
 Charge =  0 Multiplicity = 1

 SCF Done:  E(RB3LYP) =  -931.540642907     A.U. after    1 cycles

  Exact polarizability: 206.740  19.909 135.679  14.801 -12.978 124.573
 Approx polarizability: 275.250  44.763 228.584  32.359 -28.800 208.096

                      1                      2                      3
                      A                      A                      A
 Frequencies --     19.2968                28.4534                35.1919
 Red. masses --      6.5980                 8.7868                 4.8660
 Frc consts  --      0.0014                 0.0042                 0.0036
 IR Inten    --      0.1507                 0.8375                 0.1927

                      4                      5                      6
                      A                      A                      A
 Frequencies --     48.5685                84.5755               111.1907
 Red. masses --      7.7024                 4.5496                 2.2074
 Frc consts  --      0.0107                 0.0192                 0.0161
 IR Inten    --      0.5990                 5.7782                 2.8018

                      7                      8                      9
                      A                      A                      A
 Frequencies --    128.4615               132.9514               166.1591
 Red. masses --      4.0765                 1.5557                 3.7866
 Frc consts  --      0.0396                 0.0162                 0.0616
 IR Inten    --      1.6478                 3.1680                 1.9859

                     10                     11                     12
                      A                      A                      A
 Frequencies --    186.3945               198.4599               262.8171
 Red. masses --      3.9420                 3.1227                 4.5033
 Frc consts  --      0.0807                 0.0725                 0.1833
 IR Inten    --      2.9399                 2.6273                 0.3025

                     13                     14                     15
                      A                      A                      A
 Frequencies --    264.9487               323.5894               331.7790
 Red. masses --      6.5269                 3.6135                 4.1482
 Frc consts  --      0.2700                 0.2229                 0.2690
 IR Inten    --      3.8402                 4.1515                 5.0521

                     16                     17                     18
                      A                      A                      A
 Frequencies --    343.4330               356.9958               401.8263
 Red. masses --      3.7879                 3.3524                 4.6053
 Frc consts  --      0.2632                 0.2517                 0.4381
 IR Inten    --      3.2759                 8.1856                 1.8363

                     19                     20                     21
                      A                      A                      A
 Frequencies --    425.4183               451.0841               467.7949
 Red. masses --      2.1959                 6.1038                 3.0060
 Frc consts  --      0.2342                 0.7318                 0.3876
 IR Inten    --      5.6666                35.3928                 6.0524

                     22                     23                     24
                      A                      A                      A
 Frequencies --    490.3156               522.7158               549.6778
 Red. masses --      4.1220                 4.0558                 3.5119
 Frc consts  --      0.5839                 0.6529                 0.6252
 IR Inten    --      1.9059                 3.7063                 0.8137

                     25                     26                     27
                      A                      A                      A
 Frequencies --    579.0766               603.7365               607.7755
 Red. masses --      5.0045                 2.6108                 1.6934
 Frc consts  --      0.9887                 0.5607                 0.3686
 IR Inten    --     12.1468                30.4401                41.2796

                     28                     29                     30
                      A                      A                      A
 Frequencies --    633.1651               659.3509               687.4514
 Red. masses --      6.3045                 2.5702                 4.4133
 Frc consts  --      1.4891                 0.6583                 1.2289
 IR Inten    --     29.2601                42.1173                 3.5434

                     31                     32                     33
                      A                      A                      A
 Frequencies --    717.2787               741.2286               782.0057
 Red. masses --      5.1707                 3.3405                 7.9994
 Frc consts  --      1.5674                 1.0813                 2.8822
 IR Inten    --      6.9971                52.0697                 9.7312

                     34                     35                     36
                      A                      A                      A
 Frequencies --    786.5482               828.0498               836.2409
 Red. masses --      6.2159                 1.5377                 2.7384
 Frc consts  --      2.2657                 0.6212                 1.1283
 IR Inten    --     19.4048                 0.5524                 5.2410

                     37                     38                     39
                      A                      A                      A
 Frequencies --    865.9109               885.7050               935.6473
 Red. masses --      1.7846                 3.3875                 3.3741
 Frc consts  --      0.7884                 1.5657                 1.7403
 IR Inten    --     28.7225                13.9588                15.7299

                     40                     41                     42
                      A                      A                      A
 Frequencies --    948.5047               963.7708               999.2896
 Red. masses --      2.7601                 2.3909                 1.6061
 Frc consts  --      1.4630                 1.3085                 0.9449
 IR Inten    --     18.7919                 4.4433                 5.9577

                     43                     44                     45
                      A                      A                      A
 Frequencies --   1015.5577              1020.4998              1050.4248
 Red. masses --      1.5927                 1.7874                 2.3636
 Frc consts  --      0.9678                 1.0967                 1.5366
 IR Inten    --     19.9496                46.8245                44.5041

                     46                     47                     48
                      A                      A                      A
 Frequencies --   1055.6934              1117.6250              1124.0118
 Red. masses --      2.1860                 2.8318                 2.4777
 Frc consts  --      1.4354                 2.0840                 1.8443
 IR Inten    --     22.3635                18.0480                17.7470

                     49                     50                     51
                      A                      A                      A
 Frequencies --   1151.7207              1156.6015              1165.5846
 Red. masses --      1.6629                 1.3084                 1.9833
 Frc consts  --      1.2996                 1.0313                 1.5876
 IR Inten    --    114.1350                 1.1136               287.3099

                     52                     53                     54
                      A                      A                      A
 Frequencies --   1186.6438              1196.0288              1208.9382
 Red. masses --      1.5748                 1.4913                 2.0558
 Frc consts  --      1.3065                 1.2569                 1.7703
 IR Inten    --     22.3359                31.7198                 5.2813

                     55                     56                     57
                      A                      A                      A
 Frequencies --   1219.5226              1290.7711              1297.0612
 Red. masses --      3.0850                 1.8260                 2.5322
 Frc consts  --      2.7033                 1.7925                 2.5100
 IR Inten    --      1.5981                 9.1030                32.6590

                     58                     59                     60
                      A                      A                      A
 Frequencies --   1301.2512              1304.9090              1329.9306
 Red. masses --      1.6315                 1.2550                 1.9384
 Frc consts  --      1.6276                 1.2590                 2.0200
 IR Inten    --     12.6404                 3.0558               124.1884

                     61                     62                     63
                      A                      A                      A
 Frequencies --   1341.5237              1366.2327              1379.8355
 Red. masses --      1.2600                 4.8169                 1.5414
 Frc consts  --      1.3360                 5.2974                 1.7291
 IR Inten    --      2.3173                31.1561                42.0796

                     64                     65                     66
                      A                      A                      A
 Frequencies --   1388.3399              1389.0496              1421.6329
 Red. masses --      1.6267                 1.2779                 1.3498
 Frc consts  --      1.8473                 1.4527                 1.6072
 IR Inten    --     69.6667                 3.4148                10.3023

                     67                     68                     69
                      A                      A                      A
 Frequencies --   1432.9018              1443.9686              1459.0223
 Red. masses --      1.9866                 2.1762                 1.2109
 Frc consts  --      2.4032                 2.6735                 1.5188
 IR Inten    --     34.5823                 9.4395                 2.1676

                     70                     71                     72
                      A                      A                      A
 Frequencies --   1486.4531              1500.6930              1506.0729
 Red. masses --      2.5741                 1.0434                 1.1214
 Frc consts  --      3.3510                 1.3844                 1.4987
 IR Inten    --    190.8078                 6.9702                15.6798

                     73                     74                     75
                      A                      A                      A
 Frequencies --   1507.4750              1522.3634              1527.8026
 Red. masses --      1.1288                 1.0950                 1.0695
 Frc consts  --      1.5113                 1.4952                 1.4708
 IR Inten    --     26.9065                10.7425                 4.8379

                     76                     77                     78
                      A                      A                      A
 Frequencies --   1534.0121              1567.1999              1658.0726
 Red. masses --      1.1471                 8.4380                 7.0196
 Frc consts  --      1.5904                12.2106                11.3702
 IR Inten    --     14.3758                 8.7133                 4.2217

                     79                     80                     81
                      A                      A                      A
 Frequencies --   1723.7765              1782.6100              1844.4466
 Red. masses --     10.9234                10.5953                 9.8912
 Frc consts  --     19.1236                19.8370                19.8259
 IR Inten    --    272.8189               445.3159               241.4267

                     82                     83                     84
                      A                      A                      A
 Frequencies --   3030.0691              3036.7967              3042.5451
 Red. masses --      1.0822                 1.0743                 1.0735
 Frc consts  --      5.8542                 5.8371                 5.8551
 IR Inten    --      5.9118                10.8693                61.1796

                     85                     86                     87
                      A                      A                      A
 Frequencies --   3063.7461              3068.1663              3084.2456
 Red. masses --      1.0617                 1.0610                 1.0327
 Frc consts  --      5.8717                 5.8850                 5.7881
 IR Inten    --     18.6981                16.0694                19.3445

                     88                     89                     90
                      A                      A                      A
 Frequencies --   3110.6607              3117.8459              3149.7310
 Red. masses --      1.1042                 1.1030                 1.1050
 Frc consts  --      6.2951                 6.3171                 6.4591
 IR Inten    --     25.5044                32.3037                 8.4260

                     91                     92                     93
                      A                      A                      A
 Frequencies --   3175.0030              3201.5315              3207.8561
 Red. masses --      1.0928                 1.1055                 1.0894
 Frc consts  --      6.4903                 6.6761                 6.6050
 IR Inten    --      2.7749                 3.1402                 3.4322

                     94                     95                     96
                      A                      A                      A
 Frequencies --   3230.2380              3245.7325              3685.1777
 Red. masses --      1.0889                 1.0967                 1.0640
 Frc consts  --      6.6940                 6.8074                 8.5137
 IR Inten    --      0.6617                 1.9179                53.9684

 - Thermochemistry -
 -------------------
 Temperature   298.150 Kelvin.  Pressure   1.00000 Atm.
 Atom     1 has atomic number  6 and mass  12.00000

 Molecular mass:   265.10626 amu.
 Principal axes and moments of inertia in atomic units:
                           1         2         3
     Eigenvalues --  2127.28411********************
           X            0.99997   0.00728   0.00030
           Y           -0.00723   0.99687  -0.07867
           Z           -0.00087   0.07867   0.99690
 This molecule is an asymmetric top.
 Rotational symmetry number  1.
 Warning -- assumption of classical behavior for rotation
           may cause significant error
 Rotational temperatures (Kelvin)      0.04072     0.00811     0.00774
 Rotational constants (GHZ):           0.84838     0.16901     0.16120
 Zero-point vibrational energy     722654.8 (Joules/Mol)
                                  172.71863 (Kcal/Mol)
 Warning -- explicit consideration of  27 degrees of freedom as
           vibrations may cause significant error
 Vibrational temperatures:     27.76    40.94    50.63    69.88   121.69
          (Kelvin)            159.98   184.83   191.29   239.07   268.18
                              285.54   378.14   381.20   465.57   477.36
                              494.12   513.64   578.14   612.08   649.01
                              673.05   705.45   752.07   790.86   833.16
                              868.64   874.45   910.98   948.66   989.09
                             1032.00  1066.46  1125.13  1131.67  1191.38
                             1203.16  1245.85  1274.33  1346.19  1364.69
                             1386.65  1437.75  1461.16  1468.27  1511.33
                             1518.91  1608.01  1617.20  1657.07  1664.09
                             1677.02  1707.32  1720.82  1739.39  1754.62
                             1857.13  1866.18  1872.21  1877.47  1913.47
                             1930.15  1965.70  1985.28  1997.51  1998.53
                             2045.41  2061.63  2077.55  2099.21  2138.67
                             2159.16  2166.90  2168.92  2190.34  2198.17
                             2207.10  2254.85  2385.60  2480.13  2564.78
                             2653.75  4359.59  4369.27  4377.54  4408.05
                             4414.41  4437.54  4475.55  4485.88  4531.76
                             4568.12  4606.29  4615.39  4647.59  4669.89
                             5302.15

 Zero-point correction=                           0.275245 (Hartree/Particle)
 Thermal correction to Energy=                    0.292462
 Thermal correction to Enthalpy=                  0.293406
 Thermal correction to Gibbs Free Energy=         0.227659
 Sum of electronic and zero-point Energies=           -931.265398
 Sum of electronic and thermal Energies=              -931.248181
 Sum of electronic and thermal Enthalpies=            -931.247237
 Sum of electronic and thermal Free Energies=         -931.312984

                     E (Thermal)             CV                S
                      KCal/Mol        Cal/Mol-Kelvin    Cal/Mol-Kelvin
 Total                  183.523             64.730            138.375
 Electronic               0.000              0.000              0.000
 Translational            0.889              2.981             42.624
 Rotational               0.889              2.981             33.897
 Vibrational            181.745             58.768             61.854
 Vibration     1          0.593              1.986              6.705
 Vibration     2          0.593              1.984              5.934
 Vibration     3          0.594              1.982              5.513
 Vibration     4          0.595              1.978              4.875
 Vibration     5          0.601              1.960              3.782
 Vibration     6          0.607              1.940              3.248
 Vibration     7          0.611              1.925              2.969
 Vibration     8          0.613              1.920              2.903
 Vibration     9          0.624              1.884              2.478
 Vibration    10          0.632              1.858              2.263
 Vibration    11          0.637              1.842              2.147
 Vibration    12          0.670              1.741              1.643
 Vibration    13          0.671              1.737              1.629
 Vibration    14          0.708              1.628              1.292
 Vibration    15          0.714              1.612              1.251
 Vibration    16          0.722              1.589              1.196
 Vibration    17          0.732              1.561              1.135
 Vibration    18          0.767              1.466              0.956
 Vibration    19          0.787              1.415              0.874
 Vibration    20          0.810              1.358              0.793
 Vibration    21          0.825              1.321              0.744
 Vibration    22          0.846              1.272              0.683
 Vibration    23          0.878              1.200              0.604
 Vibration    24          0.905              1.140              0.545
 Vibration    25          0.936              1.077              0.487
 Vibration    26          0.962              1.024              0.443
 Vibration    27          0.967              1.015              0.436

 Optimization completed.
    -- Stationary point found.
 Normal termination of Gaussian 16 at Mon Dec 14 17:59:02 2020.

 ----------------------------------------------------------------------
 # B3LYP/6-311++G(d,p) empiricaldispersion=gd3bj scf=xqc pop=npa geom=c
 heck
 ----------------------------------------------------------------------

 --------------------------------------
 CID_43238973_JID_9997_Energie_neutraal
 --------------------------------------
 Structure from the checkpoint file:  "JID_9997.chk"
 Charge =  0 Multiplicity = 1

 SCF Done:  E(RB3LYP) =  -931.810251249     A.U. after   16 cycles
 Normal termination of Gaussian 16 at Mon Dec 14 18:05:01 2020.

 ----------------------------------------------------------------------
 # B3LYP/6-311++G(d,p) empiricaldispersion=gd3bj scf=xqc pop=npa geom=c
 heck
 ----------------------------------------------------------------------

 ------------------------------------
 CID_43238973_JID_9997_Energie_kation
 ------------------------------------
 Structure from the checkpoint file:  "JID_9997.chk"
 Charge =  1 Multiplicity = 2

 SCF Done:  E(UB3LYP) =  -931.498483970     A.U. after   32 cycles
 Normal termination of Gaussian 16 at Mon Dec 14 18:20:32 2020.
 Gaussian 16:  ES64L-G16RevA.03 25-Dec-2016

 ----------------------------------------------------------------------
 # B3LYP/6-311++G(d,p) empiricaldispersion=gd3bj scf=xqc pop=npa geom=c
 heck
 ----------------------------------------------------------------------

 -----------------------------------
 CID_43238973_JID_9997_Energie_anion
 -----------------------------------
 Structure from the checkpoint file:  "JID_9997.chk"
 Charge = -1 Multiplicity = 2

                         Standard orientation:
 ---------------------------------------------------------------------
 Center     Atomic      Atomic             Coordinates (Angstroms)
 Number     Number       Type             X           Y           Z
 ---------------------------------------------------------------------
      1          6           0       -3.856114   -1.745334    1.309363
      2          7           0       -3.342291   -0.713165    0.412547
      3          6           0       -4.173762   -0.321343   -0.663896
      4          8           0       -5.265069   -0.858177   -0.818016
      5          6           0       -3.593930    0.724991   -1.484319
      6          6           0       -2.369728    1.233076   -1.195127
      7          6           0       -1.639757    0.707272   -0.081562
      8          7           0       -2.129556   -0.230789    0.693759
      9          6           0       -0.328709    1.362267    0.262627
     10          8           0       -0.181170    2.536775   -0.080552
     11          7           0        0.624415    0.678608    0.968994
     12          6           0        1.851489    1.402896    1.307893
     13          6           0        2.984131    1.048267    0.340490
     14          6           0        3.207630   -0.480929    0.318335
     15          6           0        1.894543   -1.218751    0.035008
     16          6           0        0.788216   -0.777657    1.000933
     17          6           0        4.274202   -0.847419   -0.691896
     18          8           0        4.100394   -1.463252   -1.720170
     19          8           0        5.492629   -0.377159   -0.321905
     20          1           0       -4.803531   -1.417225    1.743956
     21          1           0       -4.040953   -2.664898    0.748009
     22          1           0       -3.108513   -1.905803    2.084314
     23          1           0       -4.192979    1.072706   -2.318514
     24          1           0       -1.919106    2.033564   -1.770047
     25          1           0        2.130725    1.124091    2.332916
     26          1           0        1.632944    2.469126    1.278780
     27          1           0        3.906013    1.560398    0.633123
     28          1           0        2.711890    1.397469   -0.663030
     29          1           0        3.587515   -0.773253    1.308008
     30          1           0        1.583073   -1.014807   -0.995541
     31          1           0        2.042763   -2.301587    0.112739
     32          1           0       -0.155488   -1.257897    0.761364
     33          1           0        1.046077   -1.062870    2.030075
     34          1           0        6.108067   -0.631100   -1.035216
 ---------------------------------------------------------------------

 SCF Done:  E(UB3LYP) =  -931.833673076     A.U. after   31 cycles

 The electronic state is 2-A.
 Alpha  occ. eigenvalues --  -19.09857 -19.04082 -18.95298 -18.94658 -14.23658
 Alpha  occ. eigenvalues --  -14.22243 -14.18099 -10.22827 -10.13801 -10.12725
 Alpha  occ. eigenvalues --  -10.10862 -10.10249 -10.09807 -10.08844 -10.07952
 Alpha  occ. eigenvalues --  -10.07927 -10.05741 -10.03895 -10.02194  -1.03720
 Alpha  occ. eigenvalues --   -0.94714  -0.91622  -0.90912  -0.86665  -0.82633
 Alpha  occ. eigenvalues --   -0.73074  -0.71358  -0.66856  -0.65423  -0.61644
 Alpha  occ. eigenvalues --   -0.58835  -0.55158  -0.54511  -0.51749  -0.49515
 Alpha  occ. eigenvalues --   -0.48647  -0.44420  -0.42680  -0.41697  -0.40804
 Alpha  occ. eigenvalues --   -0.38363  -0.38068  -0.36678  -0.36086  -0.34850
 Alpha  occ. eigenvalues --   -0.34399  -0.33268  -0.32620  -0.32287  -0.31582
 Alpha  occ. eigenvalues --   -0.30203  -0.29468  -0.29118  -0.28087  -0.27633
 Alpha  occ. eigenvalues --   -0.26877  -0.25979  -0.25812  -0.25543  -0.25048
 Alpha  occ. eigenvalues --   -0.24585  -0.23773  -0.22171  -0.20549  -0.16720
 Alpha  occ. eigenvalues --   -0.16253  -0.13783  -0.12783  -0.10806  -0.09739
 Alpha  occ. eigenvalues --    0.03141
 Alpha virt. eigenvalues --    0.04684   0.06754   0.07495   0.08440   0.09014
 Alpha virt. eigenvalues --    0.09596   0.10621   0.10659   0.10794   0.11623
 Alpha virt. eigenvalues --    0.11800   0.12375   0.12865   0.13387   0.13777

  Beta  occ. eigenvalues --  -19.09839 -19.04074 -18.95154 -18.94687 -14.23281
  Beta  occ. eigenvalues --  -14.22245 -14.17271 -10.22819 -10.13726 -10.12778
  Beta  occ. eigenvalues --  -10.10855 -10.10249 -10.09801 -10.08836 -10.07952
  Beta  occ. eigenvalues --  -10.07948 -10.05732 -10.03823 -10.01893  -1.03692
  Beta  occ. eigenvalues --   -0.94691  -0.91212  -0.90679  -0.86095  -0.82563
  Beta  occ. eigenvalues --   -0.73024  -0.70768  -0.66836  -0.64782  -0.61548
  Beta  occ. eigenvalues --   -0.58665  -0.55069  -0.54438  -0.51330  -0.49350
  Beta  occ. eigenvalues --   -0.48362  -0.44297  -0.42653  -0.41617  -0.40679
  Beta  occ. eigenvalues --   -0.38131  -0.37973  -0.36604  -0.35954  -0.34373
  Beta  occ. eigenvalues --   -0.33917  -0.33153  -0.32566  -0.32135  -0.31495
  Beta  occ. eigenvalues --   -0.30146  -0.29384  -0.28982  -0.27996  -0.27071
  Beta  occ. eigenvalues --   -0.26764  -0.25695  -0.25681  -0.25428  -0.24859
  Beta  occ. eigenvalues --   -0.24462  -0.23675  -0.20879  -0.20388  -0.16071
  Beta  occ. eigenvalues --   -0.14762  -0.13573  -0.12408  -0.10395  -0.08060
  Beta virt. eigenvalues --    0.05022   0.06781   0.07517   0.08340   0.08957
  Beta virt. eigenvalues --    0.09521   0.10078   0.10619   0.10671   0.11347
  Beta virt. eigenvalues --    0.11527   0.11805   0.12348   0.12832   0.13348

 Mulliken charges and spin densities:
               1          2
     1  C   -0.300488   0.000660
     2  N    0.269110   0.083513
     3  C   -0.049038  -0.033708
     4  O   -0.379518  -0.008703
     5  C   -0.343351   0.254103
     6  C    0.369855   0.051212
     7  C    0.082169   0.019332
     8  N   -0.378134   0.428554
     9  C   -0.784639   0.039689
    10  O   -0.341326   0.048957
    11  N    0.190625  -0.000145
    12  C   -0.471846   0.057243
    13  C   -0.069773  -0.070904
    14  C    0.455155  -0.133690
    15  C   -0.531901  -0.019418
    16  C   -0.479007  -0.036322
    17  C   -0.175695  -0.042863
    18  O   -0.272183   0.003630
    19  O   -0.163096   0.008547
    20  H    0.149917   0.006083
    21  H    0.152685   0.009565
    22  H    0.131075  -0.002587
    23  H    0.143823  -0.018882
    24  H    0.186643  -0.005636
    25  H    0.120706   0.029630
    26  H    0.222355  -0.001917
    27  H    0.145024   0.027236
    28  H    0.183128   0.014512
    29  H    0.118245   0.076102
    30  H    0.219985  -0.003490
    31  H    0.145708   0.020800
    32  H    0.228992   0.005368
    33  H    0.131642   0.002261
    34  H    0.093155   0.191270
 Sum of Mulliken charges =  -1.00000   1.00000

 Dipole moment (field-independent basis, Debye):
    X=              8.7379    Y=             -1.7269    Z=              3.3261  Tot=              9.5077
 Quadrupole moment (field-independent basis, Debye-Ang):
   XX=           -194.8736   YY=           -133.4159   ZZ=           -124.9081
   XY=             -0.2898   XZ=             -5.1221   YZ=             -5.5266

 Summary of Natural Population Analysis:

                                       Natural Population
                Natural  -----------------------------------------------
    Atom  No    Charge         Core      Valence    Rydberg      Total
 -----------------------------------------------------------------------
      C    1   -0.17754      0.99966     2.17089    0.00699     3.17754
      N    2   -0.07907      0.99966     2.56693    0.01248     3.57907
      C    3    0.29634      0.99961     1.68123    0.02282     2.70366
      O    4   -0.35301      0.99988     3.34665    0.00648     4.35301
      C    5   -0.09094      0.99953     2.08180    0.00962     3.09094
      C    6   -0.07359      0.99954     2.06536    0.00869     3.07359
      C    7    0.01776      0.99953     1.96925    0.01345     2.98224
      N    8   -0.01142      0.99964     2.49774    0.01404     3.51142
      C    9    0.34691      0.99960     1.63195    0.02153     2.65309
      O   10   -0.32477      0.99988     3.31940    0.00548     4.32477
      N   11   -0.25951      0.99965     2.74869    0.01117     3.75951
      C   12   -0.08608      0.99962     2.07656    0.00991     3.08608
      C   13   -0.19480      0.99961     2.18444    0.01074     3.19480
      C   14   -0.15814      0.99954     2.14737    0.01123     3.15814
      C   15   -0.19561      0.99962     2.18809    0.00790     3.19561
      C   16   -0.08387      0.99961     2.07543    0.00883     3.08387
      C   17    0.41180      0.99968     1.56153    0.02699     2.58820
      O   18   -0.30473      0.99987     3.29910    0.00577     4.30473
      O   19   -0.34833      0.99988     3.34225    0.00621     4.34833
      H   20    0.09715      0.00000     0.40170    0.00115     0.40285
      H   21    0.09631      0.00000     0.40252    0.00117     0.40369
      H   22    0.09933      0.00000     0.39983    0.00084     0.40067
      H   23    0.09419      0.00000     0.40420    0.00161     0.40581
      H   24    0.10580      0.00000     0.39303    0.00117     0.39420
      H   25    0.08629      0.00000     0.41257    0.00113     0.41371
      H   26    0.11835      0.00000     0.38044    0.00121     0.38165
      H   27    0.10281      0.00000     0.39618    0.00101     0.39719
      H   28    0.10475      0.00000     0.39405    0.00120     0.39525
      H   29    0.10737      0.00000     0.39095    0.00168     0.39263
      H   30    0.10736      0.00000     0.39143    0.00121     0.39264
      H   31    0.10088      0.00000     0.39791    0.00122     0.39912
      H   32    0.12547      0.00000     0.37340    0.00112     0.37453
      H   33    0.08444      0.00000     0.41427    0.00129     0.41556
      H   34    0.23811      0.00000     0.25741    0.00448     0.26189
 =======================================================================
   * Total *   -0.00000     18.99361    50.76457    0.24182    70.00000

 Normal termination of Gaussian 16 at Mon Dec 14 18:35:51 2020.
