 Gaussian 16, Revision A.03,

 -----------------------------------------------------------
 # opt freq B3LYP/6-31G(d) empiricaldispersion=gd3bj scf=xqc
 -----------------------------------------------------------

 -------------------------------
 CID_43323034_JID_10997_neutraal
 -------------------------------
 Symbolic Z-matrix:
 Charge =  0 Multiplicity = 1

 SCF Done:  E(RB3LYP) =  -1368.11831069     A.U. after   15 cycles
 SCF Done:  E(RB3LYP) =  -1368.12522625     A.U. after   13 cycles
 SCF Done:  E(RB3LYP) =  -1368.12577590     A.U. after   13 cycles
 SCF Done:  E(RB3LYP) =  -1368.12800619     A.U. after   13 cycles
 SCF Done:  E(RB3LYP) =  -1368.12945709     A.U. after   13 cycles
 SCF Done:  E(RB3LYP) =  -1368.13033857     A.U. after   14 cycles
 SCF Done:  E(RB3LYP) =  -1368.13100569     A.U. after   12 cycles
 SCF Done:  E(RB3LYP) =  -1368.13120816     A.U. after   11 cycles
 SCF Done:  E(RB3LYP) =  -1368.13126983     A.U. after   12 cycles
 SCF Done:  E(RB3LYP) =  -1368.13131503     A.U. after   11 cycles
 SCF Done:  E(RB3LYP) =  -1368.13179823     A.U. after   12 cycles
 SCF Done:  E(RB3LYP) =  -1368.13180092     A.U. after   10 cycles
 SCF Done:  E(RB3LYP) =  -1368.13179793     A.U. after   11 cycles
 SCF Done:  E(RB3LYP) =  -1368.13180192     A.U. after   10 cycles
 SCF Done:  E(RB3LYP) =  -1368.13180217     A.U. after    8 cycles
 SCF Done:  E(RB3LYP) =  -1368.13180220     A.U. after    7 cycles
 Optimization completed.
    -- Stationary point found.
 Normal termination of Gaussian 16 at Sat Dec 12 16:43:00 2020.

 --------------------------------------------------------------------
 #N Geom=AllCheck Guess=TCheck SCRF=Check GenChk RB3LYP/6-31G(d) Freq
 --------------------------------------------------------------------

 Structure from the checkpoint file:  "JID_10997.chk"
 -------------------------------
 CID_43323034_JID_10997_neutraal
 -------------------------------
 Charge =  0 Multiplicity = 1

 SCF Done:  E(RB3LYP) =  -1368.13180220     A.U. after    1 cycles

  Exact polarizability: 195.856  13.387 151.761  -9.786  27.465 116.129
 Approx polarizability: 310.170  26.742 264.189 -21.734  74.196 205.859

                      1                      2                      3
                      A                      A                      A
 Frequencies --     25.7175                34.4698                55.9521
 Red. masses --      5.6664                 6.5067                 7.7273
 Frc consts  --      0.0022                 0.0046                 0.0143
 IR Inten    --      0.5642                 1.3522                 1.2517

                      4                      5                      6
                      A                      A                      A
 Frequencies --     60.3770                92.2691                93.9012
 Red. masses --      5.9575                 5.9312                 5.3652
 Frc consts  --      0.0128                 0.0298                 0.0279
 IR Inten    --      3.0595                 1.2219                 9.0146

                      7                      8                      9
                      A                      A                      A
 Frequencies --    102.5815               116.2870               129.7250
 Red. masses --      3.3956                 7.2149                 1.0825
 Frc consts  --      0.0211                 0.0575                 0.0107
 IR Inten    --      1.9689                 0.8524                 0.5581

                     10                     11                     12
                      A                      A                      A
 Frequencies --    141.2824               181.2786               225.6257
 Red. masses --      5.8021                 4.3460                 9.3562
 Frc consts  --      0.0682                 0.0841                 0.2806
 IR Inten    --      1.4835                 1.7892                 4.6725

                     13                     14                     15
                      A                      A                      A
 Frequencies --    237.5770               252.6251               281.5128
 Red. masses --      6.6853                 8.0865                 7.4095
 Frc consts  --      0.2223                 0.3041                 0.3460
 IR Inten    --      5.7860                 1.5811                 2.7757

                     16                     17                     18
                      A                      A                      A
 Frequencies --    301.9922               333.5446               336.5523
 Red. masses --      9.5429                 2.4999                 9.4617
 Frc consts  --      0.5128                 0.1639                 0.6314
 IR Inten    --      0.5318                 3.7493                 0.8464

                     19                     20                     21
                      A                      A                      A
 Frequencies --    366.3641               388.2211               431.6729
 Red. masses --      4.7971                 5.8054                 6.1378
 Frc consts  --      0.3794                 0.5155                 0.6739
 IR Inten    --      3.8155                10.5470                 1.7368

                     22                     23                     24
                      A                      A                      A
 Frequencies --    449.6581               501.2508               513.5826
 Red. masses --      3.8453                 5.6837                11.2620
 Frc consts  --      0.4581                 0.8414                 1.7502
 IR Inten    --      6.0547                26.3037                80.1677

                     25                     26                     27
                      A                      A                      A
 Frequencies --    563.7091               588.2689               635.8917
 Red. masses --      5.2660                 3.4103                 2.9942
 Frc consts  --      0.9859                 0.6953                 0.7133
 IR Inten    --     11.4527                 8.6450                 7.9278

                     28                     29                     30
                      A                      A                      A
 Frequencies --    639.2143               643.4783               647.1746
 Red. masses --      5.0798                 2.3887                 4.5002
 Frc consts  --      1.2229                 0.5827                 1.1105
 IR Inten    --      1.3303                84.7946                44.5460

                     31                     32                     33
                      A                      A                      A
 Frequencies --    678.5246               721.7105               746.3650
 Red. masses --      4.6417                 3.9383                 3.8300
 Frc consts  --      1.2591                 1.2086                 1.2571
 IR Inten    --     30.1124                50.9347                13.6619

                     34                     35                     36
                      A                      A                      A
 Frequencies --    756.1251               762.8808               806.7201
 Red. masses --      4.5473                 4.6061                 4.0475
 Frc consts  --      1.5318                 1.5794                 1.5520
 IR Inten    --      9.0999                 9.9435                13.4655

                     37                     38                     39
                      A                      A                      A
 Frequencies --    818.2227               869.2640               878.9007
 Red. masses --      1.3493                 1.7585                 3.2369
 Frc consts  --      0.5322                 0.7829                 1.4732
 IR Inten    --     51.3976                 6.5804                10.3015

                     40                     41                     42
                      A                      A                      A
 Frequencies --    890.9990               900.0604               937.1796
 Red. masses --      3.2814                 1.3522                 4.0271
 Frc consts  --      1.5348                 0.6454                 2.0840
 IR Inten    --     33.7060                 2.0380                24.8607

                     43                     44                     45
                      A                      A                      A
 Frequencies --    948.1156               966.6566               986.0378
 Red. masses --      7.5829                 1.3734                 1.3337
 Frc consts  --      4.0161                 0.7561                 0.7640
 IR Inten    --      6.2737                 2.5137                 0.5187

                     46                     47                     48
                      A                      A                      A
 Frequencies --   1021.8995              1039.5490              1061.6583
 Red. masses --      5.0600                 8.1587                 1.4244
 Frc consts  --      3.1133                 5.1947                 0.9459
 IR Inten    --      7.8953                72.3733                 4.6077

                     49                     50                     51
                      A                      A                      A
 Frequencies --   1092.4580              1116.2723              1128.7901
 Red. masses --      4.6553                 2.1962                 1.6631
 Frc consts  --      3.2734                 1.6124                 1.2486
 IR Inten    --     71.9337                61.0848                 6.0898

                     52                     53                     54
                      A                      A                      A
 Frequencies --   1150.0209              1158.0099              1181.2870
 Red. masses --      3.6746                 1.4630                 1.2522
 Frc consts  --      2.8634                 1.1559                 1.0296
 IR Inten    --    288.1781                87.1584                 0.2548

                     55                     56                     57
                      A                      A                      A
 Frequencies --   1214.7086              1219.0682              1222.6133
 Red. masses --      1.4444                 1.8866                 1.5631
 Frc consts  --      1.2557                 1.6519                 1.3766
 IR Inten    --     36.9402                98.5911                18.8695

                     58                     59                     60
                      A                      A                      A
 Frequencies --   1255.7781              1281.0837              1292.0876
 Red. masses --      1.4460                 1.7104                 3.5655
 Frc consts  --      1.3435                 1.6538                 3.5072
 IR Inten    --     14.2149                63.4769                55.6766

                     61                     62                     63
                      A                      A                      A
 Frequencies --   1293.3159              1326.9037              1354.9199
 Red. masses --      2.4699                 6.0666                 6.5685
 Frc consts  --      2.4341                 6.2932                 7.1046
 IR Inten    --    156.4654                77.1595                16.2860

                     64                     65                     66
                      A                      A                      A
 Frequencies --   1393.3514              1394.2315              1461.7316
 Red. masses --      2.7450                 3.1096                 4.1268
 Frc consts  --      3.1399                 3.5614                 5.1952
 IR Inten    --     27.1597                14.8337               106.3023

                     67                     68                     69
                      A                      A                      A
 Frequencies --   1469.3765              1492.1965              1516.2608
 Red. masses --      1.1713                 1.4264                 1.0598
 Frc consts  --      1.4900                 1.8713                 1.4356
 IR Inten    --      4.4661                21.7426                10.8352

                     70                     71                     72
                      A                      A                      A
 Frequencies --   1519.7378              1525.1577              1535.3905
 Red. masses --      4.7973                 1.0855                 1.9270
 Frc consts  --      6.5280                 1.4877                 2.6766
 IR Inten    --     26.7092                31.9179                30.3935

                     73                     74                     75
                      A                      A                      A
 Frequencies --   1618.2262              1647.7877              1653.0628
 Red. masses --      7.0562                 6.5226                 6.3722
 Frc consts  --     10.8868                10.4345                10.2593
 IR Inten    --     17.1168                10.2926                98.7977

                     76                     77                     78
                      A                      A                      A
 Frequencies --   1805.1128              3045.8252              3107.9959
 Red. masses --      9.6227                 1.0361                 1.0585
 Frc consts  --     18.4737                 5.6634                 6.0241
 IR Inten    --    260.0661                44.5476                 1.1735

                     79                     80                     81
                      A                      A                      A
 Frequencies --   3121.4167              3174.2982              3175.7371
 Red. masses --      1.1009                 1.1046                 1.1087
 Frc consts  --      6.3199                 6.5577                 6.5879
 IR Inten    --     22.9845                28.0665                 0.2632

                     82                     83                     84
                      A                      A                      A
 Frequencies --   3216.8415              3229.5839              3257.7773
 Red. masses --      1.0882                 1.0953                 1.0905
 Frc consts  --      6.6349                 6.7307                 6.8188
 IR Inten    --      1.3934                 2.5425                 5.1489

                     85                     86                     87
                      A                      A                      A
 Frequencies --   3271.6711              3304.2974              3680.9039
 Red. masses --      1.0953                 1.1008                 1.0638
 Frc consts  --      6.9074                 7.0813                 8.4922
 IR Inten    --      0.8931                 1.6480                70.6699

 - Thermochemistry -
 -------------------
 Temperature   298.150 Kelvin.  Pressure   1.00000 Atm.
 Atom     1 has atomic number  6 and mass  12.00000

 Molecular mass:   297.03071 amu.
 Principal axes and moments of inertia in atomic units:
                           1         2         3
     Eigenvalues --  3614.778476605.642357658.91628
           X            0.99993  -0.00997  -0.00646
           Y            0.01024   0.99898   0.04399
           Z            0.00602  -0.04406   0.99901
 This molecule is an asymmetric top.
 Rotational symmetry number  1.
 Warning -- assumption of classical behavior for rotation
           may cause significant error
 Rotational temperatures (Kelvin)      0.02396     0.01311     0.01131
 Rotational constants (GHZ):           0.49927     0.27321     0.23564
 Zero-point vibrational energy     592557.7 (Joules/Mol)
                                  141.62470 (Kcal/Mol)
 Warning -- explicit consideration of  26 degrees of freedom as
           vibrations may cause significant error
 Vibrational temperatures:     37.00    49.59    80.50    86.87   132.75
          (Kelvin)            135.10   147.59   167.31   186.65   203.27
                              260.82   324.63   341.82   363.47   405.03
                              434.50   479.90   484.22   527.12   558.56
                              621.08   646.96   721.19   738.93   811.05
                              846.39   914.91   919.69   925.82   931.14
                              976.25  1038.38  1073.85  1087.90  1097.62
                             1160.69  1177.24  1250.68  1264.54  1281.95
                             1294.99  1348.39  1364.13  1390.80  1418.69
                             1470.29  1495.68  1527.49  1571.80  1606.07
                             1624.08  1654.62  1666.12  1699.61  1747.69
                             1753.97  1759.07  1806.78  1843.19  1859.03
                             1860.79  1909.12  1949.43  2004.72  2005.99
                             2103.11  2114.11  2146.94  2181.56  2186.56
                             2194.36  2209.08  2328.27  2370.80  2378.39
                             2597.15  4382.26  4471.71  4491.02  4567.11
                             4569.18  4628.32  4646.65  4687.21  4707.20
                             4754.15  5296.00

 Zero-point correction=                           0.225693 (Hartree/Particle)
 Thermal correction to Energy=                    0.243900
 Thermal correction to Enthalpy=                  0.244844
 Thermal correction to Gibbs Free Energy=         0.177738
 Sum of electronic and zero-point Energies=          -1367.906109
 Sum of electronic and thermal Energies=             -1367.887902
 Sum of electronic and thermal Enthalpies=           -1367.886958
 Sum of electronic and thermal Free Energies=        -1367.954064

                     E (Thermal)             CV                S
                      KCal/Mol        Cal/Mol-Kelvin    Cal/Mol-Kelvin
 Total                  153.050             67.275            141.237
 Electronic               0.000              0.000              0.000
 Translational            0.889              2.981             42.963
 Rotational               0.889              2.981             33.569
 Vibrational            151.272             61.314             64.704
 Vibration     1          0.593              1.985              6.135
 Vibration     2          0.594              1.983              5.554
 Vibration     3          0.596              1.975              4.595
 Vibration     4          0.597              1.973              4.445
 Vibration     5          0.602              1.955              3.611
 Vibration     6          0.603              1.954              3.577
 Vibration     7          0.605              1.947              3.405
 Vibration     8          0.608              1.936              3.161
 Vibration     9          0.612              1.924              2.950
 Vibration    10          0.615              1.912              2.786
 Vibration    11          0.630              1.865              2.315
 Vibration    12          0.650              1.802              1.913
 Vibration    13          0.656              1.783              1.821
 Vibration    14          0.664              1.758              1.712
 Vibration    15          0.681              1.708              1.524
 Vibration    16          0.694              1.670              1.406
 Vibration    17          0.715              1.609              1.243
 Vibration    18          0.717              1.602              1.228
 Vibration    19          0.739              1.541              1.095
 Vibration    20          0.756              1.495              1.007
 Vibration    21          0.793              1.401              0.853
 Vibration    22          0.809              1.362              0.797
 Vibration    23          0.857              1.247              0.655
 Vibration    24          0.869              1.220              0.625
 Vibration    25          0.919              1.110              0.516
 Vibration    26          0.945              1.057              0.470

 Optimization completed.
    -- Stationary point found.
 Normal termination of Gaussian 16 at Sat Dec 12 17:00:42 2020.

 ----------------------------------------------------------------------
 # B3LYP/6-311++G(d,p) empiricaldispersion=gd3bj scf=xqc pop=npa geom=c
 heck
 ----------------------------------------------------------------------

 ---------------------------------------
 CID_43323034_JID_10997_Energie_neutraal
 ---------------------------------------
 Structure from the checkpoint file:  "JID_10997.chk"
 Charge =  0 Multiplicity = 1

 SCF Done:  E(RB3LYP) =  -1368.43536024     A.U. after   16 cycles
 Normal termination of Gaussian 16 at Sat Dec 12 17:07:47 2020.

 ----------------------------------------------------------------------
 # B3LYP/6-311++G(d,p) empiricaldispersion=gd3bj scf=xqc pop=npa geom=c
 heck
 ----------------------------------------------------------------------

 -------------------------------------
 CID_43323034_JID_10997_Energie_kation
 -------------------------------------
 Structure from the checkpoint file:  "JID_10997.chk"
 Charge =  1 Multiplicity = 2

 SCF Done:  E(UB3LYP) =  -1368.09984272     A.U. after   30 cycles
 Normal termination of Gaussian 16 at Sat Dec 12 17:26:33 2020.
 Gaussian 16:  ES64L-G16RevA.03 25-Dec-2016

 ----------------------------------------------------------------------
 # B3LYP/6-311++G(d,p) empiricaldispersion=gd3bj scf=xqc pop=npa geom=c
 heck
 ----------------------------------------------------------------------

 ------------------------------------
 CID_43323034_JID_10997_Energie_anion
 ------------------------------------
 Structure from the checkpoint file:  "JID_10997.chk"
 Charge = -1 Multiplicity = 2

                         Standard orientation:
 ---------------------------------------------------------------------
 Center     Atomic      Atomic             Coordinates (Angstroms)
 Number     Number       Type             X           Y           Z
 ---------------------------------------------------------------------
      1          6           0        3.580393   -0.758483   -1.535352
      2          8           0        3.137577   -1.584653   -0.449809
      3          6           0        1.827925   -1.413610   -0.115488
      4          6           0        1.394752   -0.378845    0.742256
      5          6           0        0.027902   -0.257928    1.011236
      6          6           0       -0.881740   -1.122423    0.416770
      7          6           0       -0.459249   -2.168091   -0.406498
      8          6           0        0.899739   -2.316957   -0.649553
      9         16           0       -2.612650   -0.695402    0.478711
     10          8           0       -3.424063   -1.879522    0.163450
     11          8           0       -2.859426    0.114373    1.680351
     12          6           0       -2.744286    0.455663   -0.977028
     13          6           0       -1.621069    1.418320   -0.995869
     14          6           0       -1.309085    2.515548   -0.247707
     15          6           0        0.014793    2.833502   -0.655737
     16          7           0        0.467346    2.010821   -1.574975
     17          8           0       -0.575424    1.104371   -1.798015
     18          6           0        2.258228    0.663088    1.366918
     19          8           0        1.813872    1.640762    1.938746
     20          8           0        3.586215    0.446156    1.256792
     21          1           0        4.653777   -0.929366   -1.625933
     22          1           0        3.387883    0.299252   -1.332453
     23          1           0        3.074885   -1.046709   -2.465433
     24          1           0       -0.309549    0.541615    1.657664
     25          1           0       -1.188760   -2.836504   -0.851754
     26          1           0        1.274076   -3.113655   -1.283390
     27          1           0       -2.756009   -0.171026   -1.870516
     28          1           0       -3.714896    0.940038   -0.843782
     29          1           0       -1.913766    2.990060    0.509323
     30          1           0        0.658563    3.625411   -0.296768
     31          1           0        4.004946    1.200959    1.712681
 ---------------------------------------------------------------------

 SCF Done:  E(UB3LYP) =  -1368.46235680     A.U. after   26 cycles

 The electronic state is 2-A.
 Alpha  occ. eigenvalues --  -88.92645 -19.10411 -19.03299 -19.01057 -19.00183
 Alpha  occ. eigenvalues --  -18.99970 -18.95962 -14.25695 -10.14909 -10.14597
 Alpha  occ. eigenvalues --  -10.11626 -10.10687 -10.10032 -10.08971 -10.08140
 Alpha  occ. eigenvalues --  -10.06547 -10.05407 -10.04297 -10.04179 -10.03640
 Alpha  occ. eigenvalues --   -7.99117  -5.95396  -5.95299  -5.95188  -1.03990
 Alpha  occ. eigenvalues --   -0.99128  -0.97223  -0.93022  -0.89067  -0.87490
 Alpha  occ. eigenvalues --   -0.77099  -0.73609  -0.71821  -0.65826  -0.63626
 Alpha  occ. eigenvalues --   -0.63158  -0.58257  -0.53557  -0.52508  -0.51672
 Alpha  occ. eigenvalues --   -0.48409  -0.46995  -0.45530  -0.42719  -0.40756
 Alpha  occ. eigenvalues --   -0.39236  -0.38386  -0.37094  -0.36411  -0.35699
 Alpha  occ. eigenvalues --   -0.34721  -0.34352  -0.34117  -0.33478  -0.33216
 Alpha  occ. eigenvalues --   -0.31475  -0.31120  -0.30779  -0.30259  -0.29002
 Alpha  occ. eigenvalues --   -0.28397  -0.27032  -0.24942  -0.23640  -0.22809
 Alpha  occ. eigenvalues --   -0.22084  -0.21107  -0.20914  -0.20346  -0.19594
 Alpha  occ. eigenvalues --   -0.19071  -0.18653  -0.15362  -0.15156  -0.14470
 Alpha  occ. eigenvalues --   -0.13475  -0.12767   0.03013
 Alpha virt. eigenvalues --    0.06522   0.07967   0.08423   0.09099   0.09366
 Alpha virt. eigenvalues --    0.10041   0.10409   0.10951   0.12094   0.12427
 Alpha virt. eigenvalues --    0.12555   0.13004   0.13833   0.14404   0.14826

  Beta  occ. eigenvalues --  -88.92623 -19.10369 -19.03232 -19.01044 -19.00182
  Beta  occ. eigenvalues --  -18.99955 -18.95706 -14.25659 -10.14684 -10.14538
  Beta  occ. eigenvalues --  -10.11599 -10.10673 -10.09979 -10.08596 -10.08153
  Beta  occ. eigenvalues --  -10.06544 -10.05388 -10.04413 -10.04032 -10.03160
  Beta  occ. eigenvalues --   -7.99095  -5.95380  -5.95240  -5.95175  -1.03915
  Beta  occ. eigenvalues --   -0.99088  -0.96958  -0.92861  -0.89052  -0.87103
  Beta  occ. eigenvalues --   -0.77028  -0.73281  -0.71687  -0.65639  -0.63171
  Beta  occ. eigenvalues --   -0.62834  -0.58091  -0.53278  -0.52281  -0.51273
  Beta  occ. eigenvalues --   -0.48297  -0.46846  -0.45272  -0.42619  -0.40635
  Beta  occ. eigenvalues --   -0.39035  -0.38263  -0.36905  -0.36330  -0.35555
  Beta  occ. eigenvalues --   -0.34478  -0.34093  -0.33872  -0.33361  -0.33034
  Beta  occ. eigenvalues --   -0.31178  -0.30744  -0.30574  -0.29888  -0.28950
  Beta  occ. eigenvalues --   -0.28189  -0.26822  -0.24268  -0.23426  -0.22609
  Beta  occ. eigenvalues --   -0.21748  -0.21039  -0.20824  -0.20104  -0.19539
  Beta  occ. eigenvalues --   -0.18598  -0.17992  -0.15185  -0.15043  -0.14147
  Beta  occ. eigenvalues --   -0.12322  -0.11362
  Beta virt. eigenvalues --    0.06871   0.07823   0.08362   0.09116   0.09248
  Beta virt. eigenvalues --    0.09749   0.10023   0.10527   0.10906   0.12088
  Beta virt. eigenvalues --    0.12439   0.12554   0.13134   0.13882   0.14419

 Mulliken charges and spin densities:
               1          2
     1  C   -0.266667  -0.036829
     2  O   -0.126005   0.000757
     3  C   -0.979664   0.276347
     4  C    0.623906   0.081951
     5  C   -0.406066   0.006129
     6  C    0.251198  -0.038624
     7  C   -0.195201   0.408878
     8  C   -0.268862  -0.104993
     9  S    0.357033   0.050178
    10  O   -0.116976  -0.012602
    11  O   -0.176785   0.019516
    12  C   -1.081017   0.007687
    13  C   -0.011470   0.063791
    14  C    0.068877  -0.026186
    15  C   -0.162928   0.007715
    16  N   -0.091720   0.018736
    17  O    0.210385   0.003160
    18  C   -0.134774   0.125614
    19  O   -0.376158   0.091197
    20  O   -0.186184   0.010355
    21  H    0.104528   0.023337
    22  H    0.156470   0.009265
    23  H    0.098542   0.011515
    24  H    0.288645   0.000880
    25  H    0.198531  -0.029212
    26  H    0.136669   0.012289
    27  H    0.248112   0.007228
    28  H    0.221166  -0.001416
    29  H    0.183406  -0.001599
    30  H    0.178659   0.009037
    31  H    0.254349   0.005899
 Sum of Mulliken charges =  -1.00000   1.00000

 Dipole moment (field-independent basis, Debye):
    X=              0.0895    Y=              3.2890    Z=             -3.6335  Tot=              4.9018
 Quadrupole moment (field-independent basis, Debye-Ang):
   XX=           -155.9486   YY=           -140.9880   ZZ=           -142.5805
   XY=             -6.3101   XZ=              5.9718   YZ=              2.4171

 Summary of Natural Population Analysis:

                                       Natural Population
                Natural  -----------------------------------------------
    Atom  No    Charge         Core      Valence    Rydberg      Total
 -----------------------------------------------------------------------
      C    1   -0.08928      0.99959     2.08159    0.00809     3.08928
      O    2   -0.28968      0.99986     3.27960    0.01023     4.28968
      C    3    0.24865      0.99936     1.73952    0.01246     2.75135
      C    4   -0.08277      0.99940     2.07002    0.01336     3.08277
      C    5   -0.06572      0.99949     2.05576    0.01047     3.06572
      C    6   -0.16548      0.99936     2.15192    0.01420     3.16548
      C    7    0.00286      0.99951     1.98747    0.01015     2.99714
      C    8   -0.14890      0.99953     2.14042    0.00895     3.14890
      S    9    1.03697      4.99917     1.86780    0.09606     6.96303
      O   10   -0.47180      0.99991     3.46605    0.00584     4.47180
      O   11   -0.47042      0.99991     3.46463    0.00589     4.47042
      C   12   -0.30448      0.99953     2.29230    0.01265     3.30448
      C   13    0.16670      0.99949     1.81904    0.01478     2.83330
      C   14   -0.16748      0.99947     2.16042    0.00758     3.16748
      C   15    0.00356      0.99966     1.98329    0.01349     2.99644
      N   16   -0.07229      0.99972     2.55761    0.01497     3.57229
      O   17   -0.16295      0.99985     3.15245    0.01065     4.16295
      C   18    0.42549      0.99967     1.55002    0.02482     2.57451
      O   19   -0.30832      0.99987     3.30224    0.00621     4.30832
      O   20   -0.34161      0.99988     3.33463    0.00710     4.34161
      H   21    0.08137      0.00000     0.41729    0.00135     0.41863
      H   22    0.08904      0.00000     0.40911    0.00184     0.41096
      H   23    0.07657      0.00000     0.42143    0.00200     0.42343
      H   24    0.12203      0.00000     0.37656    0.00141     0.37797
      H   25    0.10001      0.00000     0.39883    0.00117     0.39999
      H   26    0.09823      0.00000     0.40025    0.00152     0.40177
      H   27    0.12241      0.00000     0.37624    0.00134     0.37759
      H   28    0.11751      0.00000     0.38108    0.00140     0.38249
      H   29    0.11625      0.00000     0.38279    0.00096     0.38375
      H   30    0.10565      0.00000     0.39353    0.00083     0.39435
      H   31    0.22786      0.00000     0.26741    0.00473     0.27214
 =======================================================================
   * Total *   -0.00000     23.99222    52.68127    0.32651    77.00000

 Normal termination of Gaussian 16 at Sat Dec 12 17:42:53 2020.
