 Gaussian 16, Revision A.03,

 -----------------------------------------------------------
 # opt freq B3LYP/6-31G(d) empiricaldispersion=gd3bj scf=xqc
 -----------------------------------------------------------

 -------------------------------
 CID_64148482_JID_10931_neutraal
 -------------------------------
 Symbolic Z-matrix:
 Charge =  0 Multiplicity = 1

 SCF Done:  E(RB3LYP) =  -1272.66006159     A.U. after   15 cycles
 SCF Done:  E(RB3LYP) =  -1272.66707091     A.U. after   12 cycles
 SCF Done:  E(RB3LYP) =  -1272.66799489     A.U. after   12 cycles
 SCF Done:  E(RB3LYP) =  -1272.66826276     A.U. after   12 cycles
 SCF Done:  E(RB3LYP) =  -1272.66835862     A.U. after   11 cycles
 SCF Done:  E(RB3LYP) =  -1272.66838795     A.U. after   10 cycles
 SCF Done:  E(RB3LYP) =  -1272.66840397     A.U. after   10 cycles
 SCF Done:  E(RB3LYP) =  -1272.66841172     A.U. after    9 cycles
 SCF Done:  E(RB3LYP) =  -1272.66841499     A.U. after    9 cycles
 SCF Done:  E(RB3LYP) =  -1272.66842741     A.U. after    9 cycles
 SCF Done:  E(RB3LYP) =  -1272.66852950     A.U. after    9 cycles
 SCF Done:  E(RB3LYP) =  -1272.66853038     A.U. after    9 cycles
 SCF Done:  E(RB3LYP) =  -1272.66853058     A.U. after    7 cycles
 SCF Done:  E(RB3LYP) =  -1272.66853063     A.U. after    7 cycles
 SCF Done:  E(RB3LYP) =  -1272.66853064     A.U. after    6 cycles
 Optimization completed.
    -- Stationary point found.
 Normal termination of Gaussian 16 at Sat Dec 12 16:40:15 2020.

 --------------------------------------------------------------------
 #N Geom=AllCheck Guess=TCheck SCRF=Check GenChk RB3LYP/6-31G(d) Freq
 --------------------------------------------------------------------

 Structure from the checkpoint file:  "JID_10931.chk"
 -------------------------------
 CID_64148482_JID_10931_neutraal
 -------------------------------
 Charge =  0 Multiplicity = 1

 SCF Done:  E(RB3LYP) =  -1272.66853064     A.U. after    1 cycles

  Exact polarizability: 224.627 -20.944 167.400  20.302  12.195 133.848
 Approx polarizability: 292.764 -30.886 280.999  35.011  32.404 234.479

                      1                      2                      3
                      A                      A                      A
 Frequencies --     19.2759                23.2480                37.4442
 Red. masses --      4.9871                 4.1353                 4.1938
 Frc consts  --      0.0011                 0.0013                 0.0035
 IR Inten    --      0.7315                 1.5312                 0.7087

                      4                      5                      6
                      A                      A                      A
 Frequencies --     62.6759                69.3135                74.9029
 Red. masses --      1.4931                 2.3067                 4.3878
 Frc consts  --      0.0035                 0.0065                 0.0145
 IR Inten    --      0.4594                 0.5261                 0.2967

                      7                      8                      9
                      A                      A                      A
 Frequencies --    118.9676               133.5898               159.2693
 Red. masses --      4.5988                 6.5186                 4.4143
 Frc consts  --      0.0383                 0.0685                 0.0660
 IR Inten    --      1.1722                 3.0826                 5.2289

                     10                     11                     12
                      A                      A                      A
 Frequencies --    177.7865               202.5570               248.7135
 Red. masses --      5.5912                 3.8424                 4.9436
 Frc consts  --      0.1041                 0.0929                 0.1802
 IR Inten    --      1.3279                 1.5710                 5.6898

                     13                     14                     15
                      A                      A                      A
 Frequencies --    271.9491               293.4723               312.0849
 Red. masses --      4.7658                 3.9707                 1.1584
 Frc consts  --      0.2077                 0.2015                 0.0665
 IR Inten    --      3.2368                 2.6605                39.9843

                     16                     17                     18
                      A                      A                      A
 Frequencies --    330.9153               340.2691               351.3555
 Red. masses --      3.9466                 8.3371                 5.5347
 Frc consts  --      0.2546                 0.5687                 0.4026
 IR Inten    --      0.6543                 5.4961                 1.5668

                     19                     20                     21
                      A                      A                      A
 Frequencies --    381.3524               433.1772               442.0172
 Red. masses --      2.9250                 2.9646                 3.6655
 Frc consts  --      0.2506                 0.3278                 0.4220
 IR Inten    --     10.7845                11.1584                 7.0937

                     22                     23                     24
                      A                      A                      A
 Frequencies --    460.3458               487.6711               509.9976
 Red. masses --      3.6527                 3.0510                 2.3917
 Frc consts  --      0.4561                 0.4275                 0.3665
 IR Inten    --      8.6005                17.7641                37.7725

                     25                     26                     27
                      A                      A                      A
 Frequencies --    539.8236               570.1363               577.6915
 Red. masses --      4.3760                 5.6018                 1.7262
 Frc consts  --      0.7513                 1.0729                 0.3394
 IR Inten    --     38.7185                18.1970                47.3281

                     28                     29                     30
                      A                      A                      A
 Frequencies --    586.1579               626.8087               644.7947
 Red. masses --      7.5362                 4.4659                 3.0358
 Frc consts  --      1.5256                 1.0338                 0.7437
 IR Inten    --     85.4065                14.8125                36.8203

                     31                     32                     33
                      A                      A                      A
 Frequencies --    660.7075               698.8243               703.2417
 Red. masses --      3.3545                 2.7944                 4.4412
 Frc consts  --      0.8628                 0.8040                 1.2941
 IR Inten    --     88.4811                 7.7591                 9.7780

                     34                     35                     36
                      A                      A                      A
 Frequencies --    721.8029               742.2396               773.7016
 Red. masses --      4.0506                 2.7609                 1.4903
 Frc consts  --      1.2434                 0.8962                 0.5256
 IR Inten    --      7.0665                19.7853                16.7768

                     37                     38                     39
                      A                      A                      A
 Frequencies --    838.1609               849.8722               856.9950
 Red. masses --      3.9774                 2.6420                 1.3722
 Frc consts  --      1.6463                 1.1243                 0.5938
 IR Inten    --      2.1171               109.6656                38.1339

                     40                     41                     42
                      A                      A                      A
 Frequencies --    870.8939               890.3632               899.4797
 Red. masses --      3.0861                 1.4768                 2.7104
 Frc consts  --      1.3791                 0.6898                 1.2920
 IR Inten    --     29.4825                 7.0761                68.9202

                     43                     44                     45
                      A                      A                      A
 Frequencies --    929.3573               944.7572               951.6827
 Red. masses --      1.6223                 1.6880                 1.8062
 Frc consts  --      0.8255                 0.8877                 0.9638
 IR Inten    --    114.8641                27.4041                 9.3407

                     46                     47                     48
                      A                      A                      A
 Frequencies --    988.2685               993.3830              1008.2999
 Red. masses --      1.2625                 2.4298                 2.4355
 Frc consts  --      0.7265                 1.4127                 1.4589
 IR Inten    --      0.0024                15.2930                 1.7112

                     49                     50                     51
                      A                      A                      A
 Frequencies --   1032.6701              1038.0054              1056.0413
 Red. masses --      4.0337                 2.4281                 2.2597
 Frc consts  --      2.5344                 1.5414                 1.4848
 IR Inten    --     36.4244                59.7360                 3.9050

                     52                     53                     54
                      A                      A                      A
 Frequencies --   1067.8789              1076.8941              1104.2862
 Red. masses --      3.8425                 1.4810                 1.8525
 Frc consts  --      2.5817                 1.0120                 1.3310
 IR Inten    --     60.0762                 3.0875                 4.9786

                     55                     56                     57
                      A                      A                      A
 Frequencies --   1108.6883              1126.6276              1161.9122
 Red. masses --      9.0497                 2.0683                 1.8471
 Frc consts  --      6.5539                 1.5468                 1.4692
 IR Inten    --    110.9672                 0.7558               140.6389

                     58                     59                     60
                      A                      A                      A
 Frequencies --   1167.3811              1192.3950              1195.7551
 Red. masses --      1.2072                 1.1698                 1.8448
 Frc consts  --      0.9693                 0.9800                 1.5541
 IR Inten    --      2.9698                 1.0717                 1.3234

                     61                     62                     63
                      A                      A                      A
 Frequencies --   1203.4770              1214.7315              1242.4687
 Red. masses --      1.4107                 1.9439                 2.1012
 Frc consts  --      1.2038                 1.6900                 1.9111
 IR Inten    --      6.6801                11.8697                 1.2239

                     64                     65                     66
                      A                      A                      A
 Frequencies --   1283.1749              1298.0780              1299.3880
 Red. masses --      1.7806                 2.8958                 2.5427
 Frc consts  --      1.7274                 2.8749                 2.5294
 IR Inten    --     13.0566                81.3137                 4.8486

                     67                     68                     69
                      A                      A                      A
 Frequencies --   1313.2760              1334.1652              1354.5500
 Red. masses --      2.2910                 1.6752                 1.3796
 Frc consts  --      2.3280                 1.7569                 1.4913
 IR Inten    --     35.2374                 1.8022                57.2348

                     70                     71                     72
                      A                      A                      A
 Frequencies --   1369.2985              1380.3781              1397.2828
 Red. masses --      1.7638                 2.4935                 3.3083
 Frc consts  --      1.9485                 2.7994                 3.8056
 IR Inten    --      4.2180                 7.1809                12.4974

                     73                     74                     75
                      A                      A                      A
 Frequencies --   1418.2234              1426.6618              1436.4006
 Red. masses --      1.4127                 3.4939                 1.3774
 Frc consts  --      1.6742                 4.1898                 1.6745
 IR Inten    --     62.3939                20.7941                12.9250

                     76                     77                     78
                      A                      A                      A
 Frequencies --   1442.5340              1500.9350              1510.6546
 Red. masses --      1.4109                 1.1881                 2.2273
 Frc consts  --      1.7298                 1.5770                 2.9947
 IR Inten    --      1.2291                 3.9560                 5.6274

                     79                     80                     81
                      A                      A                      A
 Frequencies --   1512.4077              1518.7062              1525.2048
 Red. masses --      1.0433                 1.8788                 2.0796
 Frc consts  --      1.4060                 2.5531                 2.8503
 IR Inten    --      8.5763                40.5227                29.7170

                     82                     83                     84
                      A                      A                      A
 Frequencies --   1529.0117              1593.9791              1646.3302
 Red. masses --      2.3998                 4.3233                 6.0694
 Frc consts  --      3.3055                 6.4719                 9.6924
 IR Inten    --     11.1865                40.4033                 0.3179

                     85                     86                     87
                      A                      A                      A
 Frequencies --   1668.8188              1696.8278              3053.6713
 Red. masses --      6.3958                 1.0926                 1.0395
 Frc consts  --     10.4945                 1.8535                 5.7112
 IR Inten    --      2.1991                25.0004                23.5531

                     88                     89                     90
                      A                      A                      A
 Frequencies --   3058.0368              3063.1477              3105.7616
 Red. masses --      1.0656                 1.0853                 1.1018
 Frc consts  --      5.8714                 5.9997                 6.2615
 IR Inten    --     14.5526                20.4569                13.0612

                     91                     92                     93
                      A                      A                      A
 Frequencies --   3115.9226              3130.9697              3168.6995
 Red. masses --      1.0986                 1.0862                 1.0985
 Frc consts  --      6.2843                 6.2736                 6.4984
 IR Inten    --     11.3454                29.8829                 2.5525

                     94                     95                     96
                      A                      A                      A
 Frequencies --   3179.6114              3186.7302              3198.5694
 Red. masses --      1.0872                 1.0881                 1.0925
 Frc consts  --      6.4758                 6.5106                 6.5857
 IR Inten    --      5.5845                 1.5766                24.8447

                     97                     98                     99
                      A                      A                      A
 Frequencies --   3211.2298              3279.8390              3452.5966
 Red. masses --      1.0970                 1.0976                 1.0493
 Frc consts  --      6.6651                 6.9566                 7.3694
 IR Inten    --     28.9411                 1.3598                 0.5555

                    100                    101                    102
                      A                      A                      A
 Frequencies --   3530.3616              3539.7320              3631.4777
 Red. masses --      1.0757                 1.0922                 1.0809
 Frc consts  --      7.8995                 8.0629                 8.3982
 IR Inten    --     30.5930                 0.1116                73.6603

 - Thermochemistry -
 -------------------
 Temperature   298.150 Kelvin.  Pressure   1.00000 Atm.
 Atom     1 has atomic number  6 and mass  12.00000

 Molecular mass:   292.09940 amu.
 Principal axes and moments of inertia in atomic units:
                           1         2         3
     Eigenvalues --  3037.666979169.58559**********
           X            0.99988  -0.01385   0.00633
           Y            0.01389   0.99988  -0.00660
           Z           -0.00624   0.00669   0.99996
 This molecule is an asymmetric top.
 Rotational symmetry number  1.
 Warning -- assumption of classical behavior for rotation
           may cause significant error
 Rotational temperatures (Kelvin)      0.02851     0.00945     0.00843
 Rotational constants (GHZ):           0.59412     0.19682     0.17557
 Zero-point vibrational energy     760595.6 (Joules/Mol)
                                  181.78671 (Kcal/Mol)
 Warning -- explicit consideration of  28 degrees of freedom as
           vibrations may cause significant error
 Vibrational temperatures:     27.73    33.45    53.87    90.18    99.73
          (Kelvin)            107.77   171.17   192.21   229.15   255.80
                              291.43   357.84   391.27   422.24   449.02
                              476.11   489.57   505.52   548.68   623.25
                              635.96   662.33   701.65   733.77   776.69
                              820.30   831.17   843.35   901.84   927.72
                              950.61  1005.45  1011.81  1038.51  1067.92
                             1113.18  1205.93  1222.78  1233.02  1253.02
                             1281.03  1294.15  1337.14  1359.29  1369.26
                             1421.90  1429.26  1450.72  1485.78  1493.46
                             1519.41  1536.44  1549.41  1588.82  1595.16
                             1620.97  1671.73  1679.60  1715.59  1720.42
                             1731.53  1747.73  1787.64  1846.20  1867.64
                             1869.53  1889.51  1919.57  1948.90  1970.12
                             1986.06  2010.38  2040.51  2052.65  2066.66
                             2075.48  2159.51  2173.50  2176.02  2185.08
                             2194.43  2199.91  2293.38  2368.70  2401.06
                             2441.36  4393.55  4399.83  4407.19  4468.50
                             4483.12  4504.77  4559.05  4574.75  4584.99
                             4602.03  4620.24  4718.96  4967.52  5079.40
                             5092.88  5224.89

 Zero-point correction=                           0.289696 (Hartree/Particle)
 Thermal correction to Energy=                    0.307945
 Thermal correction to Enthalpy=                  0.308889
 Thermal correction to Gibbs Free Energy=         0.241008
 Sum of electronic and zero-point Energies=          -1272.378835
 Sum of electronic and thermal Energies=             -1272.360586
 Sum of electronic and thermal Enthalpies=           -1272.359642
 Sum of electronic and thermal Free Energies=        -1272.427522

                     E (Thermal)             CV                S
                      KCal/Mol        Cal/Mol-Kelvin    Cal/Mol-Kelvin
 Total                  193.238             69.915            142.867
 Electronic               0.000              0.000              0.000
 Translational            0.889              2.981             42.913
 Rotational               0.889              2.981             34.014
 Vibrational            191.461             63.953             65.939
 Vibration     1          0.593              1.986              6.707
 Vibration     2          0.593              1.985              6.335
 Vibration     3          0.594              1.982              5.390
 Vibration     4          0.597              1.972              4.371
 Vibration     5          0.598              1.969              4.173
 Vibration     6          0.599              1.966              4.020
 Vibration     7          0.609              1.934              3.117
 Vibration     8          0.613              1.920              2.894
 Vibration     9          0.621              1.892              2.558
 Vibration    10          0.628              1.870              2.352
 Vibration    11          0.639              1.836              2.110
 Vibration    12          0.662              1.765              1.740
 Vibration    13          0.675              1.725              1.584
 Vibration    14          0.688              1.686              1.454
 Vibration    15          0.700              1.651              1.351
 Vibration    16          0.713              1.614              1.256
 Vibration    17          0.720              1.595              1.211
 Vibration    18          0.728              1.572              1.160
 Vibration    19          0.751              1.510              1.034
 Vibration    20          0.794              1.398              0.848
 Vibration    21          0.802              1.378              0.820
 Vibration    22          0.818              1.338              0.765
 Vibration    23          0.844              1.277              0.690
 Vibration    24          0.865              1.228              0.634
 Vibration    25          0.895              1.162              0.566
 Vibration    26          0.926              1.096              0.504
 Vibration    27          0.934              1.080              0.490
 Vibration    28          0.943              1.061              0.474

                           ! Non-Optimized Parameters !
 Normal termination of Gaussian 16 at Sat Dec 12 16:57:56 2020.

 ----------------------------------------------------------------------
 # B3LYP/6-311++G(d,p) empiricaldispersion=gd3bj scf=xqc pop=npa geom=c
 heck
 ----------------------------------------------------------------------

 ---------------------------------------
 CID_64148482_JID_10931_Energie_neutraal
 ---------------------------------------
 Structure from the checkpoint file:  "JID_10931.chk"
 Charge =  0 Multiplicity = 1

 SCF Done:  E(RB3LYP) =  -1272.94293211     A.U. after   16 cycles
 Normal termination of Gaussian 16 at Sat Dec 12 17:05:05 2020.

 ----------------------------------------------------------------------
 # B3LYP/6-311++G(d,p) empiricaldispersion=gd3bj scf=xqc pop=npa geom=c
 heck
 ----------------------------------------------------------------------

 -------------------------------------
 CID_64148482_JID_10931_Energie_kation
 -------------------------------------
 Structure from the checkpoint file:  "JID_10931.chk"
 Charge =  1 Multiplicity = 2

 SCF Done:  E(UB3LYP) =  -1272.63712774     A.U. after   29 cycles
 Normal termination of Gaussian 16 at Sat Dec 12 17:22:43 2020.
 Gaussian 16:  ES64L-G16RevA.03 25-Dec-2016

 ----------------------------------------------------------------------
 # B3LYP/6-311++G(d,p) empiricaldispersion=gd3bj scf=xqc pop=npa geom=c
 heck
 ----------------------------------------------------------------------

 ------------------------------------
 CID_64148482_JID_10931_Energie_anion
 ------------------------------------
 Structure from the checkpoint file:  "JID_10931.chk"
 Charge = -1 Multiplicity = 2

                         Standard orientation:
 ---------------------------------------------------------------------
 Center     Atomic      Atomic             Coordinates (Angstroms)
 Number     Number       Type             X           Y           Z
 ---------------------------------------------------------------------
      1          6           0        4.964317   -1.851502    0.269090
      2          6           0        3.824960   -1.083782   -0.312014
      3          7           0        3.299534   -1.270107   -1.517299
      4          6           0        2.282763   -0.359362   -1.639113
      5          6           0        2.185352    0.389228   -0.488465
      6          7           0        3.179712   -0.079519    0.348630
      7         16           0        1.157254    1.711767    0.034566
      8          8           0        1.371356    1.789202    1.490432
      9          8           0        1.345058    2.887974   -0.816655
     10          7           0       -0.382216    1.143620   -0.325101
     11          6           0       -1.141477    0.451439    0.745581
     12          6           0       -0.590964   -0.987781    0.992866
     13          6           0       -1.296016   -1.838668   -0.087795
     14          6           0       -2.613351   -1.121762   -0.283459
     15          6           0       -3.800479   -1.575251   -0.851385
     16          6           0       -4.897195   -0.709173   -0.916668
     17          6           0       -4.810869    0.593630   -0.417949
     18          6           0       -3.619969    1.050842    0.155022
     19          6           0       -2.531752    0.185905    0.215160
     20          7           0       -0.915909   -1.505092    2.321375
     21          1           0        5.817074   -1.200272    0.494716
     22          1           0        4.677181   -2.363068    1.195397
     23          1           0        5.282238   -2.600727   -0.457844
     24          1           0        1.672024   -0.290620   -2.527718
     25          1           0        3.331682    0.263124    1.288514
     26          1           0       -0.897745    1.899437   -0.771996
     27          1           0       -1.127065    1.042595    1.668807
     28          1           0        0.494489   -1.020144    0.884944
     29          1           0       -0.712153   -1.833295   -1.016768
     30          1           0       -1.399520   -2.878032    0.237590
     31          1           0       -3.879207   -2.588983   -1.235130
     32          1           0       -5.829636   -1.055832   -1.353385
     33          1           0       -5.674389    1.250427   -0.468513
     34          1           0       -3.551808    2.060789    0.552675
     35          1           0       -0.522912   -0.888227    3.031587
     36          1           0       -1.927393   -1.487750    2.455378
 ---------------------------------------------------------------------

 SCF Done:  E(UB3LYP) =  -1272.93611947     A.U. after   33 cycles
 SCF Done:  E(UB3LYP) =  -1272.93611947     a.u. after    1 cycles

 The electronic state is 2-A.
 Alpha  occ. eigenvalues --  -88.98786 -19.03724 -19.03622 -14.29226 -14.26294
 Alpha  occ. eigenvalues --  -14.22026 -14.20901 -10.16136 -10.14247 -10.13239
 Alpha  occ. eigenvalues --  -10.12011 -10.11816 -10.09588 -10.09317 -10.09195
 Alpha  occ. eigenvalues --  -10.09157 -10.09119 -10.09056 -10.08847 -10.08663
 Alpha  occ. eigenvalues --   -8.04874  -6.01148  -6.01110  -6.01008  -1.04032
 Alpha  occ. eigenvalues --   -0.94666  -0.92847  -0.85555  -0.80994  -0.80038
 Alpha  occ. eigenvalues --   -0.77605  -0.71482  -0.70719  -0.67633  -0.64565
 Alpha  occ. eigenvalues --   -0.62323  -0.61188  -0.57564  -0.53637  -0.52923
 Alpha  occ. eigenvalues --   -0.51973  -0.49876  -0.49357  -0.46448  -0.44215
 Alpha  occ. eigenvalues --   -0.43044  -0.41819  -0.40895  -0.39918  -0.38928
 Alpha  occ. eigenvalues --   -0.37928  -0.37410  -0.36771  -0.36041  -0.34827
 Alpha  occ. eigenvalues --   -0.33743  -0.33249  -0.32818  -0.32103  -0.31349
 Alpha  occ. eigenvalues --   -0.31204  -0.29514  -0.28132  -0.27098  -0.26535
 Alpha  occ. eigenvalues --   -0.26069  -0.25403  -0.24958  -0.24405  -0.23068
 Alpha  occ. eigenvalues --   -0.21410  -0.20389  -0.19662  -0.17450  -0.16751
 Alpha  occ. eigenvalues --   -0.15975  -0.15414   0.03706
 Alpha virt. eigenvalues --    0.04981   0.05737   0.06177   0.06704   0.06781
 Alpha virt. eigenvalues --    0.07173   0.08117   0.08307   0.08988   0.09244
 Alpha virt. eigenvalues --    0.09312   0.10425   0.10985   0.11301   0.11405

  Beta  occ. eigenvalues --  -88.98780 -19.03707 -19.03599 -14.29175 -14.26289
  Beta  occ. eigenvalues --  -14.22027 -14.20882 -10.16124 -10.14234 -10.13233
  Beta  occ. eigenvalues --  -10.11997 -10.11815 -10.09601 -10.09266 -10.09164
  Beta  occ. eigenvalues --  -10.09126 -10.09068 -10.09011 -10.08790 -10.08656
  Beta  occ. eigenvalues --   -8.04866  -6.01141  -6.01106  -6.00999  -1.03980
  Beta  occ. eigenvalues --   -0.94622  -0.92797  -0.85521  -0.80966  -0.79987
  Beta  occ. eigenvalues --   -0.77528  -0.71425  -0.70663  -0.67533  -0.64490
  Beta  occ. eigenvalues --   -0.62265  -0.61130  -0.57521  -0.53553  -0.52824
  Beta  occ. eigenvalues --   -0.51916  -0.49830  -0.49317  -0.46385  -0.44172
  Beta  occ. eigenvalues --   -0.43000  -0.41765  -0.40861  -0.39874  -0.38892
  Beta  occ. eigenvalues --   -0.37857  -0.37365  -0.36694  -0.36006  -0.34797
  Beta  occ. eigenvalues --   -0.33700  -0.33206  -0.32771  -0.32036  -0.31289
  Beta  occ. eigenvalues --   -0.31132  -0.29494  -0.28069  -0.27006  -0.26458
  Beta  occ. eigenvalues --   -0.26036  -0.25365  -0.24933  -0.24375  -0.23031
  Beta  occ. eigenvalues --   -0.21349  -0.20359  -0.19655  -0.17110  -0.16633
  Beta  occ. eigenvalues --   -0.15863  -0.15348
  Beta virt. eigenvalues --    0.05663   0.06165   0.06232   0.06421   0.06818
  Beta virt. eigenvalues --    0.07055   0.07505   0.08249   0.08786   0.09187
  Beta virt. eigenvalues --    0.09581   0.09856   0.10523   0.11008   0.11371

 Mulliken charges and spin densities:
               1          2
     1  C    1.690268  -2.335135
     2  C   -1.076453   1.093674
     3  N   -0.068799   0.007885
     4  C   -0.306869   0.244686
     5  C   -0.494404  -0.177077
     6  N   -0.096902   0.135931
     7  S    0.999476  -0.349246
     8  O   -0.215090   0.012132
     9  O   -0.085220  -0.021989
    10  N   -0.185776   0.001020
    11  C   -0.698012  -0.062436
    12  C    0.812418  -0.237534
    13  C   -0.204941  -0.983514
    14  C   -0.333811   0.415305
    15  C   -0.604170   0.478638
    16  C    0.373443  -0.676552
    17  C    0.461342  -0.763754
    18  C   -0.647589   0.716355
    19  C   -0.330360   0.223508
    20  N   -0.355777  -0.011954
    21  H   -0.287597   0.454117
    22  H   -0.508090   0.682301
    23  H    0.017402   0.149378
    24  H    0.075827   0.093209
    25  H   -0.116230   0.455520
    26  H    0.328298  -0.015631
    27  H    0.067327   0.254716
    28  H    1.088089  -0.589713
    29  H    0.187620  -0.030199
    30  H    0.062034   0.162924
    31  H   -0.036083   0.194036
    32  H   -0.227692   0.381498
    33  H   -0.278733   0.441900
    34  H   -0.151966   0.327948
    35  H   -0.004819   0.255512
    36  H    0.151837   0.072541
 Sum of Mulliken charges =  -1.00000   1.00000

 Dipole moment (field-independent basis, Debye):
    X=             -2.6905    Y=              0.5898    Z=             -2.5144  Tot=              3.7294
 Quadrupole moment (field-independent basis, Debye-Ang):
   XX=           -225.6320   YY=           -170.5799   ZZ=           -163.9657
   XY=              6.4146   XZ=             -8.0067   YZ=              3.3923

 Summary of Natural Population Analysis:

                                       Natural Population
                Natural  -----------------------------------------------
    Atom  No    Charge         Core      Valence    Rydberg      Total
 -----------------------------------------------------------------------
      C    1   -0.30853      0.99963     2.30317    0.00572     3.30853
      C    2    0.20319      0.99964     1.77935    0.01783     2.79681
      N    3   -0.25762      0.99970     2.74858    0.00933     3.75762
      C    4   -0.00410      0.99949     1.99196    0.01265     3.00410
      C    5   -0.09212      0.99939     2.07465    0.01808     3.09212
      N    6   -0.26661      0.99962     2.75641    0.01059     3.76661
      S    7    1.10788      4.99916     1.79080    0.10216     6.89212
      O    8   -0.46685      0.99991     3.46192    0.00502     4.46685
      O    9   -0.45683      0.99991     3.45188    0.00505     4.45683
      N   10   -0.43516      0.99973     2.92386    0.01157     3.93516
      C   11   -0.02579      0.99952     2.01096    0.01532     3.02579
      C   12   -0.01341      0.99960     1.99955    0.01426     3.01341
      C   13   -0.20174      0.99959     2.19449    0.00767     3.20174
      C   14   -0.00918      0.99946     1.99988    0.00983     3.00918
      C   15   -0.09198      0.99951     2.08392    0.00855     3.09198
      C   16   -0.09066      0.99957     2.08096    0.01013     3.09066
      C   17   -0.10505      0.99957     2.09571    0.00977     3.10505
      C   18   -0.08905      0.99950     2.08003    0.00952     3.08905
      C   19   -0.02215      0.99945     2.01103    0.01167     3.02215
      N   20   -0.41747      0.99977     2.90823    0.00947     3.91747
      H   21    0.10979      0.00000     0.38893    0.00128     0.39021
      H   22    0.11384      0.00000     0.38368    0.00248     0.38616
      H   23    0.11455      0.00000     0.38424    0.00122     0.38545
      H   24    0.10343      0.00000     0.39555    0.00102     0.39657
      H   25    0.22024      0.00000     0.27536    0.00439     0.27976
      H   26    0.20151      0.00000     0.29678    0.00171     0.29849
      H   27    0.10473      0.00000     0.39311    0.00217     0.39527
      H   28    0.10093      0.00000     0.39695    0.00212     0.39907
      H   29    0.11060      0.00000     0.38819    0.00121     0.38940
      H   30    0.11014      0.00000     0.38874    0.00112     0.38986
      H   31    0.09960      0.00000     0.39923    0.00117     0.40040
      H   32    0.09973      0.00000     0.39937    0.00090     0.40027
      H   33    0.10106      0.00000     0.39792    0.00102     0.39894
      H   34    0.10162      0.00000     0.39704    0.00134     0.39838
      H   35    0.17799      0.00000     0.32035    0.00166     0.32201
      H   36    0.17350      0.00000     0.32474    0.00176     0.32650
 =======================================================================
   * Total *    0.00000     23.99171    52.67751    0.33078    77.00000

 Normal termination of Gaussian 16 at Sat Dec 12 17:43:01 2020.
