 Gaussian 16, Revision A.03,

 -----------------------------------------------------------
 # opt freq B3LYP/6-31G(d) empiricaldispersion=gd3bj scf=xqc
 -----------------------------------------------------------

 -------------------------------
 CID_120397299_JID_7577_neutraal
 -------------------------------
 Symbolic Z-matrix:
 Charge =  0 Multiplicity = 1

 SCF Done:  E(RB3LYP) =  -1235.13739715     A.U. after   15 cycles
 SCF Done:  E(RB3LYP) =  -1235.14511863     A.U. after   13 cycles
 SCF Done:  E(RB3LYP) =  -1235.14684337     A.U. after   13 cycles
 SCF Done:  E(RB3LYP) =  -1235.14755909     A.U. after   12 cycles
 SCF Done:  E(RB3LYP) =  -1235.14784499     A.U. after   12 cycles
 SCF Done:  E(RB3LYP) =  -1235.14793052     A.U. after   12 cycles
 SCF Done:  E(RB3LYP) =  -1235.14804468     A.U. after   11 cycles
 SCF Done:  E(RB3LYP) =  -1235.14810172     A.U. after   11 cycles
 SCF Done:  E(RB3LYP) =  -1235.14825625     A.U. after   12 cycles
 SCF Done:  E(RB3LYP) =  -1235.14671914     A.U. after   15 cycles
 SCF Done:  E(RB3LYP) =  -1235.15032435     A.U. after    9 cycles
 SCF Done:  E(RB3LYP) =  -1235.15033174     A.U. after   10 cycles
 SCF Done:  E(RB3LYP) =  -1235.15033271     A.U. after    9 cycles
 SCF Done:  E(RB3LYP) =  -1235.15033317     A.U. after    8 cycles
 SCF Done:  E(RB3LYP) =  -1235.15033322     A.U. after    6 cycles
 Optimization completed.
    -- Stationary point found.
 Normal termination of Gaussian 16 at Sun Dec 13 16:26:41 2020.

 --------------------------------------------------------------------
 #N Geom=AllCheck Guess=TCheck SCRF=Check GenChk RB3LYP/6-31G(d) Freq
 --------------------------------------------------------------------

 Structure from the checkpoint file:  "JID_7577.chk"
 -------------------------------
 CID_120397299_JID_7577_neutraal
 -------------------------------
 Charge =  0 Multiplicity = 1

 SCF Done:  E(RB3LYP) =  -1235.15033322     A.U. after    1 cycles

  Exact polarizability: 150.378 -12.323 119.749  -6.722  -0.703 116.958
 Approx polarizability: 207.489 -29.744 179.266 -18.208  -8.549 213.513

                      1                      2                      3
                      A                      A                      A
 Frequencies --     15.3360                31.0768                52.8361
 Red. masses --      6.5339                 5.3159                 5.9867
 Frc consts  --      0.0009                 0.0030                 0.0098
 IR Inten    --      0.1092                 0.3340                 0.9753

                      4                      5                      6
                      A                      A                      A
 Frequencies --     65.1885                80.4322                92.8262
 Red. masses --      4.8246                 5.5046                 5.5282
 Frc consts  --      0.0121                 0.0210                 0.0281
 IR Inten    --      3.0322                 5.5281                 1.4666

                      7                      8                      9
                      A                      A                      A
 Frequencies --    103.0357               113.8918               174.9024
 Red. masses --      3.3075                 5.6056                 3.1027
 Frc consts  --      0.0207                 0.0428                 0.0559
 IR Inten    --      0.2124                 7.8359                 1.6077

                     10                     11                     12
                      A                      A                      A
 Frequencies --    181.4867               214.5712               250.8240
 Red. masses --      5.1357                 1.9456                 1.8302
 Frc consts  --      0.0997                 0.0528                 0.0678
 IR Inten    --      0.3394                 0.8127                 1.6676

                     13                     14                     15
                      A                      A                      A
 Frequencies --    264.5230               297.1690               301.0740
 Red. masses --      9.0350                 5.8328                 2.8345
 Frc consts  --      0.3725                 0.3035                 0.1514
 IR Inten    --      1.8919                 6.0314                 2.7705

                     16                     17                     18
                      A                      A                      A
 Frequencies --    318.7710               330.0445               344.0567
 Red. masses --      3.9933                 3.1449                 2.3117
 Frc consts  --      0.2391                 0.2018                 0.1612
 IR Inten    --      6.8844                 1.7364                 1.1628

                     19                     20                     21
                      A                      A                      A
 Frequencies --    390.4633               429.4209               483.9223
 Red. masses --      4.9280                 2.7141                 2.0283
 Frc consts  --      0.4427                 0.2949                 0.2799
 IR Inten    --      0.7144                 2.8406                 4.6045

                     22                     23                     24
                      A                      A                      A
 Frequencies --    514.0175               519.8553               545.3819
 Red. masses --      5.1530                 4.1472                 5.1048
 Frc consts  --      0.8022                 0.6603                 0.8946
 IR Inten    --     26.7691                84.8165                21.6856

                     25                     26                     27
                      A                      A                      A
 Frequencies --    609.4570               612.3192               655.1653
 Red. masses --      2.9627                 4.8066                 3.0606
 Frc consts  --      0.6484                 1.0618                 0.7740
 IR Inten    --     96.3537                 2.2854                35.9263

                     28                     29                     30
                      A                      A                      A
 Frequencies --    672.5290               725.4079               760.2755
 Red. masses --      2.4366                 3.2144                 3.8262
 Frc consts  --      0.6493                 0.9966                 1.3030
 IR Inten    --      9.9458                43.5249                 9.0091

                     31                     32                     33
                      A                      A                      A
 Frequencies --    772.4650               801.6373               809.1553
 Red. masses --      2.2346                 1.4111                 1.7986
 Frc consts  --      0.7856                 0.5343                 0.6938
 IR Inten    --     16.2472                 0.8030               111.4006

                     34                     35                     36
                      A                      A                      A
 Frequencies --    849.8815               875.5307               882.2755
 Red. masses --      4.5135                 1.3482                 2.8894
 Frc consts  --      1.9208                 0.6089                 1.3251
 IR Inten    --     12.2939                 0.6382                22.2145

                     37                     38                     39
                      A                      A                      A
 Frequencies --    898.0010               909.5900               929.8199
 Red. masses --      2.1146                 2.1082                 2.7304
 Frc consts  --      1.0047                 1.0277                 1.3908
 IR Inten    --     70.7058                15.1703                18.3439

                     40                     41                     42
                      A                      A                      A
 Frequencies --    945.3052               956.4309              1019.6449
 Red. masses --      1.8715                 8.9721                 3.8543
 Frc consts  --      0.9853                 4.8356                 2.3610
 IR Inten    --     64.1622                11.7803                 1.7912

                     43                     44                     45
                      A                      A                      A
 Frequencies --   1040.9389              1064.2750              1084.8939
 Red. masses --      2.3482                 1.8148                 1.6819
 Frc consts  --      1.4991                 1.2111                 1.1663
 IR Inten    --     51.0862                11.8644                 2.9712

                     46                     47                     48
                      A                      A                      A
 Frequencies --   1111.6803              1115.4853              1154.0333
 Red. masses --      2.5497                 4.4583                 1.9594
 Frc consts  --      1.8565                 3.2685                 1.5375
 IR Inten    --     27.2262               114.8803                 8.7981

                     49                     50                     51
                      A                      A                      A
 Frequencies --   1174.1716              1181.9255              1201.5313
 Red. masses --      2.0643                 1.2672                 2.7222
 Frc consts  --      1.6768                 1.0430                 2.3155
 IR Inten    --     54.0419                19.8870               119.4465

                     52                     53                     54
                      A                      A                      A
 Frequencies --   1219.1157              1283.0908              1304.5447
 Red. masses --      2.4531                 1.5477                 1.3021
 Frc consts  --      2.1481                 1.5012                 1.3056
 IR Inten    --     53.4022                21.2642                 5.3647

                     55                     56                     57
                      A                      A                      A
 Frequencies --   1312.2138              1316.0813              1337.5435
 Red. masses --      1.3163                 2.0152                 2.7914
 Frc consts  --      1.3355                 2.0565                 2.9423
 IR Inten    --      9.8734                41.3203               100.2872

                     58                     59                     60
                      A                      A                      A
 Frequencies --   1360.0662              1373.7657              1392.3070
 Red. masses --      1.4985                 1.3565                 2.2432
 Frc consts  --      1.6332                 1.5083                 2.5620
 IR Inten    --     37.5617                39.8792                32.4810

                     61                     62                     63
                      A                      A                      A
 Frequencies --   1406.3469              1421.5067              1450.4002
 Red. masses --      1.4418                 1.3215                 1.2630
 Frc consts  --      1.6801                 1.5734                 1.5654
 IR Inten    --      4.4102                 9.9767                 1.3493

                     64                     65                     66
                      A                      A                      A
 Frequencies --   1467.4845              1470.5510              1484.7875
 Red. masses --      3.4262                 1.4042                 1.0881
 Frc consts  --      4.3472                 1.7891                 1.4134
 IR Inten    --     42.2663                16.9845                 6.1857

                     67                     68                     69
                      A                      A                      A
 Frequencies --   1500.2699              1525.5279              1525.9336
 Red. masses --      3.7450                 1.0504                 1.0602
 Frc consts  --      4.9664                 1.4403                 1.4545
 IR Inten    --      3.3926                 2.8045                 0.2774

                     70                     71                     72
                      A                      A                      A
 Frequencies --   1537.4767              1543.2590              1618.6706
 Red. masses --      1.0693                 1.0727                 5.7999
 Frc consts  --      1.4893                 1.5052                 8.9534
 IR Inten    --     15.2736                15.1788                18.8198

                     73                     74                     75
                      A                      A                      A
 Frequencies --   1859.6171              3039.7110              3059.6449
 Red. masses --     10.1525                 1.0627                 1.0417
 Frc consts  --     20.6858                 5.7853                 5.7459
 IR Inten    --    303.7218                28.0685                14.8161

                     76                     77                     78
                      A                      A                      A
 Frequencies --   3068.2425              3083.0412              3094.2413
 Red. masses --      1.0923                 1.0701                 1.0613
 Frc consts  --      6.0583                 5.9928                 5.9868
 IR Inten    --     19.3046                36.8361                 1.5522

                     79                     80                     81
                      A                      A                      A
 Frequencies --   3096.1304              3121.5858              3143.6667
 Red. masses --      1.0630                 1.1021                 1.1011
 Frc consts  --      6.0038                 6.3275                 6.4114
 IR Inten    --     10.0840                36.6525                 2.7807

                     82                     83                     84
                      A                      A                      A
 Frequencies --   3146.2669              3157.7682              3160.3359
 Red. masses --      1.1005                 1.0977                 1.1043
 Frc consts  --      6.4186                 6.4489                 6.4981
 IR Inten    --     18.9518                 7.2133                 0.3565

                     85                     86                     87
                      A                      A                      A
 Frequencies --   3288.5286              3316.7162              3688.9351
 Red. masses --      1.0939                 1.1056                 1.0641
 Frc consts  --      6.9699                 7.1660                 8.5320
 IR Inten    --      0.3470                 2.6027                67.4207

 - Thermochemistry -
 -------------------
 Temperature   298.150 Kelvin.  Pressure   1.00000 Atm.
 Atom     1 has atomic number  6 and mass  12.00000

 Molecular mass:   262.06234 amu.
 Principal axes and moments of inertia in atomic units:
                           1         2         3
     Eigenvalues --  2490.402625846.439486732.35080
           X            0.99999   0.00043  -0.00438
           Y           -0.00028   0.99942   0.03400
           Z            0.00439  -0.03400   0.99941
 This molecule is an asymmetric top.
 Rotational symmetry number  1.
 Warning -- assumption of classical behavior for rotation
           may cause significant error
 Rotational temperatures (Kelvin)      0.03478     0.01481     0.01287
 Rotational constants (GHZ):           0.72468     0.30869     0.26807
 Zero-point vibrational energy     640626.0 (Joules/Mol)
                                  153.11330 (Kcal/Mol)
 Warning -- explicit consideration of  26 degrees of freedom as
           vibrations may cause significant error
 Vibrational temperatures:     22.07    44.71    76.02    93.79   115.72
          (Kelvin)            133.56   148.25   163.86   251.65   261.12
                              308.72   360.88   380.59   427.56   433.18
                              458.64   474.86   495.02   561.79   617.84
                              696.26   739.56   747.96   784.68   876.87
                              880.99   942.64   967.62  1043.70  1093.87
                             1111.40  1153.38  1164.19  1222.79  1259.69
                             1269.40  1292.02  1308.70  1337.80  1360.08
                             1376.09  1467.04  1497.68  1531.25  1560.92
                             1599.46  1604.93  1660.40  1689.37  1700.53
                             1728.74  1754.04  1846.08  1876.95  1887.98
                             1893.55  1924.43  1956.83  1976.54  2003.22
                             2023.42  2045.23  2086.80  2111.38  2115.79
                             2136.28  2158.55  2194.89  2195.48  2212.09
                             2220.41  2328.91  2675.57  4373.47  4402.15
                             4414.52  4435.81  4451.92  4454.64  4491.27
                             4523.04  4526.78  4543.32  4547.02  4731.46
                             4772.01  5307.55

 Zero-point correction=                           0.244002 (Hartree/Particle)
 Thermal correction to Energy=                    0.261158
 Thermal correction to Enthalpy=                  0.262102
 Thermal correction to Gibbs Free Energy=         0.196837
 Sum of electronic and zero-point Energies=          -1234.906332
 Sum of electronic and thermal Energies=             -1234.889175
 Sum of electronic and thermal Enthalpies=           -1234.888231
 Sum of electronic and thermal Free Energies=        -1234.953496

                     E (Thermal)             CV                S
                      KCal/Mol        Cal/Mol-Kelvin    Cal/Mol-Kelvin
 Total                  163.879             62.850            137.363
 Electronic               0.000              0.000              0.000
 Translational            0.889              2.981             42.590
 Rotational               0.889              2.981             32.949
 Vibrational            162.102             56.888             61.824
 Vibration     1          0.593              1.986              7.162
 Vibration     2          0.594              1.983              5.759
 Vibration     3          0.596              1.976              4.708
 Vibration     4          0.597              1.971              4.294
 Vibration     5          0.600              1.962              3.880
 Vibration     6          0.602              1.954              3.600
 Vibration     7          0.605              1.947              3.396
 Vibration     8          0.607              1.938              3.201
 Vibration     9          0.627              1.873              2.382
 Vibration    10          0.630              1.865              2.313
 Vibration    11          0.644              1.819              2.004
 Vibration    12          0.663              1.761              1.725
 Vibration    13          0.671              1.738              1.632
 Vibration    14          0.691              1.679              1.433
 Vibration    15          0.693              1.672              1.411
 Vibration    16          0.705              1.638              1.316
 Vibration    17          0.713              1.615              1.260
 Vibration    18          0.723              1.587              1.193
 Vibration    19          0.758              1.491              0.998
 Vibration    20          0.791              1.406              0.861
 Vibration    21          0.840              1.286              0.700
 Vibration    22          0.869              1.219              0.624
 Vibration    23          0.875              1.206              0.610
 Vibration    24          0.901              1.150              0.554
 Vibration    25          0.968              1.012              0.434
 Vibration    26          0.972              1.006              0.429

 Optimization completed.
    -- Stationary point found.
 Normal termination of Gaussian 16 at Sun Dec 13 16:39:10 2020.

 ----------------------------------------------------------------------
 # B3LYP/6-311++G(d,p) empiricaldispersion=gd3bj scf=xqc pop=npa geom=c
 heck
 ----------------------------------------------------------------------

 ---------------------------------------
 CID_120397299_JID_7577_Energie_neutraal
 ---------------------------------------
 Structure from the checkpoint file:  "JID_7577.chk"
 Charge =  0 Multiplicity = 1

 SCF Done:  E(RB3LYP) =  -1235.42640607     A.U. after   16 cycles
 Normal termination of Gaussian 16 at Sun Dec 13 16:45:36 2020.

 ----------------------------------------------------------------------
 # B3LYP/6-311++G(d,p) empiricaldispersion=gd3bj scf=xqc pop=npa geom=c
 heck
 ----------------------------------------------------------------------

 -------------------------------------
 CID_120397299_JID_7577_Energie_kation
 -------------------------------------
 Structure from the checkpoint file:  "JID_7577.chk"
 Charge =  1 Multiplicity = 2

 SCF Done:  E(UB3LYP) =  -1235.09071615     A.U. after   26 cycles
 Normal termination of Gaussian 16 at Sun Dec 13 17:00:12 2020.
 Gaussian 16:  ES64L-G16RevA.03 25-Dec-2016

 ----------------------------------------------------------------------
 # B3LYP/6-311++G(d,p) empiricaldispersion=gd3bj scf=xqc pop=npa geom=c
 heck
 ----------------------------------------------------------------------

 ------------------------------------
 CID_120397299_JID_7577_Energie_anion
 ------------------------------------
 Structure from the checkpoint file:  "JID_7577.chk"
 Charge = -1 Multiplicity = 2

                         Standard orientation:
 ---------------------------------------------------------------------
 Center     Atomic      Atomic             Coordinates (Angstroms)
 Number     Number       Type             X           Y           Z
 ---------------------------------------------------------------------
      1          6           0       -1.204954    2.678624   -0.035935
      2          6           0        0.146517    2.703357    0.677088
      3          6           0        0.606057    1.334654    1.184418
      4          7           0        0.730076    0.343225    0.092421
      5          6           0        1.709510    0.570823   -0.960678
      6          6           0        3.175577    0.295591   -0.637003
      7          8           0        4.019187    0.134829   -1.486319
      8          8           0        3.439684    0.313494    0.687087
      9         16           0        0.452799   -1.277299    0.445822
     10          8           0        1.603187   -2.076818    0.011923
     11          8           0       -0.071125   -1.365593    1.812332
     12          6           0       -0.903563   -1.721121   -0.691798
     13          6           0       -2.127275   -0.897442   -0.490314
     14          7           0       -2.580137   -0.170685   -1.490749
     15          8           0       -3.715653    0.472234   -1.000862
     16          6           0       -3.902776    0.110417    0.284139
     17          6           0       -2.934573   -0.757819    0.677724
     18          1           0       -1.179577    2.043336   -0.925097
     19          1           0       -1.504922    3.685710   -0.344104
     20          1           0       -1.983814    2.282428    0.625272
     21          1           0        0.911408    3.146064    0.025101
     22          1           0        0.099146    3.359209    1.556209
     23          1           0        1.557896    1.421677    1.718886
     24          1           0       -0.130384    0.935133    1.882301
     25          1           0        1.471241   -0.028827   -1.841661
     26          1           0        1.629651    1.616599   -1.272952
     27          1           0        4.387310    0.100585    0.779659
     28          1           0       -0.524217   -1.608582   -1.709526
     29          1           0       -1.078132   -2.783467   -0.494129
     30          1           0       -4.758504    0.549917    0.775716
     31          1           0       -2.780830   -1.218450    1.640328
 ---------------------------------------------------------------------

 SCF Done:  E(UB3LYP) =  -1235.42064594     A.U. after   33 cycles
 SCF Done:  E(UB3LYP) =  -1235.42064594     a.u. after    1 cycles

 The electronic state is 2-A.
 Alpha  occ. eigenvalues --  -88.96684 -19.09053 -19.07993 -19.02599 -19.02565
 Alpha  occ. eigenvalues --  -19.02335 -14.25493 -14.23904 -10.21818 -10.13662
 Alpha  occ. eigenvalues --  -10.12345 -10.12163 -10.10548 -10.10530 -10.07199
 Alpha  occ. eigenvalues --  -10.07094 -10.04802  -8.02904  -5.99186  -5.99155
 Alpha  occ. eigenvalues --   -5.98961  -1.03168  -1.02779  -1.02052  -0.93392
 Alpha  occ. eigenvalues --   -0.91815  -0.85049  -0.77311  -0.69430  -0.68879
 Alpha  occ. eigenvalues --   -0.67369  -0.64809  -0.59178  -0.54273  -0.52262
 Alpha  occ. eigenvalues --   -0.51080  -0.48228  -0.47322  -0.44769  -0.42346
 Alpha  occ. eigenvalues --   -0.41466  -0.40610  -0.39399  -0.38409  -0.37526
 Alpha  occ. eigenvalues --   -0.36461  -0.36071  -0.35346  -0.34547  -0.34018
 Alpha  occ. eigenvalues --   -0.32609  -0.31883  -0.30920  -0.30319  -0.28993
 Alpha  occ. eigenvalues --   -0.28159  -0.26619  -0.25660  -0.24802  -0.23882
 Alpha  occ. eigenvalues --   -0.23640  -0.22935  -0.22432  -0.21670  -0.20488
 Alpha  occ. eigenvalues --   -0.20248  -0.18478  -0.16352  -0.16089   0.04405
 Alpha virt. eigenvalues --    0.06131   0.06933   0.07545   0.08394   0.08654
 Alpha virt. eigenvalues --    0.08920   0.09888   0.10353   0.10953   0.11767
 Alpha virt. eigenvalues --    0.12192   0.12675   0.13096   0.13566   0.14225

  Beta  occ. eigenvalues --  -88.96670 -19.08825 -19.07952 -19.02588 -19.02558
  Beta  occ. eigenvalues --  -19.02316 -14.25489 -14.23575 -10.21808 -10.13637
  Beta  occ. eigenvalues --  -10.12340 -10.11989 -10.10521 -10.10471 -10.07236
  Beta  occ. eigenvalues --  -10.07068 -10.04775  -8.02888  -5.99174  -5.99143
  Beta  occ. eigenvalues --   -5.98941  -1.02807  -1.02685  -1.01996  -0.93347
  Beta  occ. eigenvalues --   -0.91778  -0.85029  -0.76960  -0.69246  -0.68711
  Beta  occ. eigenvalues --   -0.67270  -0.64748  -0.59129  -0.54194  -0.52164
  Beta  occ. eigenvalues --   -0.50904  -0.48056  -0.47109  -0.44691  -0.42230
  Beta  occ. eigenvalues --   -0.41413  -0.40553  -0.39349  -0.38363  -0.37433
  Beta  occ. eigenvalues --   -0.36243  -0.35723  -0.35036  -0.34478  -0.33740
  Beta  occ. eigenvalues --   -0.32563  -0.31838  -0.30883  -0.30237  -0.28960
  Beta  occ. eigenvalues --   -0.27978  -0.26570  -0.25614  -0.24747  -0.23843
  Beta  occ. eigenvalues --   -0.23597  -0.22912  -0.22191  -0.21639  -0.20448
  Beta  occ. eigenvalues --   -0.19807  -0.17746  -0.16098  -0.15149
  Beta virt. eigenvalues --    0.06837   0.07474   0.07981   0.08593   0.08654
  Beta virt. eigenvalues --    0.08995   0.09238   0.10181   0.10522   0.11031
  Beta virt. eigenvalues --    0.12159   0.12418   0.12815   0.13140   0.13737

 Mulliken charges and spin densities:
               1          2
     1  C   -0.147778  -0.359432
     2  C    0.622826  -0.935770
     3  C   -0.672108   0.273143
     4  N    0.224106  -0.003527
     5  C    0.336057  -0.724593
     6  C   -0.154592   0.127324
     7  O   -0.250709   0.013420
     8  O   -0.181164   0.020160
     9  S    0.240364  -0.138845
    10  O   -0.020554  -0.011088
    11  O   -0.189296   0.012979
    12  C   -1.061296  -0.238162
    13  C    0.451227   0.030263
    14  N   -0.254187   0.172784
    15  O    0.141741   0.031031
    16  C   -0.294658   0.254468
    17  C    0.070988  -0.222435
    18  H    0.070770   0.111478
    19  H   -0.203411   0.351307
    20  H    0.165983   0.003879
    21  H   -0.183081   0.312188
    22  H   -0.366208   0.525090
    23  H    0.233899  -0.008039
    24  H   -0.035798   0.208032
    25  H    0.267302   0.013471
    26  H    0.018084   0.178930
    27  H   -0.212644   0.524245
    28  H    0.242481   0.024230
    29  H    0.245105   0.002637
    30  H   -0.195168   0.360040
    31  H    0.091719   0.090793
 Sum of Mulliken charges =  -1.00000   1.00000

 Dipole moment (field-independent basis, Debye):
    X=             -1.9944    Y=             -3.3250    Z=             -0.5686  Tot=              3.9188
 Quadrupole moment (field-independent basis, Debye-Ang):
   XX=           -173.9769   YY=           -145.5697   ZZ=           -139.0827
   XY=              8.6737   XZ=             -1.8876   YZ=             -0.1368

 Summary of Natural Population Analysis:

                                       Natural Population
                Natural  -----------------------------------------------
    Atom  No    Charge         Core      Valence    Rydberg      Total
 -----------------------------------------------------------------------
      C    1   -0.29215      0.99966     2.28543    0.00706     3.29215
      C    2   -0.19466      0.99963     2.18700    0.00803     3.19466
      C    3   -0.08628      0.99958     2.07453    0.01217     3.08628
      N    4   -0.37664      0.99973     2.86116    0.01575     3.87664
      C    5   -0.13910      0.99955     2.12609    0.01346     3.13910
      C    6    0.40704      0.99973     1.56787    0.02536     2.59296
      O    7   -0.30592      0.99987     3.29986    0.00619     4.30592
      O    8   -0.34161      0.99987     3.33457    0.00716     4.34161
      S    9    1.11091      4.99923     1.79028    0.09957     6.88909
      O   10   -0.46407      0.99991     3.45846    0.00571     4.46407
      O   11   -0.46265      0.99990     3.45714    0.00561     4.46265
      C   12   -0.29251      0.99952     2.28115    0.01185     3.29251
      C   13    0.05966      0.99959     1.92544    0.01531     2.94034
      N   14   -0.03963      0.99966     2.52636    0.01361     3.53963
      O   15   -0.14706      0.99987     3.13800    0.00919     4.14706
      C   16    0.10657      0.99955     1.87875    0.01512     2.89343
      C   17   -0.18370      0.99950     2.17508    0.00911     3.18370
      H   18    0.10627      0.00000     0.39217    0.00155     0.39373
      H   19    0.09684      0.00000     0.40217    0.00099     0.40316
      H   20    0.10090      0.00000     0.39751    0.00159     0.39910
      H   21    0.09115      0.00000     0.40755    0.00130     0.40885
      H   22    0.10136      0.00000     0.39724    0.00140     0.39864
      H   23    0.09941      0.00000     0.39882    0.00177     0.40059
      H   24    0.11213      0.00000     0.38618    0.00169     0.38787
      H   25    0.11595      0.00000     0.38308    0.00097     0.38405
      H   26    0.11994      0.00000     0.37880    0.00126     0.38006
      H   27    0.24466      0.00000     0.24699    0.00834     0.25534
      H   28    0.12165      0.00000     0.37715    0.00120     0.37835
      H   29    0.11812      0.00000     0.38084    0.00104     0.38188
      H   30    0.09503      0.00000     0.40399    0.00098     0.40497
      H   31    0.11838      0.00000     0.38070    0.00092     0.38162
 =======================================================================
   * Total *   -0.00000     20.99435    47.70039    0.30526    69.00000

 Normal termination of Gaussian 16 at Sun Dec 13 17:16:51 2020.
