 Gaussian 16, Revision A.03,

 -----------------------------------------------------------
 # opt freq B3LYP/6-31G(d) empiricaldispersion=gd3bj scf=xqc
 -----------------------------------------------------------

 -------------------------------
 CID_121184084_JID_6838_neutraal
 -------------------------------
 Symbolic Z-matrix:
 Charge =  0 Multiplicity = 1

 SCF Done:  E(RB3LYP) =  -726.880170151     A.U. after   15 cycles
 SCF Done:  E(RB3LYP) =  -726.885357340     A.U. after   12 cycles
 SCF Done:  E(RB3LYP) =  -726.885871829     A.U. after   11 cycles
 SCF Done:  E(RB3LYP) =  -726.886109675     A.U. after   12 cycles
 SCF Done:  E(RB3LYP) =  -726.886246485     A.U. after   11 cycles
 SCF Done:  E(RB3LYP) =  -726.886337773     A.U. after   11 cycles
 SCF Done:  E(RB3LYP) =  -726.886403420     A.U. after   11 cycles
 SCF Done:  E(RB3LYP) =  -726.886479448     A.U. after   11 cycles
 SCF Done:  E(RB3LYP) =  -726.886564025     A.U. after   11 cycles
 SCF Done:  E(RB3LYP) =  -726.886590573     A.U. after   11 cycles
 SCF Done:  E(RB3LYP) =  -726.894467940     A.U. after    9 cycles
 SCF Done:  E(RB3LYP) =  -726.894468580     A.U. after    8 cycles
 SCF Done:  E(RB3LYP) =  -726.894468779     A.U. after    8 cycles
 SCF Done:  E(RB3LYP) =  -726.894468831     A.U. after    7 cycles
 SCF Done:  E(RB3LYP) =  -726.894468835     A.U. after    7 cycles
 Optimization completed.
    -- Stationary point found.
 Normal termination of Gaussian 16 at Fri Dec 11 01:17:32 2020.

 --------------------------------------------------------------------
 #N Geom=AllCheck Guess=TCheck SCRF=Check GenChk RB3LYP/6-31G(d) Freq
 --------------------------------------------------------------------

 Structure from the checkpoint file:  "JID_6838.chk"
 -------------------------------
 CID_121184084_JID_6838_neutraal
 -------------------------------
 Charge =  0 Multiplicity = 1

 SCF Done:  E(RB3LYP) =  -726.894468835     A.U. after    1 cycles

  Exact polarizability: 182.699  -3.653 125.990  -9.654  -7.794 102.286
 Approx polarizability: 224.334  -5.995 217.029 -17.457 -26.904 156.752

                      1                      2                      3
                      A                      A                      A
 Frequencies --     16.9166                29.1561                58.8440
 Red. masses --      3.6802                 4.3875                 4.6127
 Frc consts  --      0.0006                 0.0022                 0.0094
 IR Inten    --      0.6305                 4.0678                 3.6854

                      4                      5                      6
                      A                      A                      A
 Frequencies --     69.6563               101.9111               118.1055
 Red. masses --      2.5078                 1.1114                 4.3855
 Frc consts  --      0.0072                 0.0068                 0.0360
 IR Inten    --      0.1728                 0.1604                 5.4121

                      7                      8                      9
                      A                      A                      A
 Frequencies --    155.4161               198.2109               228.6349
 Red. masses --      3.8371                 4.0431                 4.2424
 Frc consts  --      0.0546                 0.0936                 0.1307
 IR Inten    --      0.5897                 1.5864                 7.9063

                     10                     11                     12
                      A                      A                      A
 Frequencies --    229.6681               280.5522               314.5645
 Red. masses --      1.9983                 3.4700                 5.3430
 Frc consts  --      0.0621                 0.1609                 0.3115
 IR Inten    --      0.5526                 4.0315                 4.0256

                     13                     14                     15
                      A                      A                      A
 Frequencies --    365.1175               374.5672               408.3822
 Red. masses --      3.2325                 2.3355                 2.4110
 Frc consts  --      0.2539                 0.1931                 0.2369
 IR Inten    --      7.2694                 1.2597                 0.5473

                     16                     17                     18
                      A                      A                      A
 Frequencies --    447.1868               543.6975               583.7164
 Red. masses --      4.1928                 3.5409                 2.5652
 Frc consts  --      0.4940                 0.6167                 0.5150
 IR Inten    --      4.8017                 0.0052                 0.7967

                     19                     20                     21
                      A                      A                      A
 Frequencies --    606.1443               635.3566               644.2426
 Red. masses --      4.2054                 7.3547                 5.3860
 Frc consts  --      0.9103                 1.7492                 1.3171
 IR Inten    --      9.9223                 2.7159                 7.5929

                     22                     23                     24
                      A                      A                      A
 Frequencies --    681.5932               759.6940               770.6148
 Red. masses --      4.4616                 3.4145                 4.7615
 Frc consts  --      1.2212                 1.1611                 1.6660
 IR Inten    --      0.2521                 4.7600                 8.4499

                     25                     26                     27
                      A                      A                      A
 Frequencies --    783.3443               788.6384               847.0428
 Red. masses --      3.5246                 2.7651                 2.5536
 Frc consts  --      1.2743                 1.0133                 1.0795
 IR Inten    --      5.6712                18.1734                 2.6195

                     28                     29                     30
                      A                      A                      A
 Frequencies --    850.4862               873.0898               889.3150
 Red. masses --      1.4414                 1.9249                 1.8723
 Frc consts  --      0.6143                 0.8645                 0.8724
 IR Inten    --     15.7644                 1.4486                 0.5776

                     31                     32                     33
                      A                      A                      A
 Frequencies --    915.4055               922.2828               939.9018
 Red. masses --      2.4002                 4.0176                 4.4868
 Frc consts  --      1.1850                 2.0135                 2.3354
 IR Inten    --      1.5192                25.1238                24.7675

                     34                     35                     36
                      A                      A                      A
 Frequencies --    984.9422               996.6539              1003.5328
 Red. masses --      1.7755                 2.1182                 1.9272
 Frc consts  --      1.0148                 1.2397                 1.1435
 IR Inten    --      3.3077                 2.2227                 5.6733

                     37                     38                     39
                      A                      A                      A
 Frequencies --   1012.2241              1023.7609              1032.2441
 Red. masses --      3.4146                 1.6631                 1.8353
 Frc consts  --      2.0613                 1.0270                 1.1522
 IR Inten    --      0.7760                 4.0102                16.7467

                     40                     41                     42
                      A                      A                      A
 Frequencies --   1044.9833              1064.7772              1081.8645
 Red. masses --      3.2648                 1.9227                 1.5039
 Frc consts  --      2.1005                 1.2844                 1.0371
 IR Inten    --      3.4208                 2.8566                 3.5793

                     43                     44                     45
                      A                      A                      A
 Frequencies --   1092.5919              1135.9628              1150.4033
 Red. masses --      1.7511                 1.8842                 1.6741
 Frc consts  --      1.2316                 1.4325                 1.3054
 IR Inten    --      6.8938                 3.9543                 0.1620

                     46                     47                     48
                      A                      A                      A
 Frequencies --   1179.0096              1194.3602              1215.7864
 Red. masses --      1.5106                 1.4053                 1.5110
 Frc consts  --      1.2371                 1.1811                 1.3159
 IR Inten    --     11.5378                 1.8583                 2.3379

                     49                     50                     51
                      A                      A                      A
 Frequencies --   1230.6623              1249.9816              1255.1622
 Red. masses --      1.6589                 1.5452                 1.9648
 Frc consts  --      1.4803                 1.4225                 1.8238
 IR Inten    --      5.7050                67.7793                59.2745

                     52                     53                     54
                      A                      A                      A
 Frequencies --   1289.8968              1298.4684              1317.8212
 Red. masses --      2.8193                 1.3759                 1.4212
 Frc consts  --      2.7637                 1.3668                 1.4542
 IR Inten    --      9.1561                 8.8290                 4.9680

                     55                     56                     57
                      A                      A                      A
 Frequencies --   1333.9552              1343.6787              1355.2247
 Red. masses --      1.4478                 1.3579                 1.3311
 Frc consts  --      1.5179                 1.4445                 1.4404
 IR Inten    --      2.0743                 1.6177                 1.0814

                     58                     59                     60
                      A                      A                      A
 Frequencies --   1368.1176              1375.3979              1386.8071
 Red. masses --      1.4345                 1.4206                 1.4494
 Frc consts  --      1.5819                 1.5833                 1.6423
 IR Inten    --      0.7654                14.0469                 1.6556

                     61                     62                     63
                      A                      A                      A
 Frequencies --   1399.0026              1422.0121              1441.1945
 Red. masses --      1.7321                 3.0670                 1.2610
 Frc consts  --      1.9974                 3.6541                 1.5431
 IR Inten    --     23.6851               138.1107                 4.0195

                     64                     65                     66
                      A                      A                      A
 Frequencies --   1502.8194              1504.1384              1510.4315
 Red. masses --      4.0792                 1.0426                 2.6309
 Frc consts  --      5.4280                 1.3897                 3.5364
 IR Inten    --     34.8794                 7.6414               104.0170

                     67                     68                     69
                      A                      A                      A
 Frequencies --   1516.9696              1522.6901              1523.4875
 Red. masses --      1.0891                 1.4444                 1.2895
 Frc consts  --      1.4766                 1.9732                 1.7634
 IR Inten    --      2.7637                35.5442                47.8616

                     70                     71                     72
                      A                      A                      A
 Frequencies --   1537.2029              1538.4181              1550.2055
 Red. masses --      1.0867                 1.1445                 1.1053
 Frc consts  --      1.5129                 1.5960                 1.5649
 IR Inten    --      2.5044                 2.6874                 4.2515

                     73                     74                     75
                      A                      A                      A
 Frequencies --   1660.0150              1726.0582              3022.0210
 Red. masses --      7.0222                11.8222                 1.0744
 Frc consts  --     11.4011                20.7520                 5.7812
 IR Inten    --     45.7693               287.3101                39.7527

                     76                     77                     78
                      A                      A                      A
 Frequencies --   3045.4442              3046.4225              3056.1062
 Red. masses --      1.0682                 1.0692                 1.0685
 Frc consts  --      5.8369                 5.8463                 5.8799
 IR Inten    --     37.4882                22.5676                22.7051

                     79                     80                     81
                      A                      A                      A
 Frequencies --   3057.3050              3059.7347              3084.9430
 Red. masses --      1.0605                 1.0373                 1.0854
 Frc consts  --      5.8403                 5.7217                 6.0860
 IR Inten    --     21.1603                17.4011                32.2923

                     82                     83                     84
                      A                      A                      A
 Frequencies --   3096.4201              3098.7525              3101.1092
 Red. masses --      1.0973                 1.0934                 1.0945
 Frc consts  --      6.1987                 6.1861                 6.2017
 IR Inten    --     36.9776                 3.5934                49.2396

                     85                     86                     87
                      A                      A                      A
 Frequencies --   3112.0543              3115.9440              3116.7566
 Red. masses --      1.1020                 1.1015                 1.0977
 Frc consts  --      6.2882                 6.3012                 6.2827
 IR Inten    --     74.2505                 8.7439                31.9409

                     88                     89                     90
                      A                      A                      A
 Frequencies --   3155.3439              3172.9076              3316.7653
 Red. masses --      1.1011                 1.0905                 1.0990
 Frc consts  --      6.4591                 6.4683                 7.1231
 IR Inten    --      7.3916                 3.4407                 3.1467

 - Thermochemistry -
 -------------------
 Temperature   298.150 Kelvin.  Pressure   1.00000 Atm.
 Atom     1 has atomic number  6 and mass  12.00000

 Molecular mass:   220.12118 amu.
 Principal axes and moments of inertia in atomic units:
                           1         2         3
     Eigenvalues --  1350.473386612.500467116.63569
           X            0.99999   0.00381  -0.00224
           Y           -0.00378   0.99992   0.01224
           Z            0.00228  -0.01223   0.99992
 This molecule is an asymmetric top.
 Rotational symmetry number  1.
 Warning -- assumption of classical behavior for rotation
           may cause significant error
 Rotational temperatures (Kelvin)      0.06414     0.01310     0.01217
 Rotational constants (GHZ):           1.33638     0.27293     0.25359
 Zero-point vibrational energy     714543.8 (Joules/Mol)
                                  170.78008 (Kcal/Mol)
 Warning -- explicit consideration of  19 degrees of freedom as
           vibrations may cause significant error
 Vibrational temperatures:     24.34    41.95    84.66   100.22   146.63
          (Kelvin)            169.93   223.61   285.18   328.95   330.44
                              403.65   452.59   525.32   538.92   587.57
                              643.40   782.26   839.84   872.11   914.14
                              926.92   980.66  1093.03  1108.74  1127.06
                             1134.67  1218.71  1223.66  1256.18  1279.53
                             1317.06  1326.96  1352.31  1417.11  1433.96
                             1443.86  1456.36  1472.96  1485.17  1503.50
                             1531.98  1556.56  1572.00  1634.40  1655.17
                             1696.33  1718.42  1749.25  1770.65  1798.44
                             1805.90  1855.87  1868.21  1896.05  1919.26
                             1933.25  1949.87  1968.42  1978.89  1995.31
                             2012.85  2045.96  2073.56  2162.22  2164.12
                             2173.17  2182.58  2190.81  2191.96  2211.69
                             2213.44  2230.40  2388.39  2483.41  4348.01
                             4381.71  4383.12  4397.06  4398.78  4402.28
                             4438.54  4455.06  4458.41  4461.80  4477.55
                             4483.15  4484.32  4539.84  4565.11  4772.09

 Zero-point correction=                           0.272155 (Hartree/Particle)
 Thermal correction to Energy=                    0.286409
 Thermal correction to Enthalpy=                  0.287353
 Thermal correction to Gibbs Free Energy=         0.228449
 Sum of electronic and zero-point Energies=           -726.622313
 Sum of electronic and thermal Energies=              -726.608060
 Sum of electronic and thermal Enthalpies=            -726.607116
 Sum of electronic and thermal Free Energies=         -726.666020

                     E (Thermal)             CV                S
                      KCal/Mol        Cal/Mol-Kelvin    Cal/Mol-Kelvin
 Total                  179.724             53.939            123.974
 Electronic               0.000              0.000              0.000
 Translational            0.889              2.981             42.070
 Rotational               0.889              2.981             32.519
 Vibrational            177.947             47.977             49.386
 Vibration     1          0.593              1.986              6.967
 Vibration     2          0.593              1.984              5.886
 Vibration     3          0.596              1.974              4.496
 Vibration     4          0.598              1.969              4.163
 Vibration     5          0.604              1.948              3.417
 Vibration     6          0.608              1.934              3.131
 Vibration     7          0.620              1.897              2.605
 Vibration     8          0.637              1.842              2.150
 Vibration     9          0.651              1.797              1.890
 Vibration    10          0.652              1.796              1.882
 Vibration    11          0.680              1.710              1.530
 Vibration    12          0.702              1.646              1.338
 Vibration    13          0.738              1.544              1.100
 Vibration    14          0.746              1.524              1.061
 Vibration    15          0.773              1.452              0.932
 Vibration    16          0.806              1.367              0.804
 Vibration    17          0.899              1.153              0.557
 Vibration    18          0.941              1.067              0.479
 Vibration    19          0.965              1.019              0.439

 Optimization completed.
    -- Stationary point found.
 Normal termination of Gaussian 16 at Fri Dec 11 01:27:43 2020.

 ----------------------------------------------------------------------
 # B3LYP/6-311++G(d,p) empiricaldispersion=gd3bj scf=xqc pop=npa geom=c
 heck
 ----------------------------------------------------------------------

 ---------------------------------------
 CID_121184084_JID_6838_Energie_neutraal
 ---------------------------------------
 Structure from the checkpoint file:  "JID_6838.chk"
 Charge =  0 Multiplicity = 1

 SCF Done:  E(RB3LYP) =  -727.088900181     A.U. after   15 cycles
 Normal termination of Gaussian 16 at Fri Dec 11 01:31:57 2020.

 ----------------------------------------------------------------------
 # B3LYP/6-311++G(d,p) empiricaldispersion=gd3bj scf=xqc pop=npa geom=c
 heck
 ----------------------------------------------------------------------

 -------------------------------------
 CID_121184084_JID_6838_Energie_kation
 -------------------------------------
 Structure from the checkpoint file:  "JID_6838.chk"
 Charge =  1 Multiplicity = 2

 SCF Done:  E(UB3LYP) =  -726.775677968     A.U. after   27 cycles
 Normal termination of Gaussian 16 at Fri Dec 11 01:42:08 2020.
 Gaussian 16:  ES64L-G16RevA.03 25-Dec-2016

 ----------------------------------------------------------------------
 # B3LYP/6-311++G(d,p) empiricaldispersion=gd3bj scf=xqc pop=npa geom=c
 heck
 ----------------------------------------------------------------------

 ------------------------------------
 CID_121184084_JID_6838_Energie_anion
 ------------------------------------
 Structure from the checkpoint file:  "JID_6838.chk"
 Charge = -1 Multiplicity = 2

                         Standard orientation:
 ---------------------------------------------------------------------
 Center     Atomic      Atomic             Coordinates (Angstroms)
 Number     Number       Type             X           Y           Z
 ---------------------------------------------------------------------
      1          6           0        5.259206   -0.340180   -0.596017
      2          6           0        3.818137   -0.179828   -0.263142
      3          6           0        2.906108    0.810264   -0.455332
      4          6           0        1.705697    0.295643    0.114327
      5          7           0        1.883337   -0.909725    0.618441
      6          8           0        3.222217   -1.217256    0.379078
      7          6           0        0.432477    1.087201    0.151158
      8          8           0        0.480330    2.268845   -0.200320
      9          7           0       -0.725508    0.501371    0.545146
     10          6           0       -1.943308    1.315448    0.602066
     11          6           0       -3.114486    0.307989    0.692503
     12          6           0       -4.019685    0.341098   -0.550697
     13          6           0       -3.216312   -0.449736   -1.592737
     14          6           0       -2.658315   -1.635041   -0.783047
     15          6           0       -2.442570   -1.103931    0.664788
     16          6           0       -0.976376   -0.855413    1.034603
     17          1           0        5.855266   -0.496294    0.310071
     18          1           0        5.416778   -1.205088   -1.250111
     19          1           0        5.626328    0.553770   -1.105281
     20          1           0        3.030769    1.774503   -0.920254
     21          1           0       -1.908766    1.986634    1.469643
     22          1           0       -1.986956    1.948024   -0.288267
     23          1           0       -3.679860    0.473822    1.613843
     24          1           0       -4.267478    1.359971   -0.868006
     25          1           0       -4.964050   -0.176174   -0.336312
     26          1           0       -2.393760    0.167162   -1.975299
     27          1           0       -3.816169   -0.763077   -2.453347
     28          1           0       -1.737278   -2.041563   -1.213558
     29          1           0       -3.391486   -2.449760   -0.767019
     30          1           0       -2.898087   -1.782958    1.391108
     31          1           0       -0.286091   -1.565757    0.583461
     32          1           0       -0.827771   -0.898521    2.123317
 ---------------------------------------------------------------------

 SCF Done:  E(UB3LYP) =  -727.083360148     A.U. after   33 cycles
 SCF Done:  E(UB3LYP) =  -727.083360149     a.u. after    1 cycles

 The electronic state is 2-A.
 Alpha  occ. eigenvalues --  -19.07579 -18.94799 -14.21866 -14.21445 -10.13692
 Alpha  occ. eigenvalues --  -10.12098 -10.09199 -10.08265 -10.08135 -10.07657
 Alpha  occ. eigenvalues --  -10.06446 -10.06331 -10.06004 -10.05981 -10.05766
 Alpha  occ. eigenvalues --  -10.05613  -1.01568  -0.90616  -0.82092  -0.74721
 Alpha  occ. eigenvalues --   -0.72720  -0.69384  -0.63963  -0.63135  -0.61621
 Alpha  occ. eigenvalues --   -0.57261  -0.54623  -0.49995  -0.47573  -0.45862
 Alpha  occ. eigenvalues --   -0.44195  -0.43203  -0.40065  -0.39162  -0.36610
 Alpha  occ. eigenvalues --   -0.36091  -0.35688  -0.33240  -0.32763  -0.31987
 Alpha  occ. eigenvalues --   -0.31909  -0.31515  -0.30433  -0.28447  -0.28183
 Alpha  occ. eigenvalues --   -0.27393  -0.26390  -0.26117  -0.23488  -0.22825
 Alpha  occ. eigenvalues --   -0.22181  -0.21922  -0.21818  -0.21303  -0.17834
 Alpha  occ. eigenvalues --   -0.17287  -0.14534  -0.13112  -0.11966   0.04586
 Alpha virt. eigenvalues --    0.06459   0.06578   0.08157   0.08595   0.09440
 Alpha virt. eigenvalues --    0.09816   0.10189   0.10860   0.10987   0.11350
 Alpha virt. eigenvalues --    0.11722   0.12284   0.13100   0.13206   0.14335

  Beta  occ. eigenvalues --  -19.07388 -18.94590 -14.21437 -14.21413 -10.13573
  Beta  occ. eigenvalues --  -10.12019 -10.09206 -10.08261 -10.08132 -10.07578
  Beta  occ. eigenvalues --  -10.06429 -10.06317 -10.05995 -10.05969 -10.05754
  Beta  occ. eigenvalues --  -10.05660  -1.01171  -0.90303  -0.81972  -0.74247
  Beta  occ. eigenvalues --   -0.72647  -0.69231  -0.63932  -0.63073  -0.61470
  Beta  occ. eigenvalues --   -0.57204  -0.54417  -0.49819  -0.47355  -0.45812
  Beta  occ. eigenvalues --   -0.44135  -0.43095  -0.39960  -0.39051  -0.36053
  Beta  occ. eigenvalues --   -0.36014  -0.35581  -0.33094  -0.32634  -0.31933
  Beta  occ. eigenvalues --   -0.31862  -0.30982  -0.30319  -0.28364  -0.28087
  Beta  occ. eigenvalues --   -0.27247  -0.25976  -0.25767  -0.23457  -0.22653
  Beta  occ. eigenvalues --   -0.22102  -0.21879  -0.21770  -0.21255  -0.17301
  Beta  occ. eigenvalues --   -0.16329  -0.13321  -0.12858  -0.11499
  Beta virt. eigenvalues --    0.06466   0.07137   0.08616   0.08999   0.09379
  Beta virt. eigenvalues --    0.09629   0.09914   0.10442   0.11024   0.11291
  Beta virt. eigenvalues --    0.11432   0.12049   0.12374   0.13384   0.13554

 Mulliken charges and spin densities:
               1          2
     1  C   -0.321134  -0.068119
     2  C   -0.434681   0.054521
     3  C    0.101402   0.036992
     4  C   -0.052300   0.059117
     5  N   -0.580346   0.222970
     6  O    0.281429   0.039392
     7  C    0.198550  -0.007880
     8  O   -0.389381   0.069721
     9  N    0.056095  -0.019237
    10  C   -0.057178  -0.458317
    11  C    0.208097   0.078334
    12  C    0.290729  -0.874409
    13  C   -0.446087   0.146105
    14  C    0.449068  -0.960167
    15  C    0.254993   0.089344
    16  C   -0.685173  -0.036872
    17  H    0.097019   0.055870
    18  H    0.153851  -0.002645
    19  H    0.140306   0.009273
    20  H    0.170113   0.014570
    21  H    0.071264   0.119140
    22  H    0.180633   0.023022
    23  H   -0.391880   0.626078
    24  H    0.020816   0.106272
    25  H   -0.239361   0.377141
    26  H    0.142384   0.022350
    27  H    0.043112   0.114161
    28  H    0.096940   0.029645
    29  H   -0.173206   0.318570
    30  H   -0.446366   0.684765
    31  H    0.158281   0.047542
    32  H    0.102012   0.082749
 Sum of Mulliken charges =  -1.00000   1.00000

 Dipole moment (field-independent basis, Debye):
    X=              5.4520    Y=              0.3510    Z=             -2.8334  Tot=              6.1543
 Quadrupole moment (field-independent basis, Debye-Ang):
   XX=           -156.7801   YY=           -129.6958   ZZ=           -117.9736
   XY=             -6.0035   XZ=              2.3499   YZ=              2.7810

 Summary of Natural Population Analysis:

                                       Natural Population
                Natural  -----------------------------------------------
    Atom  No    Charge         Core      Valence    Rydberg      Total
 -----------------------------------------------------------------------
      C    1   -0.30572      0.99963     2.30169    0.00441     3.30572
      C    2    0.16711      0.99951     1.81998    0.01340     2.83289
      C    3   -0.17060      0.99945     2.16226    0.00889     3.17060
      C    4    0.04533      0.99956     1.94140    0.01371     2.95467
      N    5   -0.01989      0.99967     2.50788    0.01234     3.51989
      O    6   -0.16115      0.99985     3.15206    0.00924     4.16115
      C    7    0.34166      0.99959     1.63768    0.02107     2.65834
      O    8   -0.31631      0.99989     3.31146    0.00496     4.31631
      N    9   -0.24871      0.99964     2.74040    0.00867     3.74871
      C   10   -0.08280      0.99961     2.07084    0.01235     3.08280
      C   11   -0.11401      0.99960     2.10301    0.01141     3.11401
      C   12   -0.18768      0.99962     2.17918    0.00887     3.18768
      C   13   -0.19497      0.99964     2.18724    0.00810     3.19497
      C   14   -0.19168      0.99963     2.18280    0.00925     3.19168
      C   15   -0.11109      0.99959     2.09995    0.01154     3.11109
      C   16   -0.08276      0.99960     2.07195    0.01122     3.08276
      H   17    0.10515      0.00000     0.39336    0.00149     0.39485
      H   18    0.10476      0.00000     0.39417    0.00107     0.39524
      H   19    0.10424      0.00000     0.39491    0.00085     0.39576
      H   20    0.11676      0.00000     0.38245    0.00079     0.38324
      H   21    0.09610      0.00000     0.40282    0.00108     0.40390
      H   22    0.10363      0.00000     0.39517    0.00121     0.39637
      H   23    0.10464      0.00000     0.39332    0.00204     0.39536
      H   24    0.09700      0.00000     0.40220    0.00081     0.40300
      H   25    0.09747      0.00000     0.40104    0.00150     0.40253
      H   26    0.09689      0.00000     0.40182    0.00129     0.40311
      H   27    0.09699      0.00000     0.40210    0.00091     0.40301
      H   28    0.09940      0.00000     0.39964    0.00096     0.40060
      H   29    0.09763      0.00000     0.40108    0.00130     0.40237
      H   30    0.10504      0.00000     0.39296    0.00201     0.39496
      H   31    0.11555      0.00000     0.38248    0.00198     0.38445
      H   32    0.09203      0.00000     0.40668    0.00130     0.40797
 =======================================================================
   * Total *   -0.00000     15.99408    42.81593    0.18999    59.00000

 Normal termination of Gaussian 16 at Fri Dec 11 01:54:28 2020.
