 Gaussian 16, Revision A.03,

 -----------------------------------------------------------
 # opt freq B3LYP/6-31G(d) empiricaldispersion=gd3bj scf=xqc
 -----------------------------------------------------------

 ------------------------------
 CID_62835242_JID_4968_neutraal
 ------------------------------
 Symbolic Z-matrix:
 Charge =  0 Multiplicity = 1

 SCF Done:  E(RB3LYP) =  -617.172161363     A.U. after   15 cycles
 SCF Done:  E(RB3LYP) =  -617.177388319     A.U. after   12 cycles
 SCF Done:  E(RB3LYP) =  -617.173249067     A.U. after   13 cycles
 SCF Done:  E(RB3LYP) =  -617.177162055     A.U. after   12 cycles
 SCF Done:  E(RB3LYP) =  -617.178890556     A.U. after    9 cycles
 SCF Done:  E(RB3LYP) =  -617.178884049     A.U. after   12 cycles
 SCF Done:  E(RB3LYP) =  -617.179807996     A.U. after   12 cycles
 SCF Done:  E(RB3LYP) =  -617.180117475     A.U. after   12 cycles
 SCF Done:  E(RB3LYP) =  -617.180131774     A.U. after   11 cycles
 SCF Done:  E(RB3LYP) =  -617.180129808     A.U. after   11 cycles
 SCF Done:  E(RB3LYP) =  -617.180189426     A.U. after    8 cycles
 SCF Done:  E(RB3LYP) =  -617.180189641     A.U. after    7 cycles
 SCF Done:  E(RB3LYP) =  -617.180189747     A.U. after    7 cycles
 SCF Done:  E(RB3LYP) =  -617.180189819     A.U. after    7 cycles
 SCF Done:  E(RB3LYP) =  -617.180189823     A.U. after    7 cycles
 Optimization completed.
    -- Stationary point found.
 Normal termination of Gaussian 16 at Thu Dec 10 11:14:24 2020.

 --------------------------------------------------------------------
 #N Geom=AllCheck Guess=TCheck SCRF=Check GenChk RB3LYP/6-31G(d) Freq
 --------------------------------------------------------------------

 Structure from the checkpoint file:  "JID_4968.chk"
 ------------------------------
 CID_62835242_JID_4968_neutraal
 ------------------------------
 Charge =  0 Multiplicity = 1

 SCF Done:  E(RB3LYP) =  -617.180189823     A.U. after    1 cycles

  Exact polarizability: 141.590   4.136 141.427   0.110  -6.292 110.474
 Approx polarizability: 187.113  10.267 200.046  -8.845 -18.718 167.976

                      1                      2                      3
                      A                      A                      A
 Frequencies --     48.9294                52.8173                70.6513
 Red. masses --      4.1631                 3.1440                 2.9745
 Frc consts  --      0.0059                 0.0052                 0.0087
 IR Inten    --      1.7737                 0.1343                 0.0940

                      4                      5                      6
                      A                      A                      A
 Frequencies --     93.3920               103.6848               110.0508
 Red. masses --      2.9252                 3.2458                 3.5642
 Frc consts  --      0.0150                 0.0206                 0.0254
 IR Inten    --      1.3811                 0.2332                 0.7939

                      7                      8                      9
                      A                      A                      A
 Frequencies --    147.6676               201.3742               211.2874
 Red. masses --      1.7770                 1.4889                 1.0699
 Frc consts  --      0.0228                 0.0356                 0.0281
 IR Inten    --      2.3572                 1.3699                 0.0415

                     10                     11                     12
                      A                      A                      A
 Frequencies --    225.6383               235.1834               243.2280
 Red. masses --      2.6217                 2.1811                 1.2077
 Frc consts  --      0.0786                 0.0711                 0.0421
 IR Inten    --      0.1729                 1.7176                 0.9668

                     13                     14                     15
                      A                      A                      A
 Frequencies --    253.3030               259.6569               275.3898
 Red. masses --      2.6023                 1.4770                 1.3351
 Frc consts  --      0.0984                 0.0587                 0.0597
 IR Inten    --      2.5800                 0.2768                 0.3805

                     16                     17                     18
                      A                      A                      A
 Frequencies --    307.7833               322.0107               352.8572
 Red. masses --      2.3304                 1.7549                 2.4356
 Frc consts  --      0.1301                 0.1072                 0.1787
 IR Inten    --      1.6367                 2.1035                 2.5427

                     19                     20                     21
                      A                      A                      A
 Frequencies --    368.1987               404.6465               419.1840
 Red. masses --      2.4255                 2.6827                 2.3175
 Frc consts  --      0.1937                 0.2588                 0.2399
 IR Inten    --      4.0376                 4.6384                 1.0439

                     22                     23                     24
                      A                      A                      A
 Frequencies --    445.8278               477.9136               490.9820
 Red. masses --      3.5475                 2.2769                 3.1113
 Frc consts  --      0.4154                 0.3064                 0.4419
 IR Inten    --      1.8408                11.8265                 0.8060

                     25                     26                     27
                      A                      A                      A
 Frequencies --    524.2887               562.1850               596.7680
 Red. masses --      3.2265                 2.6515                 2.5731
 Frc consts  --      0.5226                 0.4937                 0.5399
 IR Inten    --      7.2921                 5.7310                23.4628

                     28                     29                     30
                      A                      A                      A
 Frequencies --    692.3846               727.5731               750.6151
 Red. masses --      1.3719                 1.8967                 2.9388
 Frc consts  --      0.3875                 0.5916                 0.9755
 IR Inten    --      1.4111                74.8943                 6.9320

                     31                     32                     33
                      A                      A                      A
 Frequencies --    759.6970               806.7227               828.6914
 Red. masses --      2.4741                 1.4522                 2.7744
 Frc consts  --      0.8413                 0.5568                 1.1225
 IR Inten    --      1.5427                10.2687                 1.7437

                     34                     35                     36
                      A                      A                      A
 Frequencies --    871.3525               904.5479               927.0798
 Red. masses --      2.1932                 1.6296                 1.3383
 Frc consts  --      0.9811                 0.7856                 0.6777
 IR Inten    --      5.1361                11.8325                35.9778

                     37                     38                     39
                      A                      A                      A
 Frequencies --    939.9881               948.6334               970.2952
 Red. masses --      2.1279                 1.5706                 1.6899
 Frc consts  --      1.1078                 0.8327                 0.9374
 IR Inten    --      3.4872                 0.6193                22.8507

                     40                     41                     42
                      A                      A                      A
 Frequencies --    986.5986              1022.3262              1037.7512
 Red. masses --      1.6225                 2.5491                 1.3045
 Frc consts  --      0.9305                 1.5697                 0.8277
 IR Inten    --      1.8430                 3.1973                 0.0203

                     43                     44                     45
                      A                      A                      A
 Frequencies --   1054.9861              1087.5876              1105.7082
 Red. masses --      1.4883                 1.5584                 1.6664
 Frc consts  --      0.9760                 1.0861                 1.2004
 IR Inten    --     15.4602                14.2678                30.4440

                     46                     47                     48
                      A                      A                      A
 Frequencies --   1118.1040              1132.7985              1154.7422
 Red. masses --      1.8979                 2.4100                 1.9815
 Frc consts  --      1.3979                 1.8221                 1.5567
 IR Inten    --     15.5922                61.7143                 2.2079

                     49                     50                     51
                      A                      A                      A
 Frequencies --   1169.6317              1202.8739              1228.9914
 Red. masses --      1.6298                 2.5199                 2.3786
 Frc consts  --      1.3137                 2.1482                 2.1168
 IR Inten    --     17.4871                54.2443                91.5204

                     52                     53                     54
                      A                      A                      A
 Frequencies --   1236.3614              1267.6084              1297.4344
 Red. masses --      2.6248                 2.2944                 2.1920
 Frc consts  --      2.3639                 2.1721                 2.1740
 IR Inten    --     23.2844                14.7278                 3.0660

                     55                     56                     57
                      A                      A                      A
 Frequencies --   1317.5081              1340.7601              1386.3593
 Red. masses --      2.7866                 1.3579                 1.3138
 Frc consts  --      2.8499                 1.4382                 1.4877
 IR Inten    --      8.9685                38.9261                41.3617

                     58                     59                     60
                      A                      A                      A
 Frequencies --   1406.5545              1419.2187              1431.8618
 Red. masses --      1.2976                 1.2185                 1.3483
 Frc consts  --      1.5126                 1.4460                 1.6287
 IR Inten    --     26.7584                 6.2113                17.2322

                     61                     62                     63
                      A                      A                      A
 Frequencies --   1435.2339              1439.0552              1448.5918
 Red. masses --      1.2788                 1.2426                 1.5062
 Frc consts  --      1.5520                 1.5161                 1.8622
 IR Inten    --     12.9113                 8.5531                50.4791

                     64                     65                     66
                      A                      A                      A
 Frequencies --   1472.9315              1477.6708              1500.4093
 Red. masses --      1.1771                 1.2104                 1.1236
 Frc consts  --      1.5046                 1.5571                 1.4903
 IR Inten    --      2.8360                 3.5418                 5.6586

                     67                     68                     69
                      A                      A                      A
 Frequencies --   1503.1580              1507.9874              1514.7638
 Red. masses --      1.1078                 1.0492                 1.0532
 Frc consts  --      1.4748                 1.4057                 1.4237
 IR Inten    --      8.6334                 4.8627                 0.4493

                     70                     71                     72
                      A                      A                      A
 Frequencies --   1520.0790              1523.3736              1527.7759
 Red. masses --      1.0505                 1.0598                 1.0478
 Frc consts  --      1.4301                 1.4491                 1.4409
 IR Inten    --      1.1547                 8.5921                10.3243

                     73                     74                     75
                      A                      A                      A
 Frequencies --   1529.7077              1536.2865              1539.7867
 Red. masses --      1.0753                 1.0528                 1.0561
 Frc consts  --      1.4825                 1.4641                 1.4752
 IR Inten    --     19.3545                 4.3286                 8.4875

                     76                     77                     78
                      A                      A                      A
 Frequencies --   1542.8242              1552.3046              1563.3161
 Red. masses --      1.1120                 1.0761                 1.0682
 Frc consts  --      1.5595                 1.5278                 1.5381
 IR Inten    --     27.6222                16.7791                 1.5734

                     79                     80                     81
                      A                      A                      A
 Frequencies --   1731.2938              1736.1422              2964.0545
 Red. masses --      8.7963                 5.3466                 1.0612
 Frc consts  --     15.5344                 9.4951                 5.4930
 IR Inten    --    177.3862                51.1724                87.3052

                     82                     83                     84
                      A                      A                      A
 Frequencies --   3040.2045              3047.8383              3049.3391
 Red. masses --      1.0421                 1.0716                 1.0451
 Frc consts  --      5.6747                 5.8650                 5.7254
 IR Inten    --     18.2845                11.7381                28.9389

                     85                     86                     87
                      A                      A                      A
 Frequencies --   3050.3215              3056.5226              3081.7292
 Red. masses --      1.0398                 1.0417                 1.0680
 Frc consts  --      5.7004                 5.7340                 5.9757
 IR Inten    --     28.0946                28.3096                35.6029

                     88                     89                     90
                      A                      A                      A
 Frequencies --   3093.5089              3097.4711              3109.5310
 Red. masses --      1.0764                 1.0940                 1.1012
 Frc consts  --      6.0692                 6.1839                 6.2737
 IR Inten    --     46.2771                16.5216                33.1600

                     91                     92                     93
                      A                      A                      A
 Frequencies --   3113.7070              3127.0365              3136.8522
 Red. masses --      1.0995                 1.0912                 1.1018
 Frc consts  --      6.2805                 6.2869                 6.3875
 IR Inten    --     25.4031                16.4417                21.9088

                     94                     95                     96
                      A                      A                      A
 Frequencies --   3147.1025              3157.8918              3157.9810
 Red. masses --      1.0971                 1.0706                 1.0880
 Frc consts  --      6.4023                 6.2901                 6.3928
 IR Inten    --     16.1863                 2.5457                13.1991

                     97                     98                     99
                      A                      A                      A
 Frequencies --   3159.3138              3160.4071              3170.5072
 Red. masses --      1.0957                 1.1008                 1.0919
 Frc consts  --      6.4438                 6.4779                 6.4670
 IR Inten    --     14.1342                14.6054                 7.8781

                    100                    101                    102
                      A                      A                      A
 Frequencies --   3173.7956              3234.7544              3488.5922
 Red. masses --      1.0988                 1.1158                 1.0738
 Frc consts  --      6.5212                 6.8789                 7.6996
 IR Inten    --     18.0367                18.2154                 2.5641

 - Thermochemistry -
 -------------------
 Temperature   298.150 Kelvin.  Pressure   1.00000 Atm.
 Atom     1 has atomic number  6 and mass  12.00000

 Molecular mass:   198.17321 amu.
 Principal axes and moments of inertia in atomic units:
                           1         2         3
     Eigenvalues --  2193.990483194.631064411.56292
           X            0.99952  -0.02468   0.01851
           Y            0.02444   0.99961   0.01335
           Z           -0.01883  -0.01289   0.99974
 This molecule is an asymmetric top.
 Rotational symmetry number  1.
 Warning -- assumption of classical behavior for rotation
           may cause significant error
 Rotational temperatures (Kelvin)      0.03948     0.02711     0.01963
 Rotational constants (GHZ):           0.82258     0.56493     0.40909
 Zero-point vibrational energy     853890.8 (Joules/Mol)
                                  204.08481 (Kcal/Mol)
 Warning -- explicit consideration of  27 degrees of freedom as
           vibrations may cause significant error
 Vibrational temperatures:     70.40    75.99   101.65   134.37   149.18
          (Kelvin)            158.34   212.46   289.73   304.00   324.64
                              338.38   349.95   364.45   373.59   396.22
                              442.83   463.30   507.68   529.76   582.20
                              603.11   641.45   687.61   706.41   754.33
                              808.86   858.62   996.19  1046.82  1079.97
                             1093.03  1160.69  1192.30  1253.68  1301.44
                             1333.86  1352.43  1364.87  1396.04  1419.50
                             1470.90  1493.09  1517.89  1564.80  1590.87
                             1608.70  1629.84  1661.42  1682.84  1730.67
                             1768.24  1778.85  1823.81  1866.72  1895.60
                             1929.05  1994.66  2023.72  2041.94  2060.13
                             2064.98  2070.48  2084.20  2119.22  2126.04
                             2158.75  2162.71  2169.66  2179.41  2187.05
                             2191.79  2198.13  2200.91  2210.37  2215.41
                             2219.78  2233.42  2249.26  2490.95  2497.92
                             4264.61  4374.18  4385.16  4387.32  4388.73
                             4397.65  4433.92  4450.87  4456.57  4473.92
                             4479.93  4499.11  4513.23  4527.98  4543.50
                             4543.63  4545.55  4547.12  4561.65  4566.38
                             4654.09  5019.31

 Zero-point correction=                           0.325230 (Hartree/Particle)
 Thermal correction to Energy=                    0.342104
 Thermal correction to Enthalpy=                  0.343048
 Thermal correction to Gibbs Free Energy=         0.281865
 Sum of electronic and zero-point Energies=           -616.854960
 Sum of electronic and thermal Energies=              -616.838086
 Sum of electronic and thermal Enthalpies=            -616.837142
 Sum of electronic and thermal Free Energies=         -616.898325

                     E (Thermal)             CV                S
                      KCal/Mol        Cal/Mol-Kelvin    Cal/Mol-Kelvin
 Total                  214.673             63.470            128.770
 Electronic               0.000              0.000              0.000
 Translational            0.889              2.981             41.757
 Rotational               0.889              2.981             31.803
 Vibrational            212.896             57.508             55.210
 Vibration     1          0.595              1.978              4.860
 Vibration     2          0.596              1.976              4.709
 Vibration     3          0.598              1.968              4.135
 Vibration     4          0.602              1.954              3.588
 Vibration     5          0.605              1.946              3.384
 Vibration     6          0.606              1.941              3.268
 Vibration     7          0.617              1.905              2.702
 Vibration     8          0.638              1.838              2.121
 Vibration     9          0.643              1.824              2.033
 Vibration    10          0.650              1.802              1.913
 Vibration    11          0.655              1.787              1.839
 Vibration    12          0.659              1.774              1.779
 Vibration    13          0.664              1.757              1.707
 Vibration    14          0.668              1.746              1.664
 Vibration    15          0.677              1.719              1.562
 Vibration    16          0.698              1.659              1.374
 Vibration    17          0.707              1.631              1.300
 Vibration    18          0.729              1.569              1.153
 Vibration    19          0.741              1.538              1.087
 Vibration    20          0.770              1.460              0.946
 Vibration    21          0.782              1.429              0.895
 Vibration    22          0.805              1.370              0.808
 Vibration    23          0.834              1.299              0.716
 Vibration    24          0.847              1.270              0.681
 Vibration    25          0.879              1.196              0.600
 Vibration    26          0.918              1.113              0.519
 Vibration    27          0.955              1.039              0.455

 Optimization completed.
    -- Stationary point found.
 Normal termination of Gaussian 16 at Thu Dec 10 11:27:21 2020.

 ----------------------------------------------------------------------
 # B3LYP/6-311++G(d,p) empiricaldispersion=gd3bj scf=xqc pop=npa geom=c
 heck
 ----------------------------------------------------------------------

 --------------------------------------
 CID_62835242_JID_4968_Energie_neutraal
 --------------------------------------
 Structure from the checkpoint file:  "JID_4968.chk"
 Charge =  0 Multiplicity = 1

 SCF Done:  E(RB3LYP) =  -617.359439058     A.U. after   16 cycles
 Normal termination of Gaussian 16 at Thu Dec 10 11:34:43 2020.

 ----------------------------------------------------------------------
 # B3LYP/6-311++G(d,p) empiricaldispersion=gd3bj scf=xqc pop=npa geom=c
 heck
 ----------------------------------------------------------------------

 ------------------------------------
 CID_62835242_JID_4968_Energie_kation
 ------------------------------------
 Structure from the checkpoint file:  "JID_4968.chk"
 Charge =  1 Multiplicity = 2

 SCF Done:  E(UB3LYP) =  -617.070010542     A.U. after   26 cycles
 Normal termination of Gaussian 16 at Thu Dec 10 11:50:43 2020.
 Gaussian 16:  ES64L-G16RevA.03 25-Dec-2016

 ----------------------------------------------------------------------
 # B3LYP/6-311++G(d,p) empiricaldispersion=gd3bj scf=xqc pop=npa geom=c
 heck
 ----------------------------------------------------------------------

 -----------------------------------
 CID_62835242_JID_4968_Energie_anion
 -----------------------------------
 Structure from the checkpoint file:  "JID_4968.chk"
 Charge = -1 Multiplicity = 2

                         Standard orientation:
 ---------------------------------------------------------------------
 Center     Atomic      Atomic             Coordinates (Angstroms)
 Number     Number       Type             X           Y           Z
 ---------------------------------------------------------------------
      1          6           0       -0.735765    3.265207    0.675952
      2          6           0       -1.117724    2.189304   -0.339960
      3          7           0       -0.623771    0.854051    0.039489
      4          6           0       -1.522608    0.077821    0.898572
      5          6           0       -2.336730   -0.994893    0.197032
      6          6           0       -2.553716   -2.174831    0.785058
      7          6           0       -2.927493   -0.632625   -1.138843
      8          6           0        0.678638    0.579983   -0.340658
      9          8           0        1.311727    1.447197   -0.934471
     10          6           0        1.327401   -0.828218   -0.135243
     11          6           0        1.126445   -1.463896    1.262274
     12          6           0        0.744582   -1.755342   -1.219532
     13          7           0        2.756775   -0.686718   -0.455726
     14          6           0        3.565407    0.096334    0.473441
     15          1           0       -1.127563    3.030142    1.672942
     16          1           0       -1.139042    4.238938    0.375093
     17          1           0        0.352535    3.344447    0.736777
     18          1           0       -2.205371    2.120880   -0.439950
     19          1           0       -0.702139    2.435177   -1.317200
     20          1           0       -0.988635   -0.345759    1.747083
     21          1           0       -2.221084    0.806868    1.328029
     22          1           0       -3.179234   -2.935406    0.325534
     23          1           0       -2.124182   -2.420331    1.753332
     24          1           0       -3.616684    0.217749   -1.047854
     25          1           0       -2.143900   -0.329352   -1.842411
     26          1           0       -3.478498   -1.472036   -1.571826
     27          1           0        0.151797   -1.941400    1.369481
     28          1           0        1.879654   -2.250291    1.389676
     29          1           0        1.262322   -0.745038    2.076642
     30          1           0        0.926778   -1.324485   -2.207635
     31          1           0        1.240853   -2.733289   -1.171845
     32          1           0       -0.324530   -1.921101   -1.077700
     33          1           0        3.137347   -1.629251   -0.514766
     34          1           0        3.543714   -0.249969    1.522434
     35          1           0        4.605815    0.065658    0.133797
     36          1           0        3.234592    1.135874    0.441225
 ---------------------------------------------------------------------

 SCF Done:  E(UB3LYP) =  -617.346718412     A.U. after   33 cycles
 SCF Done:  E(UB3LYP) =  -617.346718412     a.u. after    1 cycles

 The electronic state is 2-A.
 Alpha  occ. eigenvalues --  -18.98216 -14.24157 -14.19635 -10.16945 -10.12289
 Alpha  occ. eigenvalues --  -10.11142 -10.10039 -10.08856 -10.08297 -10.06881
 Alpha  occ. eigenvalues --  -10.06583 -10.06552 -10.06307 -10.06210  -0.93935
 Alpha  occ. eigenvalues --   -0.83262  -0.81032  -0.71309  -0.68252  -0.65213
 Alpha  occ. eigenvalues --   -0.60761  -0.59805  -0.59080  -0.56145  -0.54952
 Alpha  occ. eigenvalues --   -0.50340  -0.45969  -0.42533  -0.39788  -0.38701
 Alpha  occ. eigenvalues --   -0.37355  -0.37273  -0.35851  -0.35066  -0.34374
 Alpha  occ. eigenvalues --   -0.33378  -0.32632  -0.32410  -0.31344  -0.30234
 Alpha  occ. eigenvalues --   -0.30043  -0.28757  -0.28183  -0.28074  -0.27616
 Alpha  occ. eigenvalues --   -0.26779  -0.26200  -0.25603  -0.25318  -0.24808
 Alpha  occ. eigenvalues --   -0.23854  -0.16343  -0.14983  -0.14579  -0.12518
 Alpha  occ. eigenvalues --    0.04302
 Alpha virt. eigenvalues --    0.06163   0.06936   0.07568   0.08264   0.08404
 Alpha virt. eigenvalues --    0.08969   0.09437   0.09910   0.10265   0.10615
 Alpha virt. eigenvalues --    0.11454   0.12021   0.12133   0.12202   0.12720

  Beta  occ. eigenvalues --  -18.98214 -14.24158 -14.19625 -10.16942 -10.12287
  Beta  occ. eigenvalues --  -10.11116 -10.10023 -10.08839 -10.08285 -10.06846
  Beta  occ. eigenvalues --  -10.06556 -10.06537 -10.06269 -10.06185  -0.93933
  Beta  occ. eigenvalues --   -0.83252  -0.81017  -0.71259  -0.68232  -0.65181
  Beta  occ. eigenvalues --   -0.60710  -0.59762  -0.59019  -0.56112  -0.54906
  Beta  occ. eigenvalues --   -0.50302  -0.45911  -0.42471  -0.39747  -0.38667
  Beta  occ. eigenvalues --   -0.37324  -0.37235  -0.35824  -0.35037  -0.34342
  Beta  occ. eigenvalues --   -0.33348  -0.32600  -0.32379  -0.31307  -0.30199
  Beta  occ. eigenvalues --   -0.30017  -0.28731  -0.28152  -0.28039  -0.27592
  Beta  occ. eigenvalues --   -0.26753  -0.26174  -0.25574  -0.25288  -0.24781
  Beta  occ. eigenvalues --   -0.23836  -0.16247  -0.14960  -0.14564  -0.12505
  Beta virt. eigenvalues --    0.06479   0.07098   0.07466   0.08208   0.08536
  Beta virt. eigenvalues --    0.08782   0.09371   0.09905   0.10252   0.10581
  Beta virt. eigenvalues --    0.10927   0.11784   0.12175   0.12339   0.12643

 Mulliken charges and spin densities:
               1          2
     1  C    0.401413  -0.847217
     2  C   -0.187622   0.207509
     3  N    0.051576   0.129018
     4  C    0.929488  -1.884287
     5  C   -1.614022   2.649860
     6  C    0.477624  -1.146611
     7  C    1.138390  -1.768733
     8  C    0.531472  -0.814167
     9  O   -0.245793  -0.003393
    10  C   -1.351503   1.283619
    11  C    0.394462  -0.990604
    12  C   -0.415352  -0.172147
    13  N    0.065198  -0.025516
    14  C    0.043531  -0.376636
    15  H   -0.141328   0.277935
    16  H   -0.142406   0.282180
    17  H    0.108697   0.060127
    18  H   -0.055503   0.220289
    19  H    0.175372   0.005965
    20  H    0.049849   0.129849
    21  H   -0.504795   0.719637
    22  H   -0.297471   0.425624
    23  H   -0.303047   0.434285
    24  H   -0.294372   0.458927
    25  H    0.028494   0.146422
    26  H   -0.240067   0.390348
    27  H    0.320583  -0.255861
    28  H   -0.296359   0.478803
    29  H   -0.127251   0.327034
    30  H    0.120551   0.079661
    31  H   -0.179805   0.311933
    32  H    0.341943  -0.152294
    33  H    0.166920   0.059955
    34  H   -0.102463   0.206961
    35  H    0.019989   0.111109
    36  H    0.133608   0.040417
 Sum of Mulliken charges =  -1.00000   1.00000

 Dipole moment (field-independent basis, Debye):
    X=              3.6996    Y=              0.1854    Z=             -1.8093  Tot=              4.1225
 Quadrupole moment (field-independent basis, Debye-Ang):
   XX=           -157.2658   YY=           -138.0549   ZZ=           -129.0901
   XY=              0.0002   XZ=              4.6739   YZ=              2.8199

 Summary of Natural Population Analysis:

                                       Natural Population
                Natural  -----------------------------------------------
    Atom  No    Charge         Core      Valence    Rydberg      Total
 -----------------------------------------------------------------------
      C    1   -0.29120      0.99965     2.28652    0.00503     3.29120
      C    2   -0.08483      0.99961     2.07385    0.01137     3.08483
      N    3   -0.26317      0.99965     2.75076    0.01276     3.76317
      C    4   -0.10220      0.99953     2.08855    0.01412     3.10220
      C    5   -0.00693      0.99951     1.99541    0.01200     3.00693
      C    6   -0.19295      0.99947     2.18483    0.00865     3.19295
      C    7   -0.30258      0.99961     2.29636    0.00662     3.30258
      C    8    0.35458      0.99959     1.62176    0.02408     2.64542
      O    9   -0.32415      0.99988     3.31921    0.00506     4.32415
      C   10    0.02482      0.99956     1.96240    0.01321     2.97518
      C   11   -0.29981      0.99962     2.29271    0.00748     3.29981
      C   12   -0.28389      0.99961     2.27688    0.00740     3.28389
      N   13   -0.33218      0.99973     2.82044    0.01201     3.83218
      C   14   -0.18326      0.99965     2.17658    0.00703     3.18326
      H   15    0.09787      0.00000     0.40093    0.00120     0.40213
      H   16    0.09779      0.00000     0.40141    0.00080     0.40221
      H   17    0.10452      0.00000     0.39444    0.00104     0.39548
      H   18    0.09471      0.00000     0.40372    0.00157     0.40529
      H   19    0.10700      0.00000     0.39184    0.00116     0.39300
      H   20    0.10752      0.00000     0.39056    0.00192     0.39248
      H   21    0.11003      0.00000     0.38725    0.00272     0.38997
      H   22    0.09531      0.00000     0.40359    0.00110     0.40469
      H   23    0.09482      0.00000     0.40368    0.00149     0.40518
      H   24    0.10760      0.00000     0.39051    0.00189     0.39240
      H   25    0.10477      0.00000     0.39381    0.00142     0.39523
      H   26    0.10415      0.00000     0.39488    0.00097     0.39585
      H   27    0.10564      0.00000     0.39251    0.00185     0.39436
      H   28    0.10255      0.00000     0.39621    0.00123     0.39745
      H   29    0.10296      0.00000     0.39565    0.00139     0.39704
      H   30    0.10654      0.00000     0.39237    0.00109     0.39346
      H   31    0.09721      0.00000     0.40181    0.00098     0.40279
      H   32    0.10807      0.00000     0.39061    0.00133     0.39193
      H   33    0.16811      0.00000     0.32910    0.00279     0.33189
      H   34    0.07670      0.00000     0.42150    0.00180     0.42330
      H   35    0.09114      0.00000     0.40803    0.00083     0.40886
      H   36    0.10274      0.00000     0.39592    0.00135     0.39726
 =======================================================================
   * Total *   -0.00000     13.99467    40.82660    0.17873    55.00000

 Normal termination of Gaussian 16 at Thu Dec 10 12:11:21 2020.
