 Gaussian 16, Revision A.03,

 -----------------------------------------------------------
 # opt freq B3LYP/6-31G(d) empiricaldispersion=gd3bj scf=xqc
 -----------------------------------------------------------

 -------------------------------
 CID_106281874_JID_4459_neutraal
 -------------------------------
 Symbolic Z-matrix:
 Charge =  0 Multiplicity = 1

 SCF Done:  E(RB3LYP) =  -646.836490610     A.U. after   14 cycles
 SCF Done:  E(RB3LYP) =  -646.840006441     A.U. after   12 cycles
 SCF Done:  E(RB3LYP) =  -646.839137677     A.U. after   12 cycles
 SCF Done:  E(RB3LYP) =  -646.840555876     A.U. after   12 cycles
 SCF Done:  E(RB3LYP) =  -646.841155259     A.U. after   12 cycles
 SCF Done:  E(RB3LYP) =  -646.841334012     A.U. after   11 cycles
 SCF Done:  E(RB3LYP) =  -646.841393799     A.U. after   11 cycles
 SCF Done:  E(RB3LYP) =  -646.841462544     A.U. after   10 cycles
 SCF Done:  E(RB3LYP) =  -646.841529009     A.U. after   11 cycles
 SCF Done:  E(RB3LYP) =  -646.841563875     A.U. after   11 cycles
 SCF Done:  E(RB3LYP) =  -646.841685189     A.U. after   10 cycles
 SCF Done:  E(RB3LYP) =  -646.841694495     A.U. after   10 cycles
 SCF Done:  E(RB3LYP) =  -646.841696186     A.U. after   10 cycles
 SCF Done:  E(RB3LYP) =  -646.841696950     A.U. after    9 cycles
 SCF Done:  E(RB3LYP) =  -646.841697249     A.U. after    8 cycles
 SCF Done:  E(RB3LYP) =  -646.841697308     A.U. after    7 cycles
 Optimization completed.
    -- Stationary point found.
 Normal termination of Gaussian 16 at Thu Dec 10 09:56:31 2020.

 --------------------------------------------------------------------
 #N Geom=AllCheck Guess=TCheck SCRF=Check GenChk RB3LYP/6-31G(d) Freq
 --------------------------------------------------------------------

 Structure from the checkpoint file:  "JID_4459.chk"
 -------------------------------
 CID_106281874_JID_4459_neutraal
 -------------------------------
 Charge =  0 Multiplicity = 1

 SCF Done:  E(RB3LYP) =  -646.841697308     A.U. after    1 cycles

  Exact polarizability: 118.879  -1.272 120.259  -0.471  -3.199 103.911
 Approx polarizability: 146.326  -9.728 175.291  -3.914   0.055 179.521

                      1                      2                      3
                      A                      A                      A
 Frequencies --     27.5661                35.6973                53.0344
 Red. masses --      3.0776                 3.2158                 5.0563
 Frc consts  --      0.0014                 0.0024                 0.0084
 IR Inten    --      1.0967                 0.2045                 0.8312

                      4                      5                      6
                      A                      A                      A
 Frequencies --     77.6880                86.3163               153.0888
 Red. masses --      4.2969                 4.0098                 3.9492
 Frc consts  --      0.0153                 0.0176                 0.0545
 IR Inten    --      3.4964                 2.0881                 0.6768

                      7                      8                      9
                      A                      A                      A
 Frequencies --    187.5883               208.7283               241.3571
 Red. masses --      3.1973                 3.5284                 1.9884
 Frc consts  --      0.0663                 0.0906                 0.0682
 IR Inten    --      3.3008                 0.6868                 1.1810

                     10                     11                     12
                      A                      A                      A
 Frequencies --    244.6257               284.2692               299.0226
 Red. masses --      1.1568                 3.2529                 2.2843
 Frc consts  --      0.0408                 0.1549                 0.1203
 IR Inten    --      0.8499                 4.6240                 6.5622

                     13                     14                     15
                      A                      A                      A
 Frequencies --    403.0420               419.5400               463.3659
 Red. masses --      4.9602                 2.6141                 2.8963
 Frc consts  --      0.4747                 0.2711                 0.3664
 IR Inten    --      8.5442                 2.4822                 2.5921

                     16                     17                     18
                      A                      A                      A
 Frequencies --    530.0658               552.9654               596.9312
 Red. masses --      2.5281                 1.5158                 1.9358
 Frc consts  --      0.4185                 0.2731                 0.4064
 IR Inten    --     16.5898                45.5757                 3.9376

                     19                     20                     21
                      A                      A                      A
 Frequencies --    666.9712               690.1011               694.6863
 Red. masses --      2.1718                 3.5476                 3.2992
 Frc consts  --      0.5692                 0.9954                 0.9381
 IR Inten    --     31.2805                27.3269                34.6899

                     22                     23                     24
                      A                      A                      A
 Frequencies --    765.2097               776.8476               836.9725
 Red. masses --      4.1502                 2.2532                 2.2935
 Frc consts  --      1.4318                 0.8011                 0.9466
 IR Inten    --      2.0079                99.1470                 5.0908

                     25                     26                     27
                      A                      A                      A
 Frequencies --    874.9830               894.3526               897.5658
 Red. masses --      1.9339                 1.3728                 1.8926
 Frc consts  --      0.8723                 0.6469                 0.8984
 IR Inten    --      4.2747                 6.3599                18.5099

                     28                     29                     30
                      A                      A                      A
 Frequencies --    916.3328               945.8866               951.3349
 Red. masses --      1.6623                 2.4912                 2.6308
 Frc consts  --      0.8224                 1.3132                 1.4028
 IR Inten    --      1.3569                 2.3591                11.7321

                     31                     32                     33
                      A                      A                      A
 Frequencies --    984.7156               986.9451              1028.4768
 Red. masses --      7.5072                 1.4828                 2.4105
 Frc consts  --      4.2889                 0.8510                 1.5022
 IR Inten    --     14.2800                12.8622                10.9991

                     34                     35                     36
                      A                      A                      A
 Frequencies --   1030.8007              1067.0728              1093.1250
 Red. masses --      2.2808                 2.1486                 2.4377
 Frc consts  --      1.4279                 1.4414                 1.7162
 IR Inten    --     34.8156                16.2019                21.0087

                     37                     38                     39
                      A                      A                      A
 Frequencies --   1101.5328              1111.1984              1120.2349
 Red. masses --      2.2037                 3.8245                 4.3940
 Frc consts  --      1.5754                 2.7823                 3.2489
 IR Inten    --      4.3619               101.1962                12.8220

                     40                     41                     42
                      A                      A                      A
 Frequencies --   1126.5295              1170.3559              1194.3044
 Red. masses --      2.0862                 3.1899                 2.0937
 Frc consts  --      1.5599                 2.5743                 1.7595
 IR Inten    --     41.9824                43.6152                 9.2505

                     43                     44                     45
                      A                      A                      A
 Frequencies --   1216.0372              1216.8497              1225.5075
 Red. masses --      1.7030                 1.6794                 1.7335
 Frc consts  --      1.4837                 1.4651                 1.5339
 IR Inten    --     17.5699                 4.9978                16.7813

                     46                     47                     48
                      A                      A                      A
 Frequencies --   1247.1419              1275.3118              1301.8117
 Red. masses --      1.5380                 1.2980                 1.4452
 Frc consts  --      1.4094                 1.2438                 1.4430
 IR Inten    --      2.6924                12.7184                 2.3471

                     49                     50                     51
                      A                      A                      A
 Frequencies --   1311.4511              1328.1312              1341.7024
 Red. masses --      2.7990                 1.2869                 1.1920
 Frc consts  --      2.8363                 1.3374                 1.2642
 IR Inten    --     22.9700                 3.2026                 0.9301

                     52                     53                     54
                      A                      A                      A
 Frequencies --   1348.0770              1360.5010              1384.6703
 Red. masses --      1.3949                 1.3087                 1.3712
 Frc consts  --      1.4936                 1.4273                 1.5490
 IR Inten    --      4.7079                 1.5789                22.3299

                     55                     56                     57
                      A                      A                      A
 Frequencies --   1394.6454              1412.8195              1419.2368
 Red. masses --      1.3229                 1.3588                 1.4384
 Frc consts  --      1.5160                 1.5980                 1.7071
 IR Inten    --      0.7087                 7.1257                 2.5745

                     58                     59                     60
                      A                      A                      A
 Frequencies --   1426.8541              1433.5473              1498.8025
 Red. masses --      1.6494                 1.9417                 2.8386
 Frc consts  --      1.9785                 2.3511                 3.7570
 IR Inten    --      6.6308                 4.2143                23.0961

                     61                     62                     63
                      A                      A                      A
 Frequencies --   1502.5106              1512.2050              1516.0739
 Red. masses --      1.1524                 1.0759                 1.0878
 Frc consts  --      1.5328                 1.4496                 1.4732
 IR Inten    --      1.4183                 8.9401                 3.3129

                     64                     65                     66
                      A                      A                      A
 Frequencies --   1522.7966              1529.2034              1549.2644
 Red. masses --      1.0712                 1.1035                 1.2553
 Frc consts  --      1.4635                 1.5204                 1.7752
 IR Inten    --     14.2276                 2.1577                17.2369

                     67                     68                     69
                      A                      A                      A
 Frequencies --   1559.0621              1588.9420              2989.6579
 Red. masses --      1.1031                 3.8043                 1.0729
 Frc consts  --      1.5798                 5.6590                 5.6499
 IR Inten    --      1.0053                18.8788                82.8370

                     70                     71                     72
                      A                      A                      A
 Frequencies --   3029.4880              3037.5295              3042.0478
 Red. masses --      1.0813                 1.0696                 1.0807
 Frc consts  --      5.8471                 5.8147                 5.8925
 IR Inten    --     10.4923                23.8281                 3.0176

                     73                     74                     75
                      A                      A                      A
 Frequencies --   3048.8779              3055.3955              3066.7423
 Red. masses --      1.0740                 1.0357                 1.0625
 Frc consts  --      5.8821                 5.6965                 5.8878
 IR Inten    --     70.5422                23.4727                22.5692

                     76                     77                     78
                      A                      A                      A
 Frequencies --   3094.4790              3096.6391              3118.4763
 Red. masses --      1.0910                 1.1014                 1.1046
 Frc consts  --      6.1552                 6.2224                 6.3293
 IR Inten    --     55.9693                30.9113                35.8031

                     79                     80                     81
                      A                      A                      A
 Frequencies --   3124.6101              3149.5781              3157.8871
 Red. masses --      1.1018                 1.1033                 1.0930
 Frc consts  --      6.3378                 6.4484                 6.4221
 IR Inten    --     25.8772                19.5899                14.7556

                     82                     83                     84
                      A                      A                      A
 Frequencies --   3279.1744              3504.9946              3654.1665
 Red. masses --      1.0972                 1.0733                 1.0816
 Frc consts  --      6.9512                 7.7689                 8.5094
 IR Inten    --      6.6696                 3.1048                55.6827

 - Thermochemistry -
 -------------------
 Temperature   298.150 Kelvin.  Pressure   1.00000 Atm.
 Atom     1 has atomic number  6 and mass  12.00000

 Molecular mass:   196.13241 amu.
 Principal axes and moments of inertia in atomic units:
                           1         2         3
     Eigenvalues --  1745.423663638.503204720.79160
           X            0.99903   0.04389   0.00259
           Y           -0.04387   0.99900  -0.00841
           Z           -0.00295   0.00829   0.99996
 This molecule is an asymmetric top.
 Rotational symmetry number  1.
 Warning -- assumption of classical behavior for rotation
           may cause significant error
 Rotational temperatures (Kelvin)      0.04962     0.02380     0.01835
 Rotational constants (GHZ):           1.03398     0.49601     0.38230
 Zero-point vibrational energy     685845.0 (Joules/Mol)
                                  163.92089 (Kcal/Mol)
 Warning -- explicit consideration of  18 degrees of freedom as
           vibrations may cause significant error
 Vibrational temperatures:     39.66    51.36    76.30   111.78   124.19
          (Kelvin)            220.26   269.90   300.31   347.26   351.96
                              409.00   430.23   579.89   603.62   666.68
                              762.65   795.59   858.85   959.62   992.90
                              999.50  1100.97  1117.71  1204.22  1258.91
                             1286.77  1291.40  1318.40  1360.92  1368.76
                             1416.79  1419.99  1479.75  1483.09  1535.28
                             1572.76  1584.86  1598.77  1611.77  1620.82
                             1683.88  1718.34  1749.61  1750.78  1763.23
                             1794.36  1834.89  1873.02  1886.89  1910.88
                             1930.41  1939.58  1957.46  1992.23  2006.58
                             2032.73  2041.97  2052.92  2062.55  2156.44
                             2161.78  2175.73  2181.29  2190.96  2200.18
                             2229.05  2243.14  2286.13  4301.45  4358.76
                             4370.33  4376.83  4386.66  4396.03  4412.36
                             4452.27  4455.37  4486.79  4495.62  4531.54
                             4543.50  4718.00  5042.91  5257.53

 Zero-point correction=                           0.261225 (Hartree/Particle)
 Thermal correction to Energy=                    0.274647
 Thermal correction to Enthalpy=                  0.275591
 Thermal correction to Gibbs Free Energy=         0.219170
 Sum of electronic and zero-point Energies=           -646.580473
 Sum of electronic and thermal Energies=              -646.567050
 Sum of electronic and thermal Enthalpies=            -646.566106
 Sum of electronic and thermal Free Energies=         -646.622527

                     E (Thermal)             CV                S
                      KCal/Mol        Cal/Mol-Kelvin    Cal/Mol-Kelvin
 Total                  172.343             49.898            118.748
 Electronic               0.000              0.000              0.000
 Translational            0.889              2.981             41.726
 Rotational               0.889              2.981             31.772
 Vibrational            170.566             43.937             45.250
 Vibration     1          0.593              1.984              5.997
 Vibration     2          0.594              1.982              5.485
 Vibration     3          0.596              1.976              4.701
 Vibration     4          0.599              1.964              3.948
 Vibration     5          0.601              1.959              3.742
 Vibration     6          0.619              1.899              2.633
 Vibration     7          0.632              1.857              2.252
 Vibration     8          0.642              1.827              2.055
 Vibration     9          0.658              1.777              1.793
 Vibration    10          0.660              1.772              1.769
 Vibration    11          0.683              1.703              1.508
 Vibration    12          0.692              1.676              1.422
 Vibration    13          0.768              1.464              0.952
 Vibration    14          0.782              1.428              0.894
 Vibration    15          0.821              1.331              0.756
 Vibration    16          0.885              1.183              0.587
 Vibration    17          0.908              1.133              0.538
 Vibration    18          0.955              1.038              0.455

 Optimization completed.
    -- Stationary point found.
 Normal termination of Gaussian 16 at Thu Dec 10 10:04:55 2020.

 ----------------------------------------------------------------------
 # B3LYP/6-311++G(d,p) empiricaldispersion=gd3bj scf=xqc pop=npa geom=c
 heck
 ----------------------------------------------------------------------

 ---------------------------------------
 CID_106281874_JID_4459_Energie_neutraal
 ---------------------------------------
 Structure from the checkpoint file:  "JID_4459.chk"
 Charge =  0 Multiplicity = 1

 SCF Done:  E(RB3LYP) =  -647.025592137     A.U. after   15 cycles
 Normal termination of Gaussian 16 at Thu Dec 10 10:08:12 2020.

 ----------------------------------------------------------------------
 # B3LYP/6-311++G(d,p) empiricaldispersion=gd3bj scf=xqc pop=npa geom=c
 heck
 ----------------------------------------------------------------------

 -------------------------------------
 CID_106281874_JID_4459_Energie_kation
 -------------------------------------
 Structure from the checkpoint file:  "JID_4459.chk"
 Charge =  1 Multiplicity = 2

 SCF Done:  E(UB3LYP) =  -646.726039766     A.U. after   24 cycles
 Normal termination of Gaussian 16 at Thu Dec 10 10:16:13 2020.
 Gaussian 16:  ES64L-G16RevA.03 25-Dec-2016

 ----------------------------------------------------------------------
 # B3LYP/6-311++G(d,p) empiricaldispersion=gd3bj scf=xqc pop=npa geom=c
 heck
 ----------------------------------------------------------------------

 ------------------------------------
 CID_106281874_JID_4459_Energie_anion
 ------------------------------------
 Structure from the checkpoint file:  "JID_4459.chk"
 Charge = -1 Multiplicity = 2

                         Standard orientation:
 ---------------------------------------------------------------------
 Center     Atomic      Atomic             Coordinates (Angstroms)
 Number     Number       Type             X           Y           Z
 ---------------------------------------------------------------------
      1          6           0        2.759913    2.057007   -0.488762
      2          6           0        1.431080    1.281483   -0.472613
      3          6           0        1.685279   -0.149574   -0.060073
      4          7           0        1.649712   -0.609328    1.184119
      5          6           0        1.955210   -1.932562    1.040590
      6          7           0        2.181017   -2.329771   -0.203172
      7          7           0        2.010919   -1.165761   -0.892206
      8          7           0        0.480491    1.965814    0.392882
      9          6           0       -0.944515    1.751947    0.159172
     10          6           0       -1.568000    0.382088    0.493730
     11          6           0       -1.404403   -0.736212   -0.555226
     12          6           0       -2.771872   -1.433990   -0.536963
     13          6           0       -3.706146   -0.257889   -0.263368
     14          8           0       -2.990246    0.595661    0.625740
     15          1           0        3.184468    2.087641    0.520244
     16          1           0        2.579380    3.082096   -0.822392
     17          1           0        3.493251    1.582401   -1.150790
     18          1           0        1.012271    1.280772   -1.487756
     19          1           0        2.008973   -2.620226    1.873211
     20          1           0        2.103372   -1.164782   -1.897792
     21          1           0        0.714469    1.759743    1.362469
     22          1           0       -1.481119    2.486753    0.769025
     23          1           0       -1.162278    1.999033   -0.888801
     24          1           0       -1.186015    0.046665    1.467808
     25          1           0       -1.215402   -0.303308   -1.546760
     26          1           0       -0.585999   -1.417538   -0.320332
     27          1           0       -3.002449   -1.963608   -1.466612
     28          1           0       -2.819243   -2.153469    0.288357
     29          1           0       -3.950126    0.275293   -1.196962
     30          1           0       -4.645839   -0.543219    0.220884
 ---------------------------------------------------------------------

 SCF Done:  E(UB3LYP) =  -647.016662751     A.U. after   29 cycles

 The electronic state is 2-A.
 Alpha  occ. eigenvalues --  -19.01987 -14.28883 -14.24153 -14.20725 -14.20160
 Alpha  occ. eigenvalues --  -10.14223 -10.12266 -10.11721 -10.11656 -10.11552
 Alpha  occ. eigenvalues --  -10.09122 -10.07227 -10.06593 -10.06369  -0.97672
 Alpha  occ. eigenvalues --   -0.93613  -0.82098  -0.79238  -0.73618  -0.68501
 Alpha  occ. eigenvalues --   -0.67185  -0.63766  -0.56472  -0.54726  -0.52895
 Alpha  occ. eigenvalues --   -0.50249  -0.49912  -0.47610  -0.45032  -0.40989
 Alpha  occ. eigenvalues --   -0.39497  -0.38206  -0.36620  -0.36111  -0.35070
 Alpha  occ. eigenvalues --   -0.34023  -0.32724  -0.32318  -0.30776  -0.28932
 Alpha  occ. eigenvalues --   -0.27604  -0.27360  -0.25876  -0.25416  -0.24401
 Alpha  occ. eigenvalues --   -0.23742  -0.23513  -0.22084  -0.20264  -0.18894
 Alpha  occ. eigenvalues --   -0.16811  -0.16185  -0.12768   0.04548
 Alpha virt. eigenvalues --    0.06886   0.07834   0.08242   0.09018   0.09286
 Alpha virt. eigenvalues --    0.09535   0.10010   0.10367   0.11391   0.11741
 Alpha virt. eigenvalues --    0.12241   0.12662   0.12820   0.13287   0.14297

  Beta  occ. eigenvalues --  -19.01987 -14.28794 -14.24133 -14.20716 -14.20157
  Beta  occ. eigenvalues --  -10.14217 -10.12268 -10.11697 -10.11641 -10.11551
  Beta  occ. eigenvalues --  -10.09111 -10.07210 -10.06570 -10.06336  -0.97612
  Beta  occ. eigenvalues --   -0.93608  -0.82071  -0.79177  -0.73549  -0.68470
  Beta  occ. eigenvalues --   -0.67148  -0.63728  -0.56421  -0.54642  -0.52837
  Beta  occ. eigenvalues --   -0.50181  -0.49849  -0.47577  -0.44971  -0.40970
  Beta  occ. eigenvalues --   -0.39452  -0.38160  -0.36565  -0.36038  -0.35033
  Beta  occ. eigenvalues --   -0.34003  -0.32698  -0.32284  -0.30745  -0.28891
  Beta  occ. eigenvalues --   -0.27567  -0.27322  -0.25818  -0.25388  -0.24376
  Beta  occ. eigenvalues --   -0.23698  -0.23475  -0.22066  -0.20179  -0.18874
  Beta  occ. eigenvalues --   -0.16743  -0.16166  -0.12757
  Beta virt. eigenvalues --    0.06978   0.07800   0.08099   0.08940   0.09295
  Beta virt. eigenvalues --    0.09511   0.10105   0.10351   0.10694   0.11627
  Beta virt. eigenvalues --    0.12136   0.12447   0.12902   0.13115   0.13579

 Mulliken charges and spin densities:
               1          2
     1  C    0.663592  -1.221866
     2  C   -1.549288   0.736362
     3  C    1.276097  -1.581031
     4  N   -0.014220   0.022364
     5  C    0.148751  -0.004945
     6  N   -0.046270   0.002442
     7  N    0.002010   0.034560
     8  N    0.123804   0.080262
     9  C    0.525611  -0.828567
    10  C   -1.038928   0.665059
    11  C    0.588231  -0.607123
    12  C   -0.525448   0.090459
    13  C    0.215243  -0.490680
    14  O   -0.133397   0.014028
    15  H    0.087018   0.050667
    16  H   -0.115470   0.297319
    17  H   -0.313021   0.461838
    18  H   -0.588976   0.777462
    19  H    0.061926   0.084365
    20  H   -0.569295   0.931741
    21  H    0.248540  -0.031424
    22  H    0.179652   0.011939
    23  H   -0.073277   0.231386
    24  H    0.098787   0.111909
    25  H   -0.215900   0.434571
    26  H    0.298207  -0.194594
    27  H   -0.369735   0.527295
    28  H    0.100883   0.041279
    29  H   -0.044547   0.182651
    30  H   -0.020582   0.170269
 Sum of Mulliken charges =  -1.00000   1.00000

 Dipole moment (field-independent basis, Debye):
    X=             -2.2038    Y=              0.2597    Z=              7.6905  Tot=              8.0042
 Quadrupole moment (field-independent basis, Debye-Ang):
   XX=           -140.1699   YY=           -122.1482   ZZ=           -131.7574
   XY=              1.1540   XZ=              9.5257   YZ=             -3.8677

 Summary of Natural Population Analysis:

                                       Natural Population
                Natural  -----------------------------------------------
    Atom  No    Charge         Core      Valence    Rydberg      Total
 -----------------------------------------------------------------------
      C    1   -0.27644      0.99964     2.27062    0.00618     3.27644
      C    2   -0.03773      0.99956     2.02309    0.01509     3.03773
      C    3    0.19248      0.99960     1.78769    0.02023     2.80752
      N    4   -0.28001      0.99969     2.77192    0.00840     3.78001
      C    5    0.08270      0.99968     1.89958    0.01804     2.91730
      N    6   -0.15790      0.99974     2.64586    0.01229     3.65790
      N    7   -0.17519      0.99963     2.66113    0.01443     3.67519
      N    8   -0.33615      0.99974     2.82578    0.01063     3.83615
      C    9   -0.09145      0.99959     2.07906    0.01281     3.09145
      C   10    0.05784      0.99956     1.92957    0.01303     2.94216
      C   11   -0.20915      0.99962     2.19990    0.00963     3.20915
      C   12   -0.20109      0.99964     2.19392    0.00753     3.20109
      C   13   -0.00879      0.99960     1.99667    0.01252     3.00879
      O   14   -0.30926      0.99989     3.30130    0.00807     4.30926
      H   15    0.09697      0.00000     0.40212    0.00091     0.40303
      H   16    0.10417      0.00000     0.39458    0.00126     0.39583
      H   17    0.10304      0.00000     0.39566    0.00129     0.39696
      H   18    0.10961      0.00000     0.38500    0.00539     0.39039
      H   19    0.09054      0.00000     0.40871    0.00074     0.40946
      H   20    0.21674      0.00000     0.26347    0.01979     0.28326
      H   21    0.17881      0.00000     0.31893    0.00226     0.32119
      H   22    0.09716      0.00000     0.40174    0.00110     0.40284
      H   23    0.09314      0.00000     0.40527    0.00160     0.40686
      H   24    0.08621      0.00000     0.41236    0.00143     0.41379
      H   25    0.10237      0.00000     0.39491    0.00272     0.39763
      H   26    0.10847      0.00000     0.38937    0.00216     0.39153
      H   27    0.10576      0.00000     0.39296    0.00128     0.39424
      H   28    0.09399      0.00000     0.40492    0.00109     0.40601
      H   29    0.07817      0.00000     0.42032    0.00151     0.42183
      H   30    0.08499      0.00000     0.41387    0.00114     0.41501
 =======================================================================
   * Total *    0.00000     13.99518    38.79027    0.21455    53.00000

 Normal termination of Gaussian 16 at Thu Dec 10 10:25:14 2020.
