 Gaussian 16, Revision A.03,

 -----------------------------------------------------------
 # opt freq B3LYP/6-31G(d) empiricaldispersion=gd3bj scf=xqc
 -----------------------------------------------------------

 -----------------------------
 CID_57000060_JID_623_neutraal
 -----------------------------
 Symbolic Z-matrix:
 Charge =  0 Multiplicity = 1

 SCF Done:  E(RB3LYP) =  -533.704294370     A.U. after   18 cycles
 SCF Done:  E(RB3LYP) =  -533.721615037     A.U. after   14 cycles
 SCF Done:  E(RB3LYP) =  -533.723769091     A.U. after   13 cycles
 SCF Done:  E(RB3LYP) =  -533.725536960     A.U. after   13 cycles
 SCF Done:  E(RB3LYP) =  -533.725679645     A.U. after   13 cycles
 SCF Done:  E(RB3LYP) =  -533.725900581     A.U. after   12 cycles
 SCF Done:  E(RB3LYP) =  -533.725977975     A.U. after   11 cycles
 SCF Done:  E(RB3LYP) =  -533.726004609     A.U. after   10 cycles
 SCF Done:  E(RB3LYP) =  -533.726019500     A.U. after   11 cycles
 SCF Done:  E(RB3LYP) =  -533.726029221     A.U. after   11 cycles
 SCF Done:  E(RB3LYP) =  -533.726098480     A.U. after   11 cycles
 SCF Done:  E(RB3LYP) =  -533.726099641     A.U. after    9 cycles
 SCF Done:  E(RB3LYP) =  -533.726100127     A.U. after    9 cycles
 SCF Done:  E(RB3LYP) =  -533.726100565     A.U. after    9 cycles
 SCF Done:  E(RB3LYP) =  -533.726100783     A.U. after    9 cycles
 SCF Done:  E(RB3LYP) =  -533.726100816     A.U. after    8 cycles
 Optimization completed.
    -- Stationary point found.
 Normal termination of Gaussian 16 at Tue Dec  8 12:24:09 2020.

 --------------------------------------------------------------------
 #N Geom=AllCheck Guess=TCheck SCRF=Check GenChk RB3LYP/6-31G(d) Freq
 --------------------------------------------------------------------

 Structure from the checkpoint file:  "JID_623.chk"
 -----------------------------
 CID_57000060_JID_623_neutraal
 -----------------------------
 Charge =  0 Multiplicity = 1

 SCF Done:  E(RB3LYP) =  -533.726100816     A.U. after    1 cycles

  Exact polarizability:  86.195  -9.961  65.901   0.256   0.601  48.295
 Approx polarizability: 127.267 -22.631 111.093   1.013   3.787  90.793

                      1                      2                      3
                      A                      A                      A
 Frequencies --     28.0092                76.9421               118.2611
 Red. masses --      5.2338                 6.6427                 9.1429
 Frc consts  --      0.0024                 0.0232                 0.0753
 IR Inten    --      2.7434                 1.1806                 0.9147

                      4                      5                      6
                      A                      A                      A
 Frequencies --    199.8021               277.9617               308.3442
 Red. masses --      1.7534                 3.4447                 2.3366
 Frc consts  --      0.0412                 0.1568                 0.1309
 IR Inten    --     23.7354                18.9384                 2.3062

                      7                      8                      9
                      A                      A                      A
 Frequencies --    345.3326               385.3621               394.3031
 Red. masses --      1.9708                 2.0155                 3.3416
 Frc consts  --      0.1385                 0.1763                 0.3061
 IR Inten    --      8.5974                39.1540                 1.5265

                     10                     11                     12
                      A                      A                      A
 Frequencies --    434.8204               523.5404               616.0353
 Red. masses --      2.7402                 2.3517                 4.8443
 Frc consts  --      0.3053                 0.3798                 1.0832
 IR Inten    --     34.5188                85.0212                31.4929

                     13                     14                     15
                      A                      A                      A
 Frequencies --    679.8599               692.4368               756.7968
 Red. masses --      5.4503                 7.2864                13.1707
 Frc consts  --      1.4843                 2.0584                 4.4444
 IR Inten    --     34.3938                22.9399                 2.2522

                     16                     17                     18
                      A                      A                      A
 Frequencies --    819.2942               894.7017               905.3071
 Red. masses --      1.4840                 4.2995                 4.1548
 Frc consts  --      0.5869                 2.0278                 2.0063
 IR Inten    --    288.9547                 6.9859                41.0330

                     19                     20                     21
                      A                      A                      A
 Frequencies --    958.8143               975.8946              1076.3945
 Red. masses --      6.6807                 2.5619                10.9837
 Frc consts  --      3.6186                 1.4376                 7.4979
 IR Inten    --      3.2063                38.3746                 2.7847

                     22                     23                     24
                      A                      A                      A
 Frequencies --   1110.9416              1131.3501              1153.8501
 Red. masses --      1.5036                13.4006                 8.7212
 Frc consts  --      1.0934                10.1057                 6.8411
 IR Inten    --    101.8662                 7.2726                 3.4739

                     25                     26                     27
                      A                      A                      A
 Frequencies --   1221.1942              1262.3823              1324.2952
 Red. masses --      1.9042                13.1560                 2.3285
 Frc consts  --      1.6732                12.3526                 2.4060
 IR Inten    --     10.9930                 2.7822               103.7072

                     28                     29                     30
                      A                      A                      A
 Frequencies --   1365.0376              1394.2461              1447.7682
 Red. masses --      1.4862                 5.7505                12.1374
 Frc consts  --      1.6316                 6.5862                14.9891
 IR Inten    --      1.3040                32.4749                36.6910

                     31                     32                     33
                      A                      A                      A
 Frequencies --   1542.7664              1661.1830              1705.7452
 Red. masses --      1.4817                 1.1720                 1.1756
 Frc consts  --      2.0778                 1.9055                 2.0153
 IR Inten    --     60.6637                49.9487                36.9584

                     34                     35                     36
                      A                      A                      A
 Frequencies --   1790.3418              3436.1161              3510.9880
 Red. masses --      4.1043                 1.0539                 1.0508
 Frc consts  --      7.7510                 7.3317                 7.6316
 IR Inten    --    137.5141                 0.4431                15.3991

                     37                     38                     39
                      A                      A                      A
 Frequencies --   3548.6789              3551.3260              3619.3593
 Red. masses --      1.0895                 1.0755                 1.0933
 Frc consts  --      8.0838                 7.9915                 8.4386
 IR Inten    --      3.5368                36.6795                23.8843

 - Thermochemistry -
 -------------------
 Temperature   298.150 Kelvin.  Pressure   1.00000 Atm.
 Atom     1 has atomic number  6 and mass  12.00000

 Molecular mass:   143.06679 amu.
 Principal axes and moments of inertia in atomic units:
                           1         2         3
     Eigenvalues --   596.379661817.464622078.43522
           X            0.99991  -0.01282   0.00273
           Y            0.01283   0.99990  -0.00514
           Z           -0.00267   0.00517   0.99998
 This molecule is an asymmetric top.
 Rotational symmetry number  1.
 Warning -- assumption of classical behavior for rotation
           may cause significant error
 Rotational temperatures (Kelvin)      0.14523     0.04766     0.04167
 Rotational constants (GHZ):           3.02616     0.99300     0.86832
 Zero-point vibrational energy     282592.5 (Joules/Mol)
                                   67.54124 (Kcal/Mol)
 Warning -- explicit consideration of  12 degrees of freedom as
           vibrations may cause significant error
 Vibrational temperatures:     40.30   110.70   170.15   287.47   399.92
          (Kelvin)            443.64   496.86   554.45   567.31   625.61
                              753.26   886.34   978.17   996.26  1088.86
                             1178.78  1287.28  1302.53  1379.52  1404.09
                             1548.69  1598.40  1627.76  1660.13  1757.03
                             1816.29  1905.37  1963.98  2006.01  2083.02
                             2219.70  2390.07  2454.19  2575.90  4943.80
                             5051.53  5105.76  5109.57  5207.45

 Zero-point correction=                           0.107634 (Hartree/Particle)
 Thermal correction to Energy=                    0.116646
 Thermal correction to Enthalpy=                  0.117590
 Thermal correction to Gibbs Free Energy=         0.072387
 Sum of electronic and zero-point Energies=           -533.618467
 Sum of electronic and thermal Energies=              -533.609455
 Sum of electronic and thermal Enthalpies=            -533.608511
 Sum of electronic and thermal Free Energies=         -533.653714

                     E (Thermal)             CV                S
                      KCal/Mol        Cal/Mol-Kelvin    Cal/Mol-Kelvin
 Total                   73.196             32.145             95.139
 Electronic               0.000              0.000              0.000
 Translational            0.889              2.981             40.786
 Rotational               0.889              2.981             29.201
 Vibrational             71.419             26.183             25.153
 Vibration     1          0.593              1.984              5.966
 Vibration     2          0.599              1.965              3.967
 Vibration     3          0.608              1.934              3.129
 Vibration     4          0.638              1.840              2.135
 Vibration     5          0.679              1.714              1.546
 Vibration     6          0.698              1.658              1.371
 Vibration     7          0.724              1.585              1.187
 Vibration     8          0.754              1.501              1.018
 Vibration     9          0.761              1.482              0.984
 Vibration    10          0.795              1.394              0.843
 Vibration    11          0.879              1.198              0.602
 Vibration    12          0.976              0.998              0.423

 Optimization completed.
    -- Stationary point found.
 Normal termination of Gaussian 16 at Tue Dec  8 12:26:40 2020.

 ----------------------------------------------------------------------
 # B3LYP/6-311++G(d,p) empiricaldispersion=gd3bj scf=xqc pop=npa geom=c
 heck
 ----------------------------------------------------------------------

 -------------------------------------
 CID_57000060_JID_623_Energie_neutraal
 -------------------------------------
 Structure from the checkpoint file:  "JID_623.chk"
 Charge =  0 Multiplicity = 1

 SCF Done:  E(RB3LYP) =  -533.889669000     A.U. after   15 cycles
 Normal termination of Gaussian 16 at Tue Dec  8 12:27:49 2020.

 ----------------------------------------------------------------------
 # B3LYP/6-311++G(d,p) empiricaldispersion=gd3bj scf=xqc pop=npa geom=c
 heck
 ----------------------------------------------------------------------

 -----------------------------------
 CID_57000060_JID_623_Energie_kation
 -----------------------------------
 Structure from the checkpoint file:  "JID_623.chk"
 Charge =  1 Multiplicity = 2

 SCF Done:  E(UB3LYP) =  -533.570414707     A.U. after   20 cycles
 Normal termination of Gaussian 16 at Tue Dec  8 12:32:36 2020.
 Gaussian 16:  ES64L-G16RevA.03 25-Dec-2016

 ----------------------------------------------------------------------
 # B3LYP/6-311++G(d,p) empiricaldispersion=gd3bj scf=xqc pop=npa geom=c
 heck
 ----------------------------------------------------------------------

 ----------------------------------
 CID_57000060_JID_623_Energie_anion
 ----------------------------------
 Structure from the checkpoint file:  "JID_623.chk"
 Charge = -1 Multiplicity = 2

                         Standard orientation:
 ---------------------------------------------------------------------
 Center     Atomic      Atomic             Coordinates (Angstroms)
 Number     Number       Type             X           Y           Z
 ---------------------------------------------------------------------
      1          6           0        1.713796   -0.117897    0.014048
      2          7           0        1.729170    1.150529   -0.093882
      3          7           0        0.489910    1.842672   -0.233158
      4          7           0        2.900309   -0.856886   -0.045850
      5          7           0        0.630035   -1.033054    0.200523
      6          7           0       -0.661415   -0.584291    0.089115
      7          7           0       -1.333304   -0.064958    1.110371
      8          7           0       -2.491859    0.243515    0.611804
      9          7           0       -2.529615   -0.126027   -0.692204
     10          7           0       -1.382902   -0.631158   -1.026333
     11          1           0        0.759109    2.802042   -0.437413
     12          1           0        0.022084    1.874073    0.675261
     13          1           0        3.049227   -1.443297    0.771708
     14          1           0        3.686529   -0.230260   -0.184256
     15          1           0        0.747970   -1.877571   -0.352286
 ---------------------------------------------------------------------

 SCF Done:  E(UB3LYP) =  -533.893823801     A.U. after   28 cycles

 The electronic state is 2-A.
 Alpha  occ. eigenvalues --  -14.31304 -14.26452 -14.23861 -14.23804 -14.23290
 Alpha  occ. eigenvalues --  -14.23249 -14.21425 -14.21081 -14.20558 -10.16130
 Alpha  occ. eigenvalues --   -1.05496  -0.91369  -0.86007  -0.82906  -0.80943
 Alpha  occ. eigenvalues --   -0.73720  -0.67555  -0.56468  -0.55951  -0.48813
 Alpha  occ. eigenvalues --   -0.45304  -0.43523  -0.39191  -0.38502  -0.35929
 Alpha  occ. eigenvalues --   -0.34784  -0.30259  -0.28947  -0.23470  -0.20879
 Alpha  occ. eigenvalues --   -0.20362  -0.19850  -0.18698  -0.17435  -0.16225
 Alpha  occ. eigenvalues --   -0.15770  -0.09971   0.04743
 Alpha virt. eigenvalues --    0.07035   0.09307   0.10203   0.11104   0.12845
 Alpha virt. eigenvalues --    0.13712   0.14513   0.15829   0.17344   0.18445
 Alpha virt. eigenvalues --    0.19607   0.19806   0.21117   0.21769   0.22093

  Beta  occ. eigenvalues --  -14.30873 -14.26460 -14.23451 -14.23388 -14.23291
  Beta  occ. eigenvalues --  -14.23254 -14.21415 -14.21017 -14.20552 -10.16112
  Beta  occ. eigenvalues --   -1.04985  -0.91165  -0.85852  -0.82294  -0.80833
  Beta  occ. eigenvalues --   -0.73497  -0.67508  -0.56066  -0.55696  -0.48496
  Beta  occ. eigenvalues --   -0.44859  -0.43371  -0.39073  -0.38064  -0.35259
  Beta  occ. eigenvalues --   -0.34609  -0.30154  -0.28596  -0.23236  -0.20460
  Beta  occ. eigenvalues --   -0.19208  -0.18431  -0.18188  -0.17120  -0.16165
  Beta  occ. eigenvalues --   -0.15493  -0.09863
  Beta virt. eigenvalues --    0.08114   0.09276   0.10515   0.11643   0.12074
  Beta virt. eigenvalues --    0.13515   0.13885   0.14867   0.15919   0.17392
  Beta virt. eigenvalues --    0.18530   0.19833   0.19892   0.21089   0.21707

 Mulliken charges and spin densities:
               1          2
     1  C    0.845899  -0.942031
     2  N   -0.242797  -0.023869
     3  N   -0.412895   0.001714
     4  N   -0.410419   0.141743
     5  N   -0.529514  -0.058504
     6  N    0.671065   0.054270
     7  N   -0.359656   0.195848
     8  N   -0.117359  -0.016784
     9  N   -0.148332  -0.025205
    10  N   -0.152437   0.186696
    11  H    0.272944  -0.001541
    12  H    0.245388  -0.001975
    13  H   -0.500883   0.766566
    14  H    0.023972   0.233187
    15  H   -0.184977   0.489886
 Sum of Mulliken charges =  -1.00000   1.00000

 Dipole moment (field-independent basis, Debye):
    X=              0.6018    Y=              3.8232    Z=             -0.2758  Tot=              3.8801
 Quadrupole moment (field-independent basis, Debye-Ang):
   XX=           -104.5347   YY=            -75.7088   ZZ=            -76.8856
   XY=              9.8599   XZ=             -4.2102   YZ=              1.9717

 Summary of Natural Population Analysis:

                                       Natural Population
                Natural  -----------------------------------------------
    Atom  No    Charge         Core      Valence    Rydberg      Total
 -----------------------------------------------------------------------
      C    1    0.29199      0.99961     1.68965    0.01875     2.70801
      N    2   -0.21319      0.99959     2.70024    0.01335     3.71319
      N    3   -0.32610      0.99976     2.81465    0.01169     3.82610
      N    4   -0.40928      0.99973     2.89866    0.01089     3.90928
      N    5   -0.23624      0.99967     2.72068    0.01590     3.73624
      N    6    0.09724      0.99971     2.38158    0.02146     3.40276
      N    7    0.00104      0.99976     2.47965    0.01956     3.49896
      N    8   -0.07498      0.99982     2.55792    0.01724     3.57498
      N    9   -0.07282      0.99982     2.55561    0.01740     3.57282
      N   10    0.01144      0.99975     2.46956    0.01924     3.48856
      H   11    0.16921      0.00000     0.32945    0.00134     0.33079
      H   12    0.17639      0.00000     0.32127    0.00234     0.32361
      H   13    0.19278      0.00000     0.29507    0.01216     0.30722
      H   14    0.18816      0.00000     0.30889    0.00295     0.31184
      H   15    0.20437      0.00000     0.28983    0.00581     0.29563
 =======================================================================
   * Total *   -0.00000      9.99721    26.81272    0.19007    37.00000

 Normal termination of Gaussian 16 at Tue Dec  8 12:39:33 2020.
