 Gaussian 16, Revision A.03,

 -----------------------------------------------------------
 # opt freq B3LYP/6-31G(d) empiricaldispersion=gd3bj scf=xqc
 -----------------------------------------------------------

 -----------------------------
 CID_9881856_JID_9587_neutraal
 -----------------------------
 Symbolic Z-matrix:
 Charge =  0 Multiplicity = 1

 SCF Done:  E(RB3LYP) =  -1130.93671319     A.U. after   15 cycles
 SCF Done:  E(RB3LYP) =  -1130.94193220     A.U. after   12 cycles
 SCF Done:  E(RB3LYP) =  -1130.94278450     A.U. after   12 cycles
 SCF Done:  E(RB3LYP) =  -1130.94307565     A.U. after   12 cycles
 SCF Done:  E(RB3LYP) =  -1130.94314601     A.U. after   11 cycles
 SCF Done:  E(RB3LYP) =  -1130.94320042     A.U. after   11 cycles
 SCF Done:  E(RB3LYP) =  -1130.94320609     A.U. after    9 cycles
 SCF Done:  E(RB3LYP) =  -1130.94320894     A.U. after   10 cycles
 SCF Done:  E(RB3LYP) =  -1130.94321049     A.U. after    9 cycles
 SCF Done:  E(RB3LYP) =  -1130.94321078     A.U. after    8 cycles
 SCF Done:  E(RB3LYP) =  -1130.94321085     A.U. after    7 cycles
 SCF Done:  E(RB3LYP) =  -1130.94321086     A.U. after    6 cycles
 Optimization completed.
    -- Stationary point found.
 Normal termination of Gaussian 16 at Mon Dec 14 16:40:34 2020.

 --------------------------------------------------------------------
 #N Geom=AllCheck Guess=TCheck SCRF=Check GenChk RB3LYP/6-31G(d) Freq
 --------------------------------------------------------------------

 Structure from the checkpoint file:  "JID_9587.chk"
 -----------------------------
 CID_9881856_JID_9587_neutraal
 -----------------------------
 Charge =  0 Multiplicity = 1

 SCF Done:  E(RB3LYP) =  -1130.94321086     A.U. after    1 cycles

  Exact polarizability: 360.992  13.614 189.423  -9.182   5.285  92.987
 Approx polarizability: 495.491  32.629 348.744 -24.873  16.257 150.630

                      1                      2                      3
                      A                      A                      A
 Frequencies --     23.7367                35.1228                43.3210
 Red. masses --      3.1642                 4.9789                 4.3704
 Frc consts  --      0.0011                 0.0036                 0.0048
 IR Inten    --      0.1165                 0.2894                 0.3168

                      4                      5                      6
                      A                      A                      A
 Frequencies --     67.1395                91.2184               100.3847
 Red. masses --      3.9314                 4.4451                 4.6048
 Frc consts  --      0.0104                 0.0218                 0.0273
 IR Inten    --      0.5259                 0.4737                 0.3006

                      7                      8                      9
                      A                      A                      A
 Frequencies --    166.5930               202.8727               239.4383
 Red. masses --      5.2530                 4.8709                 3.2738
 Frc consts  --      0.0859                 0.1181                 0.1106
 IR Inten    --      0.2893                 0.1597                 0.1529

                     10                     11                     12
                      A                      A                      A
 Frequencies --    245.2248               257.8709               276.6656
 Red. masses --      4.8856                 1.2078                 2.4862
 Frc consts  --      0.1731                 0.0473                 0.1121
 IR Inten    --      0.3538                 0.0601                 0.4988

                     13                     14                     15
                      A                      A                      A
 Frequencies --    288.6754               333.5244               362.7739
 Red. masses --      1.4233                 4.0128                 2.7871
 Frc consts  --      0.0699                 0.2630                 0.2161
 IR Inten    --      0.5589                 0.3329                 0.4067

                     16                     17                     18
                      A                      A                      A
 Frequencies --    388.3800               409.2173               414.7844
 Red. masses --      3.5718                 5.1735                 3.0587
 Frc consts  --      0.3174                 0.5104                 0.3100
 IR Inten    --      1.1523                 1.2238                 0.1625

                     19                     20                     21
                      A                      A                      A
 Frequencies --    446.2076               457.3269               467.1682
 Red. masses --      3.1366                 6.6237                 3.8340
 Frc consts  --      0.3679                 0.8162                 0.4930
 IR Inten    --      2.5581                 6.0172                 7.0845

                     22                     23                     24
                      A                      A                      A
 Frequencies --    497.4273               538.9591               544.1305
 Red. masses --      4.4641                 4.4914                 4.3219
 Frc consts  --      0.6508                 0.7687                 0.7539
 IR Inten    --      2.9353                 3.2616                10.1207

                     25                     26                     27
                      A                      A                      A
 Frequencies --    583.3275               634.4654               641.5133
 Red. masses --      3.4680                 6.3247                 4.3820
 Frc consts  --      0.6953                 1.5001                 1.0625
 IR Inten    --      0.6190                 0.7439                11.0931

                     28                     29                     30
                      A                      A                      A
 Frequencies --    665.3125               698.2002               707.2774
 Red. masses --      4.3287                 6.1761                 1.9672
 Frc consts  --      1.1289                 1.7739                 0.5798
 IR Inten    --      2.5497                 3.6915                20.9443

                     31                     32                     33
                      A                      A                      A
 Frequencies --    717.3736               740.7332               776.7664
 Red. masses --      5.9787                 3.2639                 1.8642
 Frc consts  --      1.8128                 1.0551                 0.6627
 IR Inten    --      5.7935                 3.6099                36.2208

                     34                     35                     36
                      A                      A                      A
 Frequencies --    788.1410               828.1749               848.5663
 Red. masses --      3.7005                 1.4697                 2.7373
 Frc consts  --      1.3543                 0.5939                 1.1613
 IR Inten    --      1.5897                 2.2672                10.0040

                     37                     38                     39
                      A                      A                      A
 Frequencies --    855.0405               863.2231               883.9461
 Red. masses --      1.3746                 1.5623                 1.5613
 Frc consts  --      0.5921                 0.6859                 0.7188
 IR Inten    --      2.4984                18.7878                14.0151

                     40                     41                     42
                      A                      A                      A
 Frequencies --    913.3767               925.4469               937.0710
 Red. masses --      4.3694                 1.4424                 1.3609
 Frc consts  --      2.1477                 0.7279                 0.7041
 IR Inten    --     17.4601                 1.9180                 0.2002

                     43                     44                     45
                      A                      A                      A
 Frequencies --    950.5179               952.5570               963.2037
 Red. masses --      1.2584                 1.4099                 3.4098
 Frc consts  --      0.6699                 0.7537                 1.8638
 IR Inten    --      0.4463                10.2525                19.1282

                     46                     47                     48
                      A                      A                      A
 Frequencies --    966.5596               979.1279               994.8058
 Red. masses --      1.3548                 3.2198                 1.2571
 Frc consts  --      0.7457                 1.8187                 0.7330
 IR Inten    --      0.9634                72.1818                 0.0922

                     49                     50                     51
                      A                      A                      A
 Frequencies --   1019.8421              1063.4797              1070.0387
 Red. masses --      5.9532                 2.1065                 2.5671
 Frc consts  --      3.6481                 1.4037                 1.7318
 IR Inten    --      0.1191                 3.4187                14.0174

                     52                     53                     54
                      A                      A                      A
 Frequencies --   1116.5685              1156.3441              1160.3706
 Red. masses --      1.5947                 1.6688                 1.5489
 Frc consts  --      1.1714                 1.3147                 1.2287
 IR Inten    --      4.9850                11.4139                 1.5871

                     55                     56                     57
                      A                      A                      A
 Frequencies --   1168.5421              1195.1332              1212.7858
 Red. masses --      1.9384                 1.0953                 1.9296
 Frc consts  --      1.5595                 0.9217                 1.6722
 IR Inten    --    152.8017                 0.0909                11.8025

                     58                     59                     60
                      A                      A                      A
 Frequencies --   1216.7885              1222.4589              1234.1956
 Red. masses --      1.3559                 1.1976                 2.5179
 Frc consts  --      1.1828                 1.0544                 2.2598
 IR Inten    --      0.8450                 0.1266               194.3766

                     61                     62                     63
                      A                      A                      A
 Frequencies --   1270.2540              1286.1960              1325.1899
 Red. masses --      3.9990                 1.9073                 3.9296
 Frc consts  --      3.8018                 1.8590                 4.0659
 IR Inten    --     25.1659                92.6776                 4.3035

                     64                     65                     66
                      A                      A                      A
 Frequencies --   1347.6298              1372.8556              1380.5836
 Red. masses --      4.5572                 1.6960                 1.5610
 Frc consts  --      4.8763                 1.8833                 1.7530
 IR Inten    --      2.2505                 0.7743                 4.6272

                     67                     68                     69
                      A                      A                      A
 Frequencies --   1383.3998              1411.6425              1428.5654
 Red. masses --      2.3970                 1.2731                 1.3435
 Frc consts  --      2.7028                 1.4947                 1.6155
 IR Inten    --      2.6484                 3.9635                14.5574

                     70                     71                     72
                      A                      A                      A
 Frequencies --   1442.6115              1446.5652              1495.1658
 Red. masses --      1.2466                 3.5706                 2.2980
 Frc consts  --      1.5285                 4.4022                 3.0268
 IR Inten    --     19.5601                 4.1623                 5.6888

                     73                     74                     75
                      A                      A                      A
 Frequencies --   1509.8747              1513.9754              1519.7636
 Red. masses --      2.9314                 1.0746                 1.0513
 Frc consts  --      3.9374                 1.4512                 1.4307
 IR Inten    --     75.9272                 4.9173                 2.0438

                     76                     77                     78
                      A                      A                      A
 Frequencies --   1526.8411              1540.8197              1541.5898
 Red. masses --      1.0869                 1.6454                 1.2946
 Frc consts  --      1.4929                 2.3016                 1.8127
 IR Inten    --      5.2977                21.4562                 5.1734

                     79                     80                     81
                      A                      A                      A
 Frequencies --   1583.8226              1618.0959              1636.7784
 Red. masses --      5.4614                 6.3197                 5.5303
 Frc consts  --      8.0717                 9.7489                 8.7293
 IR Inten    --     39.3658                 2.2752                 6.2732

                     82                     83                     84
                      A                      A                      A
 Frequencies --   1654.3394              1664.6742              3054.4923
 Red. masses --      6.2371                 5.6101                 1.0349
 Frc consts  --     10.0573                 9.1596                 5.6888
 IR Inten    --     74.3595                 2.9046                14.8632

                     85                     86                     87
                      A                      A                      A
 Frequencies --   3059.4704              3079.8436              3122.5488
 Red. masses --      1.0354                 1.0870                 1.1020
 Frc consts  --      5.7103                 6.0751                 6.3305
 IR Inten    --      8.0559                31.2638                 1.1838

                     88                     89                     90
                      A                      A                      A
 Frequencies --   3129.2296              3133.9440              3138.0375
 Red. masses --      1.1018                 1.1037                 1.1023
 Frc consts  --      6.3567                 6.3871                 6.3956
 IR Inten    --     72.5011                14.7813                57.0246

                     91                     92                     93
                      A                      A                      A
 Frequencies --   3184.7405              3191.3195              3192.5677
 Red. masses --      1.0848                 1.0876                 1.0890
 Frc consts  --      6.4829                 6.5260                 6.5397
 IR Inten    --      5.7497                 3.1445                 9.5294

                     94                     95                     96
                      A                      A                      A
 Frequencies --   3200.7857              3207.7092              3214.9692
 Red. masses --      1.0912                 1.0939                 1.0978
 Frc consts  --      6.5866                 6.6319                 6.6854
 IR Inten    --     20.3696                26.5989                18.1504

                     97                     98                     99
                      A                      A                      A
 Frequencies --   3221.5738              3224.0000              3224.6509
 Red. masses --      1.0923                 1.0923                 1.0923
 Frc consts  --      6.6790                 6.6896                 6.6923
 IR Inten    --     13.5217                 8.8818                12.4685

 - Thermochemistry -
 -------------------
 Temperature   298.150 Kelvin.  Pressure   1.00000 Atm.
 Atom     1 has atomic number  6 and mass  12.00000

 Molecular mass:   268.09219 amu.
 Principal axes and moments of inertia in atomic units:
                           1         2         3
     Eigenvalues --  1532.68951********************
           X            0.99997  -0.00456   0.00673
           Y            0.00460   0.99997  -0.00634
           Z           -0.00670   0.00637   0.99996
 This molecule is an asymmetric top.
 Rotational symmetry number  1.
 Warning -- assumption of classical behavior for rotation
           may cause significant error
 Rotational temperatures (Kelvin)      0.05651     0.00670     0.00625
 Rotational constants (GHZ):           1.17750     0.13970     0.13017
 Zero-point vibrational energy     747848.8 (Joules/Mol)
                                  178.74015 (Kcal/Mol)
 Warning -- explicit consideration of  25 degrees of freedom as
           vibrations may cause significant error
 Vibrational temperatures:     34.15    50.53    62.33    96.60   131.24
          (Kelvin)            144.43   239.69   291.89   344.50   352.82
                              371.02   398.06   415.34   479.87   521.95
                              558.79   588.77   596.78   641.99   657.99
                              672.15   715.69   775.44   782.88   839.28
                              912.85   922.99   957.24  1004.55  1017.61
                             1032.14  1065.75  1117.59  1133.96  1191.56
                             1220.90  1230.21  1241.99  1271.80  1314.15
                             1331.51  1348.24  1367.58  1370.52  1385.84
                             1390.66  1408.75  1431.30  1467.33  1530.11
                             1539.55  1606.49  1663.72  1669.51  1681.27
                             1719.53  1744.93  1750.69  1758.85  1775.73
                             1827.61  1850.55  1906.65  1938.94  1975.23
                             1986.35  1990.40  2031.04  2055.39  2075.60
                             2081.28  2151.21  2172.37  2178.27  2186.60
                             2196.78  2216.90  2218.00  2278.77  2328.08
                             2354.96  2380.23  2395.09  4394.73  4401.90
                             4431.21  4492.65  4502.26  4509.05  4514.94
                             4582.13  4591.60  4593.39  4605.22  4615.18
                             4625.62  4635.13  4638.62  4639.55

 Zero-point correction=                           0.284841 (Hartree/Particle)
 Thermal correction to Energy=                    0.301405
 Thermal correction to Enthalpy=                  0.302349
 Thermal correction to Gibbs Free Energy=         0.239129
 Sum of electronic and zero-point Energies=          -1130.658370
 Sum of electronic and thermal Energies=             -1130.641806
 Sum of electronic and thermal Enthalpies=           -1130.640862
 Sum of electronic and thermal Free Energies=        -1130.704082

                     E (Thermal)             CV                S
                      KCal/Mol        Cal/Mol-Kelvin    Cal/Mol-Kelvin
 Total                  189.134             65.429            133.058
 Electronic               0.000              0.000              0.000
 Translational            0.889              2.981             42.658
 Rotational               0.889              2.981             33.973
 Vibrational            187.357             59.467             56.428
 Vibration     1          0.593              1.985              6.294
 Vibration     2          0.594              1.982              5.517
 Vibration     3          0.595              1.980              5.101
 Vibration     4          0.598              1.970              4.236
 Vibration     5          0.602              1.955              3.634
 Vibration     6          0.604              1.949              3.447
 Vibration     7          0.624              1.884              2.474
 Vibration     8          0.639              1.836              2.107
 Vibration     9          0.657              1.780              1.807
 Vibration    10          0.660              1.771              1.765
 Vibration    11          0.667              1.749              1.676
 Vibration    12          0.678              1.717              1.554
 Vibration    13          0.685              1.695              1.482
 Vibration    14          0.715              1.609              1.243
 Vibration    15          0.737              1.549              1.110
 Vibration    16          0.757              1.495              1.006
 Vibration    17          0.774              1.450              0.929
 Vibration    18          0.778              1.438              0.910
 Vibration    19          0.805              1.369              0.807
 Vibration    20          0.815              1.345              0.774
 Vibration    21          0.824              1.323              0.746
 Vibration    22          0.853              1.256              0.665
 Vibration    23          0.894              1.164              0.568
 Vibration    24          0.899              1.153              0.556
 Vibration    25          0.940              1.067              0.479

 Optimization completed.
    -- Stationary point found.
 Normal termination of Gaussian 16 at Mon Dec 14 16:54:10 2020.

 ----------------------------------------------------------------------
 # B3LYP/6-311++G(d,p) empiricaldispersion=gd3bj scf=xqc pop=npa geom=c
 heck
 ----------------------------------------------------------------------

 -------------------------------------
 CID_9881856_JID_9587_Energie_neutraal
 -------------------------------------
 Structure from the checkpoint file:  "JID_9587.chk"
 Charge =  0 Multiplicity = 1

 SCF Done:  E(RB3LYP) =  -1131.15546351     A.U. after   17 cycles
 Normal termination of Gaussian 16 at Mon Dec 14 17:00:52 2020.

 ----------------------------------------------------------------------
 # B3LYP/6-311++G(d,p) empiricaldispersion=gd3bj scf=xqc pop=npa geom=c
 heck
 ----------------------------------------------------------------------

 -----------------------------------
 CID_9881856_JID_9587_Energie_kation
 -----------------------------------
 Structure from the checkpoint file:  "JID_9587.chk"
 Charge =  1 Multiplicity = 2

 SCF Done:  E(UB3LYP) =  -1130.88815308     A.U. after   28 cycles
 Normal termination of Gaussian 16 at Mon Dec 14 17:15:19 2020.
 Gaussian 16:  ES64L-G16RevA.03 25-Dec-2016

 ----------------------------------------------------------------------
 # B3LYP/6-311++G(d,p) empiricaldispersion=gd3bj scf=xqc pop=npa geom=c
 heck
 ----------------------------------------------------------------------

 ----------------------------------
 CID_9881856_JID_9587_Energie_anion
 ----------------------------------
 Structure from the checkpoint file:  "JID_9587.chk"
 Charge = -1 Multiplicity = 2

                         Standard orientation:
 ---------------------------------------------------------------------
 Center     Atomic      Atomic             Coordinates (Angstroms)
 Number     Number       Type             X           Y           Z
 ---------------------------------------------------------------------
      1          6           0        5.331204    0.455521    1.267118
      2          6           0        5.101203   -0.549613    0.141262
      3          6           0        4.580372   -1.889147    0.656206
      4          8           0        4.261211   -0.007698   -0.909978
      5          6           0        2.967560    0.338715   -0.589602
      6          6           0        1.943310   -0.594584   -0.739774
      7          6           0        0.635400   -0.193370   -0.465820
      8          6           0        0.325760    1.127198   -0.053376
      9          6           0        1.377592    2.051847    0.076446
     10          6           0        2.679778    1.659921   -0.191943
     11          6           0       -1.080500    1.304491    0.171251
     12          6           0       -1.826756    0.182836   -0.056576
     13         16           0       -0.813984   -1.175974   -0.578496
     14          6           0       -3.276434    0.018425    0.075870
     15          6           0       -4.128642    1.129227   -0.056292
     16          6           0       -5.505786    0.990321    0.086648
     17          6           0       -6.064551   -0.262144    0.350499
     18          6           0       -5.230671   -1.374297    0.472194
     19          6           0       -3.851278   -1.236309    0.339238
     20          1           0        4.405204    0.654380    1.816414
     21          1           0        5.709768    1.402316    0.869482
     22          1           0        6.067497    0.059956    1.975449
     23          1           0        6.046131   -0.715116   -0.386047
     24          1           0        3.632627   -1.767695    1.190683
     25          1           0        4.426234   -2.588110   -0.171863
     26          1           0        5.305842   -2.329985    1.348822
     27          1           0        2.176334   -1.599453   -1.073172
     28          1           0        1.164979    3.073059    0.380521
     29          1           0        3.499898    2.365071   -0.114669
     30          1           0       -1.510422    2.235959    0.522499
     31          1           0       -3.704846    2.099750   -0.294552
     32          1           0       -6.146605    1.860924   -0.021435
     33          1           0       -7.140163   -0.370276    0.455150
     34          1           0       -5.653879   -2.353259    0.678566
     35          1           0       -3.209902   -2.104583    0.459803
 ---------------------------------------------------------------------

 SCF Done:  E(UB3LYP) =  -1131.16227276     A.U. after   28 cycles

 The electronic state is 2-A.
 Alpha  occ. eigenvalues --  -88.73209 -19.02240 -10.13431 -10.09357 -10.07487
 Alpha  occ. eigenvalues --  -10.07384 -10.07299 -10.05654 -10.05025 -10.04967
 Alpha  occ. eigenvalues --  -10.04923 -10.04784 -10.04747 -10.04643 -10.04532
 Alpha  occ. eigenvalues --  -10.03972 -10.03933 -10.03631 -10.02615  -7.81867
 Alpha  occ. eigenvalues --   -5.78186  -5.77832  -5.77400  -0.93727  -0.75884
 Alpha  occ. eigenvalues --   -0.72889  -0.70396  -0.68351  -0.64198  -0.63044
 Alpha  occ. eigenvalues --   -0.61930  -0.60583  -0.58600  -0.57560  -0.51973
 Alpha  occ. eigenvalues --   -0.49338  -0.47804  -0.47278  -0.44293  -0.42455
 Alpha  occ. eigenvalues --   -0.39480  -0.38961  -0.38209  -0.36904  -0.35453
 Alpha  occ. eigenvalues --   -0.33612  -0.33163  -0.32138  -0.32009  -0.31037
 Alpha  occ. eigenvalues --   -0.30179  -0.30088  -0.29688  -0.28590  -0.27693
 Alpha  occ. eigenvalues --   -0.27202  -0.26829  -0.25322  -0.24810  -0.23604
 Alpha  occ. eigenvalues --   -0.23062  -0.22209  -0.21863  -0.20160  -0.19411
 Alpha  occ. eigenvalues --   -0.16662  -0.16073  -0.13891  -0.13238  -0.10371
 Alpha  occ. eigenvalues --   -0.08082   0.04142
 Alpha virt. eigenvalues --    0.05951   0.08111   0.08199   0.08605   0.08893
 Alpha virt. eigenvalues --    0.09475   0.10289   0.10336   0.10578   0.10826
 Alpha virt. eigenvalues --    0.11407   0.12067   0.12269   0.12416   0.12822

  Beta  occ. eigenvalues --  -88.73183 -19.02237 -10.13399 -10.09148 -10.07446
  Beta  occ. eigenvalues --  -10.07379 -10.07297 -10.05402 -10.05036 -10.05005
  Beta  occ. eigenvalues --  -10.04926 -10.04832 -10.04791 -10.04469 -10.04392
  Beta  occ. eigenvalues --  -10.03851 -10.03815 -10.03366 -10.02450  -7.81844
  Beta  occ. eigenvalues --   -5.78172  -5.77822  -5.77318  -0.93643  -0.75661
  Beta  occ. eigenvalues --   -0.72605  -0.70230  -0.68211  -0.63925  -0.62674
  Beta  occ. eigenvalues --   -0.61716  -0.60563  -0.58435  -0.57239  -0.51739
  Beta  occ. eigenvalues --   -0.49050  -0.47692  -0.47000  -0.44152  -0.42221
  Beta  occ. eigenvalues --   -0.39377  -0.38831  -0.38095  -0.36793  -0.35308
  Beta  occ. eigenvalues --   -0.33501  -0.33046  -0.32033  -0.31897  -0.30951
  Beta  occ. eigenvalues --   -0.30106  -0.30030  -0.29629  -0.28359  -0.27497
  Beta  occ. eigenvalues --   -0.27061  -0.26560  -0.25097  -0.24282  -0.23425
  Beta  occ. eigenvalues --   -0.22756  -0.22057  -0.21748  -0.19978  -0.18778
  Beta  occ. eigenvalues --   -0.16637  -0.15307  -0.12804  -0.12631  -0.09843
  Beta  occ. eigenvalues --   -0.06785
  Beta virt. eigenvalues --    0.05946   0.08052   0.08106   0.08452   0.08803
  Beta virt. eigenvalues --    0.09026   0.09416   0.10281   0.10410   0.10672
  Beta virt. eigenvalues --    0.11033   0.11417   0.12132   0.12240   0.12670

 Mulliken charges and spin densities:
               1          2
     1  C   -0.490904  -0.099049
     2  C    0.118108   0.018669
     3  C   -0.454632  -0.128139
     4  O   -0.113970   0.001267
     5  C   -0.480043   0.077199
     6  C   -0.668974   0.006448
     7  C    0.520213   0.088527
     8  C    0.662318  -0.002724
     9  C   -0.512860   0.113846
    10  C    0.026743  -0.066196
    11  C    0.452669   0.137913
    12  C    0.078096   0.087077
    13  S   -1.009278   0.046258
    14  C    1.373547   0.055510
    15  C   -0.983869   0.103803
    16  C   -0.371575  -0.024209
    17  C   -0.345498   0.204888
    18  C   -0.345159  -0.020168
    19  C   -0.176125   0.113539
    20  H    0.166268   0.001622
    21  H    0.125555   0.020258
    22  H    0.060744   0.047193
    23  H    0.012818   0.157735
    24  H    0.157610   0.017467
    25  H    0.127424   0.019201
    26  H    0.089939   0.020767
    27  H    0.138584   0.011037
    28  H    0.132086  -0.009284
    29  H    0.112503   0.020139
    30  H    0.088922  -0.001629
    31  H    0.076382  -0.003639
    32  H    0.127872   0.001827
    33  H    0.098008  -0.016684
    34  H    0.128571   0.002170
    35  H    0.077905  -0.002642
 Sum of Mulliken charges =  -1.00000   1.00000

 Dipole moment (field-independent basis, Debye):
    X=              4.7416    Y=             -0.3225    Z=              1.6302  Tot=              5.0244
 Quadrupole moment (field-independent basis, Debye-Ang):
   XX=           -196.5151   YY=           -128.2541   ZZ=           -136.9171
   XY=             -3.7092   XZ=              7.6162   YZ=              0.4910

 Summary of Natural Population Analysis:

                                       Natural Population
                Natural  -----------------------------------------------
    Atom  No    Charge         Core      Valence    Rydberg      Total
 -----------------------------------------------------------------------
      C    1   -0.30215      0.99964     2.29732    0.00519     3.30215
      C    2    0.06988      0.99956     1.91597    0.01460     2.93012
      C    3   -0.30240      0.99964     2.29754    0.00522     3.30240
      O    4   -0.30088      0.99986     3.29088    0.01013     4.30088
      C    5    0.17213      0.99937     1.81476    0.01373     2.82787
      C    6   -0.13340      0.99945     2.12377    0.01018     3.13340
      C    7   -0.07625      0.99941     2.06670    0.01013     3.07625
      C    8   -0.04704      0.99947     2.03913    0.00843     3.04704
      C    9   -0.05994      0.99953     2.05233    0.00807     3.05994
      C   10   -0.14668      0.99953     2.13842    0.00873     3.14668
      C   11   -0.09369      0.99944     2.08624    0.00801     3.09369
      C   12   -0.03490      0.99945     2.02387    0.01158     3.03490
      S   13    0.17854      4.99944     2.80275    0.01927     7.82146
      C   14   -0.01406      0.99937     2.00371    0.01098     3.01406
      C   15   -0.07037      0.99955     2.06254    0.00828     3.07037
      C   16   -0.11969      0.99957     2.11084    0.00928     3.11969
      C   17   -0.06663      0.99957     2.05699    0.01007     3.06663
      C   18   -0.11870      0.99958     2.10970    0.00943     3.11870
      C   19   -0.07611      0.99955     2.06795    0.00860     3.07611
      H   20    0.10612      0.00000     0.39279    0.00109     0.39388
      H   21    0.10091      0.00000     0.39784    0.00126     0.39909
      H   22    0.09626      0.00000     0.40275    0.00099     0.40374
      H   23    0.08453      0.00000     0.41396    0.00151     0.41547
      H   24    0.10627      0.00000     0.39256    0.00116     0.39373
      H   25    0.10171      0.00000     0.39705    0.00123     0.39829
      H   26    0.09626      0.00000     0.40282    0.00092     0.40374
      H   27    0.10066      0.00000     0.39787    0.00147     0.39934
      H   28    0.09175      0.00000     0.40664    0.00161     0.40825
      H   29    0.09716      0.00000     0.40148    0.00136     0.40284
      H   30    0.09884      0.00000     0.39985    0.00131     0.40116
      H   31    0.09482      0.00000     0.40375    0.00143     0.40518
      H   32    0.09129      0.00000     0.40765    0.00106     0.40871
      H   33    0.08769      0.00000     0.41126    0.00105     0.41231
      H   34    0.09145      0.00000     0.40749    0.00106     0.40855
      H   35    0.09664      0.00000     0.40222    0.00114     0.40336
 =======================================================================
   * Total *    0.00000     22.99102    47.79940    0.20958    71.00000

 Normal termination of Gaussian 16 at Mon Dec 14 17:29:09 2020.
