 Gaussian 16, Revision A.03,

 -----------------------------------------------------------
 # opt freq B3LYP/6-31G(d) empiricaldispersion=gd3bj scf=xqc
 -----------------------------------------------------------

 ------------------------------
 CID_19625581_JID_7438_neutraal
 ------------------------------
 Symbolic Z-matrix:
 Charge =  0 Multiplicity = 1

 SCF Done:  E(RB3LYP) =  -742.491951188     A.U. after   14 cycles
 SCF Done:  E(RB3LYP) =  -742.496638901     A.U. after   12 cycles
 SCF Done:  E(RB3LYP) =  -742.497148320     A.U. after   11 cycles
 SCF Done:  E(RB3LYP) =  -742.497283416     A.U. after   11 cycles
 SCF Done:  E(RB3LYP) =  -742.497355959     A.U. after   10 cycles
 SCF Done:  E(RB3LYP) =  -742.497407770     A.U. after   10 cycles
 SCF Done:  E(RB3LYP) =  -742.497502749     A.U. after   11 cycles
 SCF Done:  E(RB3LYP) =  -742.497589767     A.U. after   11 cycles
 SCF Done:  E(RB3LYP) =  -742.497672965     A.U. after   11 cycles
 SCF Done:  E(RB3LYP) =  -742.497694706     A.U. after   10 cycles
 SCF Done:  E(RB3LYP) =  -742.498132032     A.U. after   11 cycles
 SCF Done:  E(RB3LYP) =  -742.498126468     A.U. after   10 cycles
 SCF Done:  E(RB3LYP) =  -742.498135889     A.U. after    9 cycles
 SCF Done:  E(RB3LYP) =  -742.498136072     A.U. after    8 cycles
 Optimization completed.
    -- Stationary point found.
 Normal termination of Gaussian 16 at Mon Dec 14 13:41:58 2020.

 --------------------------------------------------------------------
 #N Geom=AllCheck Guess=TCheck SCRF=Check GenChk RB3LYP/6-31G(d) Freq
 --------------------------------------------------------------------

 Structure from the checkpoint file:  "JID_7438.chk"
 ------------------------------
 CID_19625581_JID_7438_neutraal
 ------------------------------
 Charge =  0 Multiplicity = 1

 SCF Done:  E(RB3LYP) =  -742.498136072     A.U. after    1 cycles

  Exact polarizability: 183.975  -1.793 146.574 -23.166   3.678 122.647
 Approx polarizability: 239.128  -4.878 239.019 -41.032  11.904 192.393

                      1                      2                      3
                      A                      A                      A
 Frequencies --     18.9890                30.3363                41.2043
 Red. masses --      4.1525                 3.9940                 3.3305
 Frc consts  --      0.0009                 0.0022                 0.0033
 IR Inten    --      0.1692                 0.4452                 0.1643

                      4                      5                      6
                      A                      A                      A
 Frequencies --     60.7876                71.9267                88.2288
 Red. masses --      3.5153                 1.3586                 2.3025
 Frc consts  --      0.0077                 0.0041                 0.0106
 IR Inten    --      0.6724                 0.4612                 1.0885

                      7                      8                      9
                      A                      A                      A
 Frequencies --    116.8032               132.4353               163.1536
 Red. masses --      1.2927                 1.0851                 2.5609
 Frc consts  --      0.0104                 0.0112                 0.0402
 IR Inten    --      0.0811                 0.0280                 1.1273

                     10                     11                     12
                      A                      A                      A
 Frequencies --    182.4648               194.6081               207.1990
 Red. masses --      2.5818                 2.7074                 2.3761
 Frc consts  --      0.0506                 0.0604                 0.0601
 IR Inten    --      1.7089                 4.8300                 1.3566

                     13                     14                     15
                      A                      A                      A
 Frequencies --    236.5775               242.5573               253.7214
 Red. masses --      3.8705                 1.6114                 2.8482
 Frc consts  --      0.1276                 0.0559                 0.1080
 IR Inten    --      3.0160                 4.0179                 2.3428

                     16                     17                     18
                      A                      A                      A
 Frequencies --    282.6882               307.7445               315.7656
 Red. masses --      2.4589                 3.5110                 2.0728
 Frc consts  --      0.1158                 0.1959                 0.1218
 IR Inten    --      0.5718                 2.1493                 0.9599

                     19                     20                     21
                      A                      A                      A
 Frequencies --    409.3566               425.0339               432.8996
 Red. masses --      3.9784                 2.7795                 2.7670
 Frc consts  --      0.3928                 0.2958                 0.3055
 IR Inten    --      4.3444                 3.3738                 5.5336

                     22                     23                     24
                      A                      A                      A
 Frequencies --    481.4807               522.4931               632.6471
 Red. masses --      3.9906                 2.8096                 3.7106
 Frc consts  --      0.5451                 0.4519                 0.8750
 IR Inten    --      5.3950                 0.2233                 5.4230

                     25                     26                     27
                      A                      A                      A
 Frequencies --    643.3831               649.1917               666.3479
 Red. masses --      3.3380                 5.8438                 5.1983
 Frc consts  --      0.8141                 1.4511                 1.3599
 IR Inten    --     10.1075                 0.1733                 4.2980

                     28                     29                     30
                      A                      A                      A
 Frequencies --    678.4370               706.7684               717.5418
 Red. masses --      2.8776                 3.5731                 3.5957
 Frc consts  --      0.7804                 1.0516                 1.0908
 IR Inten    --     24.5568                 6.2421                18.2794

                     31                     32                     33
                      A                      A                      A
 Frequencies --    736.6858               774.1642               789.2691
 Red. masses --      4.2736                 2.2770                 1.5293
 Frc consts  --      1.3665                 0.8040                 0.5613
 IR Inten    --      5.4830                26.9709                18.2786

                     34                     35                     36
                      A                      A                      A
 Frequencies --    829.5241               866.1589               871.1646
 Red. masses --      2.8062                 1.3630                 1.3082
 Frc consts  --      1.1377                 0.6025                 0.5850
 IR Inten    --     41.6786                 7.4024                 0.8917

                     37                     38                     39
                      A                      A                      A
 Frequencies --    899.1289               951.4933               960.6979
 Red. masses --      1.6568                 4.8195                 2.3403
 Frc consts  --      0.7891                 2.5708                 1.2726
 IR Inten    --     18.5396                14.2230                23.2403

                     40                     41                     42
                      A                      A                      A
 Frequencies --    992.7989              1039.1996              1044.9489
 Red. masses --      1.9615                 1.9098                 1.8222
 Frc consts  --      1.1391                 1.2152                 1.1723
 IR Inten    --      2.9136                 5.8563                 2.2902

                     43                     44                     45
                      A                      A                      A
 Frequencies --   1048.4269              1066.0370              1073.1948
 Red. masses --      1.6645                 1.8492                 1.5214
 Frc consts  --      1.0780                 1.2381                 1.0324
 IR Inten    --     27.3809                 1.6736                 1.1257

                     46                     47                     48
                      A                      A                      A
 Frequencies --   1080.0407              1094.0949              1152.6097
 Red. masses --      1.8435                 2.2374                 2.8286
 Frc consts  --      1.2670                 1.5780                 2.2140
 IR Inten    --      7.0189                10.4411                44.6389

                     49                     50                     51
                      A                      A                      A
 Frequencies --   1157.6068              1167.5378              1170.1657
 Red. masses --      1.2982                 1.3070                 2.2422
 Frc consts  --      1.0250                 1.0497                 1.8089
 IR Inten    --      0.2657                 7.4020                31.2276

                     52                     53                     54
                      A                      A                      A
 Frequencies --   1204.8346              1208.0734              1239.1269
 Red. masses --      2.2960                 1.5253                 2.6733
 Frc consts  --      1.9637                 1.3116                 2.4184
 IR Inten    --      6.9907                 7.8853                 4.8171

                     55                     56                     57
                      A                      A                      A
 Frequencies --   1242.7151              1277.5410              1321.7143
 Red. masses --      1.9690                 1.3025                 2.2031
 Frc consts  --      1.7916                 1.2525                 2.2676
 IR Inten    --     12.7872                 2.9762                 9.6174

                     58                     59                     60
                      A                      A                      A
 Frequencies --   1330.1248              1348.2251              1361.4010
 Red. masses --      2.6611                 3.6360                 1.6853
 Frc consts  --      2.7739                 3.8940                 1.8403
 IR Inten    --      8.4312                 1.6263                15.5710

                     61                     62                     63
                      A                      A                      A
 Frequencies --   1377.7080              1405.8499              1428.9848
 Red. masses --      2.2070                 1.5062                 1.4370
 Frc consts  --      2.4681                 1.7539                 1.7289
 IR Inten    --      9.1267                53.1916                29.2767

                     64                     65                     66
                      A                      A                      A
 Frequencies --   1430.7551              1443.7634              1446.3433
 Red. masses --      2.4820                 3.2146                 1.3164
 Frc consts  --      2.9936                 3.9479                 1.6225
 IR Inten    --     30.7985                14.2815                 0.1083

                     67                     68                     69
                      A                      A                      A
 Frequencies --   1449.1460              1473.7177              1475.3262
 Red. masses --      2.2282                 1.6057                 1.3434
 Frc consts  --      2.7570                 2.0547                 1.7227
 IR Inten    --     29.2027                 6.3422                 3.3673

                     70                     71                     72
                      A                      A                      A
 Frequencies --   1501.8882              1507.6132              1512.9286
 Red. masses --      1.4529                 1.0641                 1.3096
 Frc consts  --      1.9308                 1.4249                 1.7661
 IR Inten    --     10.8197                 0.3508                10.1820

                     73                     74                     75
                      A                      A                      A
 Frequencies --   1516.9953              1517.6617              1522.3590
 Red. masses --      1.4534                 1.1945                 1.3116
 Frc consts  --      1.9707                 1.6210                 1.7910
 IR Inten    --     15.7457                 2.1127                 8.3072

                     76                     77                     78
                      A                      A                      A
 Frequencies --   1523.4135              1527.3554              1531.8389
 Red. masses --      1.1651                 1.1207                 1.3431
 Frc consts  --      1.5931                 1.5403                 1.8569
 IR Inten    --      6.3633                 1.8635                14.9328

                     79                     80                     81
                      A                      A                      A
 Frequencies --   1539.0678              1543.4655              1548.7356
 Red. masses --      1.1321                 1.4106                 1.1843
 Frc consts  --      1.5800                 1.9799                 1.6737
 IR Inten    --      5.6545                26.0482                 2.5663

                     82                     83                     84
                      A                      A                      A
 Frequencies --   1600.1861              1623.1971              2988.6362
 Red. masses --      4.8523                 5.6506                 1.0692
 Frc consts  --      7.3205                 8.7718                 5.6268
 IR Inten    --      3.2930                12.7718                58.5136

                     85                     86                     87
                      A                      A                      A
 Frequencies --   3038.7144              3045.6060              3053.2817
 Red. masses --      1.0413                 1.0909                 1.0377
 Frc consts  --      5.6653                 5.9618                 5.6996
 IR Inten    --     22.1932                23.5593                44.1816

                     88                     89                     90
                      A                      A                      A
 Frequencies --   3054.1638              3054.7493              3062.9782
 Red. masses --      1.0396                 1.0427                 1.0803
 Frc consts  --      5.7136                 5.7326                 5.9714
 IR Inten    --     50.2418                45.5891                13.5278

                     91                     92                     93
                      A                      A                      A
 Frequencies --   3084.0174              3108.5355              3121.7860
 Red. masses --      1.1012                 1.1056                 1.1013
 Frc consts  --      6.1708                 6.2944                 6.3236
 IR Inten    --     15.8820                23.1484                43.9831

                     94                     95                     96
                      A                      A                      A
 Frequencies --   3128.6563              3138.6390              3150.3828
 Red. masses --      1.1024                 1.0928                 1.0952
 Frc consts  --      6.3576                 6.3427                 6.4045
 IR Inten    --     32.2593                 7.9425                17.7184

                     97                     98                     99
                      A                      A                      A
 Frequencies --   3182.7839              3187.2896              3248.2320
 Red. masses --      1.1064                 1.0993                 1.0961
 Frc consts  --      6.6033                 6.5800                 6.8137
 IR Inten    --      1.9089                 1.9212                 6.5594

                    100                    101                    102
                      A                      A                      A
 Frequencies --   3252.8647              3272.0265              3508.0971
 Red. masses --      1.0919                 1.1016                 1.0741
 Frc consts  --      6.8072                 6.9486                 7.7882
 IR Inten    --     10.9952                 5.5718                 1.5438

 - Thermochemistry -
 -------------------
 Temperature   298.150 Kelvin.  Pressure   1.00000 Atm.
 Atom     1 has atomic number  6 and mass  12.00000

 Molecular mass:   233.16405 amu.
 Principal axes and moments of inertia in atomic units:
                           1         2         3
     Eigenvalues --  1758.014827676.742778256.06444
           X            0.99998  -0.00514  -0.00481
           Y            0.00497   0.99938  -0.03482
           Z            0.00499   0.03480   0.99938
 This molecule is an asymmetric top.
 Rotational symmetry number  1.
 Warning -- assumption of classical behavior for rotation
           may cause significant error
 Rotational temperatures (Kelvin)      0.04927     0.01128     0.01049
 Rotational constants (GHZ):           1.02658     0.23509     0.21860
 Zero-point vibrational energy     815501.6 (Joules/Mol)
                                  194.90956 (Kcal/Mol)
 Warning -- explicit consideration of  23 degrees of freedom as
           vibrations may cause significant error
 Vibrational temperatures:     27.32    43.65    59.28    87.46   103.49
          (Kelvin)            126.94   168.05   190.54   234.74   262.53
                              280.00   298.11   340.38   348.99   365.05
                              406.73   442.78   454.32   588.97   611.53
                              622.85   692.74   751.75   910.24   925.68
                              934.04   958.73   976.12  1016.88  1032.38
                             1059.93  1113.85  1135.58  1193.50  1246.21
                             1253.41  1293.65  1368.99  1382.23  1428.42
                             1495.18  1503.45  1508.45  1533.79  1544.09
                             1553.94  1574.16  1658.35  1665.54  1679.83
                             1683.61  1733.49  1738.15  1782.83  1787.99
                             1838.10  1901.65  1913.75  1939.80  1958.75
                             1982.21  2022.70  2055.99  2058.54  2077.25
                             2080.97  2085.00  2120.35  2122.67  2160.88
                             2169.12  2176.77  2182.62  2183.58  2190.34
                             2191.85  2197.52  2203.97  2214.38  2220.70
                             2228.29  2302.31  2335.42  4299.98  4372.03
                             4381.95  4392.99  4394.26  4395.10  4406.94
                             4437.21  4472.49  4491.55  4501.44  4515.80
                             4532.70  4579.32  4585.80  4673.48  4680.15
                             4707.72  5047.37

 Zero-point correction=                           0.310608 (Hartree/Particle)
 Thermal correction to Energy=                    0.328212
 Thermal correction to Enthalpy=                  0.329156
 Thermal correction to Gibbs Free Energy=         0.262984
 Sum of electronic and zero-point Energies=           -742.187528
 Sum of electronic and thermal Energies=              -742.169924
 Sum of electronic and thermal Enthalpies=            -742.168980
 Sum of electronic and thermal Free Energies=         -742.235152

                     E (Thermal)             CV                S
                      KCal/Mol        Cal/Mol-Kelvin    Cal/Mol-Kelvin
 Total                  205.956             64.270            139.271
 Electronic               0.000              0.000              0.000
 Translational            0.889              2.981             42.241
 Rotational               0.889              2.981             33.077
 Vibrational            204.179             58.309             63.952
 Vibration     1          0.593              1.986              6.737
 Vibration     2          0.594              1.984              5.807
 Vibration     3          0.594              1.981              5.200
 Vibration     4          0.597              1.973              4.431
 Vibration     5          0.598              1.967              4.100
 Vibration     6          0.601              1.957              3.699
 Vibration     7          0.608              1.935              3.153
 Vibration     8          0.613              1.921              2.910
 Vibration     9          0.623              1.888              2.513
 Vibration    10          0.630              1.864              2.303
 Vibration    11          0.635              1.847              2.183
 Vibration    12          0.641              1.830              2.068
 Vibration    13          0.655              1.785              1.828
 Vibration    14          0.659              1.775              1.784
 Vibration    15          0.665              1.757              1.705
 Vibration    16          0.682              1.706              1.517
 Vibration    17          0.698              1.659              1.374
 Vibration    18          0.703              1.644              1.332
 Vibration    19          0.774              1.450              0.929
 Vibration    20          0.787              1.416              0.875
 Vibration    21          0.794              1.399              0.849
 Vibration    22          0.838              1.291              0.706
 Vibration    23          0.877              1.200              0.604

                           ! Non-Optimized Parameters !
 Normal termination of Gaussian 16 at Mon Dec 14 13:55:26 2020.

 ----------------------------------------------------------------------
 # B3LYP/6-311++G(d,p) empiricaldispersion=gd3bj scf=xqc pop=npa geom=c
 heck
 ----------------------------------------------------------------------

 --------------------------------------
 CID_19625581_JID_7438_Energie_neutraal
 --------------------------------------
 Structure from the checkpoint file:  "JID_7438.chk"
 Charge =  0 Multiplicity = 1

 SCF Done:  E(RB3LYP) =  -742.698366713     A.U. after   14 cycles
 Normal termination of Gaussian 16 at Mon Dec 14 14:01:50 2020.

 ----------------------------------------------------------------------
 # B3LYP/6-311++G(d,p) empiricaldispersion=gd3bj scf=xqc pop=npa geom=c
 heck
 ----------------------------------------------------------------------

 ------------------------------------
 CID_19625581_JID_7438_Energie_kation
 ------------------------------------
 Structure from the checkpoint file:  "JID_7438.chk"
 Charge =  1 Multiplicity = 2

 SCF Done:  E(UB3LYP) =  -742.404528551     A.U. after   33 cycles
 SCF Done:  E(UB3LYP) =  -742.404533069     a.u. after    3 cycles
 Normal termination of Gaussian 16 at Mon Dec 14 14:59:08 2020.
 Gaussian 16:  ES64L-G16RevA.03 25-Dec-2016

 ----------------------------------------------------------------------
 # B3LYP/6-311++G(d,p) empiricaldispersion=gd3bj scf=xqc pop=npa geom=c
 heck
 ----------------------------------------------------------------------

 -----------------------------------
 CID_19625581_JID_7438_Energie_anion
 -----------------------------------
 Structure from the checkpoint file:  "JID_7438.chk"
 Charge = -1 Multiplicity = 2

                         Standard orientation:
 ---------------------------------------------------------------------
 Center     Atomic      Atomic             Coordinates (Angstroms)
 Number     Number       Type             X           Y           Z
 ---------------------------------------------------------------------
      1          6           0       -3.101660    1.587868    0.826724
      2          6           0       -2.692522    0.342246    0.106239
      3          6           0       -1.478697   -0.083045   -0.426957
      4          6           0       -1.762414   -1.361063   -0.960710
      5          7           0       -3.033971   -1.714008   -0.788292
      6          7           0       -3.585887   -0.663560   -0.133756
      7          6           0       -4.986102   -0.704124    0.230681
      8          6           0       -0.146225    0.616632   -0.449347
      9          6           0       -0.196105    1.962717   -1.198196
     10          7           0        0.392097    0.688844    0.923670
     11          6           0        1.731198    1.271742    1.057002
     12          6           0        2.755824    0.489872    0.292963
     13          6           0        3.621969    0.890753   -0.712566
     14          6           0        4.341505   -0.272067   -1.057253
     15          7           0        3.956521   -1.322036   -0.331194
     16          7           0        2.986500   -0.842592    0.482040
     17          6           0        2.378353   -1.722700    1.464026
     18          1           0       -2.243912    2.245297    0.981668
     19          1           0       -3.852991    2.158419    0.265346
     20          1           0       -3.531365    1.365173    1.811716
     21          1           0       -1.079492   -2.031944   -1.466732
     22          1           0       -5.112378   -0.648524    1.317795
     23          1           0       -5.537614    0.121495   -0.232604
     24          1           0       -5.381976   -1.652518   -0.131198
     25          1           0        0.544326   -0.030824   -1.002031
     26          1           0       -0.814458    2.698424   -0.671376
     27          1           0        0.806812    2.384791   -1.318614
     28          1           0       -0.621997    1.820622   -2.196602
     29          1           0       -0.257786    1.189324    1.525667
     30          1           0        1.971403    1.268596    2.128773
     31          1           0        1.805202    2.319357    0.722629
     32          1           0        3.705753    1.883061   -1.132725
     33          1           0        5.113938   -0.394339   -1.805147
     34          1           0        2.927940   -1.688292    2.412322
     35          1           0        1.344441   -1.409173    1.619323
     36          1           0        2.416589   -2.738458    1.068886
 ---------------------------------------------------------------------

 SCF Done:  E(UB3LYP) =  -742.691276896     A.U. after   33 cycles
 SCF Done:  E(UB3LYP) =  -742.691276895     a.u. after    1 cycles

 The electronic state is 2-A.
 Alpha  occ. eigenvalues --  -14.30095 -14.28671 -14.24098 -14.22593 -14.20804
 Alpha  occ. eigenvalues --  -10.12245 -10.11740 -10.11703 -10.11317 -10.11185
 Alpha  occ. eigenvalues --  -10.11093 -10.10394 -10.08612 -10.07865 -10.07612
 Alpha  occ. eigenvalues --  -10.06736 -10.06513  -0.96239  -0.94791  -0.82196
 Alpha  occ. eigenvalues --   -0.75447  -0.74541  -0.71779  -0.70101  -0.65717
 Alpha  occ. eigenvalues --   -0.61292  -0.60779  -0.59942  -0.58998  -0.52724
 Alpha  occ. eigenvalues --   -0.51679  -0.49272  -0.46803  -0.45204  -0.41934
 Alpha  occ. eigenvalues --   -0.41300  -0.39442  -0.38324  -0.37779  -0.37585
 Alpha  occ. eigenvalues --   -0.35446  -0.34760  -0.34058  -0.33673  -0.32892
 Alpha  occ. eigenvalues --   -0.31918  -0.31582  -0.31134  -0.30777  -0.30457
 Alpha  occ. eigenvalues --   -0.29602  -0.29398  -0.28882  -0.28371  -0.26915
 Alpha  occ. eigenvalues --   -0.24581  -0.20933  -0.19408  -0.16714  -0.16101
 Alpha  occ. eigenvalues --   -0.15015  -0.13973  -0.13779   0.03907
 Alpha virt. eigenvalues --    0.06113   0.06911   0.07268   0.08096   0.08395
 Alpha virt. eigenvalues --    0.08625   0.09162   0.09731   0.09870   0.10300
 Alpha virt. eigenvalues --    0.10631   0.11288   0.11610   0.11953   0.12496

  Beta  occ. eigenvalues --  -14.30088 -14.28671 -14.24092 -14.22589 -14.20781
  Beta  occ. eigenvalues --  -10.12242 -10.11733 -10.11676 -10.11315 -10.11138
  Beta  occ. eigenvalues --  -10.11090 -10.10395 -10.08611 -10.07859 -10.07540
  Beta  occ. eigenvalues --  -10.06736 -10.06488  -0.96227  -0.94783  -0.82160
  Beta  occ. eigenvalues --   -0.75436  -0.74523  -0.71759  -0.70079  -0.65680
  Beta  occ. eigenvalues --   -0.61278  -0.60702  -0.59882  -0.58945  -0.52682
  Beta  occ. eigenvalues --   -0.51667  -0.49254  -0.46784  -0.45158  -0.41885
  Beta  occ. eigenvalues --   -0.41271  -0.39400  -0.38293  -0.37743  -0.37555
  Beta  occ. eigenvalues --   -0.35427  -0.34729  -0.34036  -0.33649  -0.32861
  Beta  occ. eigenvalues --   -0.31869  -0.31530  -0.31112  -0.30722  -0.30437
  Beta  occ. eigenvalues --   -0.29573  -0.29369  -0.28844  -0.28335  -0.26886
  Beta  occ. eigenvalues --   -0.24550  -0.20923  -0.19388  -0.16694  -0.16070
  Beta  occ. eigenvalues --   -0.15002  -0.13948  -0.13767
  Beta virt. eigenvalues --    0.06266   0.06883   0.07247   0.07705   0.08235
  Beta virt. eigenvalues --    0.08568   0.09077   0.09889   0.10041   0.10192
  Beta virt. eigenvalues --    0.10580   0.10905   0.11480   0.11924   0.12232

 Mulliken charges and spin densities:
               1          2
     1  C    1.286602  -1.962755
     2  C   -2.201012   1.419918
     3  C    1.948352  -1.161975
     4  C   -0.014989   0.089623
     5  N   -0.508036   0.172128
     6  N    0.254655   0.117040
     7  C    0.660154  -0.981203
     8  C   -0.350340   0.077645
     9  C   -0.107094  -0.667419
    10  N   -0.038692   0.098315
    11  C    0.672890  -1.573818
    12  C   -0.767683   0.744380
    13  C    0.067095   0.031514
    14  C   -0.053398  -0.184846
    15  N   -0.316358   0.033692
    16  N    0.372543  -0.000454
    17  C   -0.143965  -0.144509
    18  H   -0.752086   0.875569
    19  H   -0.307359   0.491208
    20  H   -0.488163   0.658202
    21  H    0.121400   0.025143
    22  H   -0.281503   0.455509
    23  H   -0.346829   0.515994
    24  H   -0.005786   0.167528
    25  H    0.261152  -0.103107
    26  H   -0.077596   0.246968
    27  H    0.105243  -0.009710
    28  H    0.037837   0.118830
    29  H    0.205054   0.038382
    30  H   -0.448425   0.632025
    31  H   -0.200394   0.379465
    32  H   -0.068003   0.220875
    33  H    0.123900   0.023823
    34  H    0.069243   0.091362
    35  H    0.151360   0.054600
    36  H    0.140230   0.010058
 Sum of Mulliken charges =  -1.00000   1.00000

 Dipole moment (field-independent basis, Debye):
    X=              6.8165    Y=             -3.5835    Z=             -3.4778  Tot=              8.4499
 Quadrupole moment (field-independent basis, Debye-Ang):
   XX=           -196.9622   YY=           -150.6500   ZZ=           -139.3555
   XY=             10.2257   XZ=              5.0590   YZ=            -11.5785

 Summary of Natural Population Analysis:

                                       Natural Population
                Natural  -----------------------------------------------
    Atom  No    Charge         Core      Valence    Rydberg      Total
 -----------------------------------------------------------------------
      C    1   -0.30516      0.99964     2.29956    0.00596     3.30516
      C    2    0.09374      0.99947     1.89447    0.01231     2.90626
      C    3   -0.07374      0.99944     2.06213    0.01217     3.07374
      C    4   -0.00782      0.99957     1.99496    0.01329     3.00782
      N    5   -0.15845      0.99974     2.64753    0.01118     3.65845
      N    6   -0.10936      0.99962     2.59660    0.01314     3.60936
      C    7   -0.17537      0.99964     2.16780    0.00794     3.17537
      C    8   -0.01862      0.99956     2.00688    0.01218     3.01862
      C    9   -0.29004      0.99964     2.28516    0.00524     3.29004
      N   10   -0.34154      0.99973     2.82904    0.01276     3.84154
      C   11   -0.10621      0.99958     2.09393    0.01270     3.10621
      C   12    0.08365      0.99952     1.90417    0.01266     2.91635
      C   13   -0.16444      0.99949     2.15608    0.00887     3.16444
      C   14   -0.01886      0.99964     2.00493    0.01429     3.01886
      N   15   -0.15610      0.99974     2.64553    0.01083     3.65610
      N   16   -0.10707      0.99961     2.59507    0.01239     3.60707
      C   17   -0.18162      0.99964     2.17428    0.00770     3.18162
      H   18    0.10956      0.00000     0.38810    0.00234     0.39044
      H   19    0.11119      0.00000     0.38626    0.00255     0.38881
      H   20    0.11200      0.00000     0.38530    0.00270     0.38800
      H   21    0.09509      0.00000     0.40397    0.00095     0.40491
      H   22    0.10088      0.00000     0.39757    0.00155     0.39912
      H   23    0.10045      0.00000     0.39801    0.00154     0.39955
      H   24    0.10821      0.00000     0.39024    0.00155     0.39179
      H   25    0.09681      0.00000     0.40106    0.00212     0.40319
      H   26    0.10023      0.00000     0.39863    0.00114     0.39977
      H   27    0.09691      0.00000     0.40217    0.00092     0.40309
      H   28    0.10237      0.00000     0.39682    0.00081     0.39763
      H   29    0.18141      0.00000     0.31475    0.00384     0.31859
      H   30    0.10608      0.00000     0.39222    0.00170     0.39392
      H   31    0.09370      0.00000     0.40463    0.00167     0.40630
      H   32    0.10884      0.00000     0.39039    0.00078     0.39116
      H   33    0.09526      0.00000     0.40397    0.00077     0.40474
      H   34    0.09400      0.00000     0.40506    0.00093     0.40600
      H   35    0.11965      0.00000     0.37915    0.00121     0.38035
      H   36    0.10440      0.00000     0.39464    0.00096     0.39560
 =======================================================================
   * Total *    0.00000     16.99329    45.79107    0.21564    63.00000

 Normal termination of Gaussian 16 at Mon Dec 14 15:18:32 2020.
