 Gaussian 16, Revision A.03,

 -----------------------------------------------------------
 # opt freq B3LYP/6-31G(d) empiricaldispersion=gd3bj scf=xqc
 -----------------------------------------------------------

 -------------------------------
 CID_144481682_JID_8350_neutraal
 -------------------------------
 Symbolic Z-matrix:
 Charge =  0 Multiplicity = 1

 SCF Done:  E(RB3LYP) =  -727.680798864     A.U. after   15 cycles
 SCF Done:  E(RB3LYP) =  -727.688069500     A.U. after   13 cycles
 SCF Done:  E(RB3LYP) =  -727.688470568     A.U. after   12 cycles
 SCF Done:  E(RB3LYP) =  -727.689284904     A.U. after   12 cycles
 SCF Done:  E(RB3LYP) =  -727.689584814     A.U. after   11 cycles
 SCF Done:  E(RB3LYP) =  -727.689788348     A.U. after   11 cycles
 SCF Done:  E(RB3LYP) =  -727.689821317     A.U. after    9 cycles
 SCF Done:  E(RB3LYP) =  -727.689842871     A.U. after   10 cycles
 SCF Done:  E(RB3LYP) =  -727.689845100     A.U. after    8 cycles
 SCF Done:  E(RB3LYP) =  -727.689845972     A.U. after    8 cycles
 SCF Done:  E(RB3LYP) =  -727.689846348     A.U. after    7 cycles
 SCF Done:  E(RB3LYP) =  -727.689846575     A.U. after    7 cycles
 SCF Done:  E(RB3LYP) =  -727.689846672     A.U. after    7 cycles
 SCF Done:  E(RB3LYP) =  -727.689846694     A.U. after    6 cycles
 Optimization completed.
    -- Stationary point found.
 Normal termination of Gaussian 16 at Fri Dec 11 20:09:54 2020.

 --------------------------------------------------------------------
 #N Geom=AllCheck Guess=TCheck SCRF=Check GenChk RB3LYP/6-31G(d) Freq
 --------------------------------------------------------------------

 Structure from the checkpoint file:  "JID_8350.chk"
 -------------------------------
 CID_144481682_JID_8350_neutraal
 -------------------------------
 Charge =  0 Multiplicity = 1

 SCF Done:  E(RB3LYP) =  -727.689846694     A.U. after    1 cycles

  Exact polarizability: 333.616  11.141 184.687  -7.373   8.329  80.792
 Approx polarizability: 506.245  23.032 329.251 -17.920  20.856 129.071

                      1                      2                      3
                      A                      A                      A
 Frequencies --     47.9736                68.6719                97.7619
 Red. masses --      3.8914                 3.9501                 3.5631
 Frc consts  --      0.0053                 0.0110                 0.0201
 IR Inten    --      0.5582                 0.0551                 0.7611

                      4                      5                      6
                      A                      A                      A
 Frequencies --    121.7108               146.3011               166.5027
 Red. masses --      2.6562                 3.3308                 3.5310
 Frc consts  --      0.0232                 0.0420                 0.0577
 IR Inten    --      0.9161                 0.2793                 3.0203

                      7                      8                      9
                      A                      A                      A
 Frequencies --    185.0073               196.7126               210.5639
 Red. masses --      2.5547                 2.4925                 1.4394
 Frc consts  --      0.0515                 0.0568                 0.0376
 IR Inten    --      0.1028                 2.2962                 1.7681

                     10                     11                     12
                      A                      A                      A
 Frequencies --    230.8286               274.3954               309.5769
 Red. masses --      3.1291                 4.2370                 4.0492
 Frc consts  --      0.0982                 0.1880                 0.2286
 IR Inten    --      0.6057                 0.4804                 0.1639

                     13                     14                     15
                      A                      A                      A
 Frequencies --    340.1797               356.4740               421.0548
 Red. masses --      4.1110                 4.8249                 4.5348
 Frc consts  --      0.2803                 0.3612                 0.4737
 IR Inten    --      0.6892                 1.2504                 0.3155

                     16                     17                     18
                      A                      A                      A
 Frequencies --    426.1239               466.3105               522.4117
 Red. masses --      3.2086                 2.9770                 3.9466
 Frc consts  --      0.3433                 0.3814                 0.6346
 IR Inten    --      3.6493                 1.5545                 2.2293

                     19                     20                     21
                      A                      A                      A
 Frequencies --    523.1766               543.9429               569.6894
 Red. masses --      4.6172                 4.7171                 3.7144
 Frc consts  --      0.7446                 0.8223                 0.7103
 IR Inten    --      5.4338                 0.9383                 0.8579

                     22                     23                     24
                      A                      A                      A
 Frequencies --    584.2339               623.8405               655.8043
 Red. masses --      3.8831                 2.9609                 4.5708
 Frc consts  --      0.7809                 0.6789                 1.1582
 IR Inten    --      3.2737                 1.8918                 0.4376

                     25                     26                     27
                      A                      A                      A
 Frequencies --    679.7445               700.8882               720.9027
 Red. masses --      2.7565                 2.9772                 2.7392
 Frc consts  --      0.7504                 0.8617                 0.8387
 IR Inten    --     11.9811                10.6293                22.1557

                     28                     29                     30
                      A                      A                      A
 Frequencies --    746.8734               756.7267               788.8299
 Red. masses --      3.2303                 1.5006                 3.4996
 Frc consts  --      1.0617                 0.5063                 1.2830
 IR Inten    --      0.5428                10.8141                 3.2459

                     31                     32                     33
                      A                      A                      A
 Frequencies --    796.4984               800.1977               801.8906
 Red. masses --      2.7991                 3.1259                 2.0552
 Frc consts  --      1.0463                 1.1793                 0.7786
 IR Inten    --      6.6347                30.1867                30.4371

                     34                     35                     36
                      A                      A                      A
 Frequencies --    851.7661               889.6828               912.7828
 Red. masses --      4.9894                 1.4650                 4.8201
 Frc consts  --      2.1327                 0.6832                 2.3661
 IR Inten    --      2.6574                 0.2539                 4.0292

                     37                     38                     39
                      A                      A                      A
 Frequencies --    921.6937               923.7011               954.5577
 Red. masses --      1.3984                 1.2528                 2.1745
 Frc consts  --      0.6999                 0.6298                 1.1674
 IR Inten    --     21.9479                 2.7999                15.4767

                     40                     41                     42
                      A                      A                      A
 Frequencies --    960.9540               994.8991               994.9758
 Red. masses --      1.3451                 1.2173                 1.2489
 Frc consts  --      0.7319                 0.7099                 0.7284
 IR Inten    --      2.1137                 0.4726                 0.7017

                     43                     44                     45
                      A                      A                      A
 Frequencies --   1020.2584              1034.1162              1058.1018
 Red. masses --      1.1084                 2.2798                 2.2471
 Frc consts  --      0.6798                 1.4364                 1.4823
 IR Inten    --     18.0911                19.0717                 0.0490

                     46                     47                     48
                      A                      A                      A
 Frequencies --   1074.6868              1091.6834              1103.8190
 Red. masses --      1.5111                 2.7059                 1.6979
 Frc consts  --      1.0283                 1.9000                 1.2188
 IR Inten    --      5.7715                 6.6340                 4.0163

                     49                     50                     51
                      A                      A                      A
 Frequencies --   1134.4059              1172.3661              1193.2500
 Red. masses --      2.0645                 1.4645                 1.1294
 Frc consts  --      1.5653                 1.1860                 0.9475
 IR Inten    --      2.3801                 7.4952                 0.7712

                     52                     53                     54
                      A                      A                      A
 Frequencies --   1222.6471              1246.3068              1267.1500
 Red. masses --      2.2704                 2.1749                 2.0101
 Frc consts  --      1.9997                 1.9904                 1.9017
 IR Inten    --      3.8633                 6.9829                 9.3612

                     55                     56                     57
                      A                      A                      A
 Frequencies --   1285.1457              1294.6940              1337.5889
 Red. masses --      2.4090                 1.6124                 1.9757
 Frc consts  --      2.3442                 1.5924                 2.0826
 IR Inten    --      5.7073                 8.3452                 0.4258

                     58                     59                     60
                      A                      A                      A
 Frequencies --   1350.1612              1370.7247              1376.5104
 Red. masses --      2.4301                 1.7458                 5.1141
 Frc consts  --      2.6100                 1.9326                 5.7093
 IR Inten    --     48.0998                 2.9613                22.2077

                     61                     62                     63
                      A                      A                      A
 Frequencies --   1396.9680              1428.5848              1458.6673
 Red. masses --      3.5650                 1.3072                 1.4870
 Frc consts  --      4.0990                 1.5718                 1.8641
 IR Inten    --    114.9946                 6.7445                 4.7031

                     64                     65                     66
                      A                      A                      A
 Frequencies --   1470.8223              1488.8160              1501.0194
 Red. masses --      2.0541                 1.4886                 1.5378
 Frc consts  --      2.6182                 1.9441                 2.0413
 IR Inten    --      0.4590                 4.3770                54.6190

                     67                     68                     69
                      A                      A                      A
 Frequencies --   1505.2663              1513.8629              1534.1317
 Red. masses --      1.4464                 1.0810                 3.3115
 Frc consts  --      1.9309                 1.4596                 4.5919
 IR Inten    --      1.0071                 6.2949                 6.7358

                     70                     71                     72
                      A                      A                      A
 Frequencies --   1566.1871              1567.8886              1604.7321
 Red. masses --      7.4667                 7.6963                 5.6279
 Frc consts  --     10.7912                11.1471                 8.5388
 IR Inten    --     13.6685                21.7806                 0.5285

                     73                     74                     75
                      A                      A                      A
 Frequencies --   1669.2813              1692.2611              1702.5000
 Red. masses --      5.7262                 6.2155                 4.5558
 Frc consts  --      9.4010                10.4873                 7.7802
 IR Inten    --      7.1829                 5.0311                21.9881

                     76                     77                     78
                      A                      A                      A
 Frequencies --   1728.5501              3029.2864              3083.6253
 Red. masses --      6.5398                 1.0447                 1.0928
 Frc consts  --     11.5127                 5.6481                 6.1222
 IR Inten    --      5.4702                23.3559                26.8349

                     79                     80                     81
                      A                      A                      A
 Frequencies --   3136.3055              3150.8278              3154.1618
 Red. masses --      1.0955                 1.0846                 1.0871
 Frc consts  --      6.3491                 6.3441                 6.3724
 IR Inten    --      2.0353                16.4372                15.8919

                     82                     83                     84
                      A                      A                      A
 Frequencies --   3175.6485              3181.9067              3183.4238
 Red. masses --      1.0931                 1.0616                 1.0866
 Frc consts  --      6.4952                 6.3325                 6.4882
 IR Inten    --     37.2967                 5.1267                 3.6455

                     85                     86                     87
                      A                      A                      A
 Frequencies --   3195.8207              3209.7946              3215.1516
 Red. masses --      1.0896                 1.0946                 1.0899
 Frc consts  --      6.5566                 6.6443                 6.6379
 IR Inten    --     14.6581                32.1806                 5.8171

                     88                     89                     90
                      A                      A                      A
 Frequencies --   3226.7360              3260.0132              3267.7226
 Red. masses --      1.0943                 1.0945                 1.1170
 Frc consts  --      6.7130                 6.8533                 7.0276
 IR Inten    --      7.6713                 5.9388                 8.4641

 - Thermochemistry -
 -------------------
 Temperature   298.150 Kelvin.  Pressure   1.00000 Atm.
 Atom     1 has atomic number  6 and mass  12.00000

 Molecular mass:   234.11570 amu.
 Principal axes and moments of inertia in atomic units:
                           1         2         3
     Eigenvalues --  1730.980377066.400448430.48538
           X            0.99999   0.00083   0.00371
           Y           -0.00084   1.00000   0.00251
           Z           -0.00371  -0.00252   0.99999
 This molecule is an asymmetric top.
 Rotational symmetry number  1.
 Warning -- assumption of classical behavior for rotation
           may cause significant error
 Rotational temperatures (Kelvin)      0.05004     0.01226     0.01027
 Rotational constants (GHZ):           1.04261     0.25540     0.21407
 Zero-point vibrational energy     683189.7 (Joules/Mol)
                                  163.28625 (Kcal/Mol)
 Warning -- explicit consideration of  22 degrees of freedom as
           vibrations may cause significant error
 Vibrational temperatures:     69.02    98.80   140.66   175.11   210.49
          (Kelvin)            239.56   266.18   283.03   302.95   332.11
                              394.79   445.41   489.44   512.89   605.80
                              613.10   670.92   751.63   752.73   782.61
                              819.66   840.58   897.57   943.56   978.00
                             1008.42  1037.22  1074.58  1088.76  1134.95
                             1145.98  1151.31  1153.74  1225.50  1280.06
                             1313.29  1326.11  1329.00  1373.40  1382.60
                             1431.44  1431.55  1467.92  1487.86  1522.37
                             1546.23  1570.69  1588.15  1632.16  1686.77
                             1716.82  1759.12  1793.16  1823.15  1849.04
                             1862.78  1924.49  1942.58  1972.17  1980.49
                             2009.93  2055.41  2098.70  2116.19  2142.07
                             2159.63  2165.74  2178.11  2207.27  2253.39
                             2255.84  2308.85  2401.72  2434.79  2449.52
                             2487.00  4358.47  4436.65  4512.44  4533.34
                             4538.14  4569.05  4578.05  4580.24  4598.07
                             4618.18  4625.89  4642.55  4690.43  4701.52

 Zero-point correction=                           0.260213 (Hartree/Particle)
 Thermal correction to Energy=                    0.274911
 Thermal correction to Enthalpy=                  0.275855
 Thermal correction to Gibbs Free Energy=         0.218775
 Sum of electronic and zero-point Energies=           -727.429633
 Sum of electronic and thermal Energies=              -727.414936
 Sum of electronic and thermal Enthalpies=            -727.413992
 Sum of electronic and thermal Free Energies=         -727.471071

                     E (Thermal)             CV                S
                      KCal/Mol        Cal/Mol-Kelvin    Cal/Mol-Kelvin
 Total                  172.509             58.859            120.134
 Electronic               0.000              0.000              0.000
 Translational            0.889              2.981             42.254
 Rotational               0.889              2.981             33.000
 Vibrational            170.732             52.897             44.881
 Vibration     1          0.595              1.978              4.899
 Vibration     2          0.598              1.969              4.191
 Vibration     3          0.603              1.951              3.498
 Vibration     4          0.609              1.931              3.073
 Vibration     5          0.617              1.907              2.720
 Vibration     6          0.624              1.884              2.475
 Vibration     7          0.631              1.860              2.277
 Vibration     8          0.636              1.844              2.164
 Vibration     9          0.643              1.825              2.039
 Vibration    10          0.653              1.794              1.872
 Vibration    11          0.677              1.721              1.568
 Vibration    12          0.699              1.655              1.365
 Vibration    13          0.720              1.595              1.211
 Vibration    14          0.732              1.562              1.137
 Vibration    15          0.784              1.424              0.888
 Vibration    16          0.788              1.413              0.871
 Vibration    17          0.824              1.325              0.748
 Vibration    18          0.877              1.200              0.604
 Vibration    19          0.878              1.199              0.603
 Vibration    20          0.899              1.153              0.557
 Vibration    21          0.926              1.097              0.505
 Vibration    22          0.941              1.065              0.478

 Optimization completed.
    -- Stationary point found.
 Normal termination of Gaussian 16 at Fri Dec 11 20:22:14 2020.

 ----------------------------------------------------------------------
 # B3LYP/6-311++G(d,p) empiricaldispersion=gd3bj scf=xqc pop=npa geom=c
 heck
 ----------------------------------------------------------------------

 ---------------------------------------
 CID_144481682_JID_8350_Energie_neutraal
 ---------------------------------------
 Structure from the checkpoint file:  "JID_8350.chk"
 Charge =  0 Multiplicity = 1

 SCF Done:  E(RB3LYP) =  -727.871481413     A.U. after   16 cycles
 Normal termination of Gaussian 16 at Fri Dec 11 20:28:33 2020.

 ----------------------------------------------------------------------
 # B3LYP/6-311++G(d,p) empiricaldispersion=gd3bj scf=xqc pop=npa geom=c
 heck
 ----------------------------------------------------------------------

 -------------------------------------
 CID_144481682_JID_8350_Energie_kation
 -------------------------------------
 Structure from the checkpoint file:  "JID_8350.chk"
 Charge =  1 Multiplicity = 2

 SCF Done:  E(UB3LYP) =  -727.610177030     A.U. after   24 cycles
 Normal termination of Gaussian 16 at Fri Dec 11 20:42:24 2020.
 Gaussian 16:  ES64L-G16RevA.03 25-Dec-2016

 ----------------------------------------------------------------------
 # B3LYP/6-311++G(d,p) empiricaldispersion=gd3bj scf=xqc pop=npa geom=c
 heck
 ----------------------------------------------------------------------

 ------------------------------------
 CID_144481682_JID_8350_Energie_anion
 ------------------------------------
 Structure from the checkpoint file:  "JID_8350.chk"
 Charge = -1 Multiplicity = 2

                         Standard orientation:
 ---------------------------------------------------------------------
 Center     Atomic      Atomic             Coordinates (Angstroms)
 Number     Number       Type             X           Y           Z
 ---------------------------------------------------------------------
      1          6           0        4.278332   -0.714954    1.334920
      2          6           0        3.931018   -1.623949    0.197842
      3          6           0        2.789065   -1.637147   -0.508370
      4          6           0        1.618386   -0.773861   -0.341491
      5          6           0        1.524259    0.615705   -0.179480
      6          7           0        0.152994    0.856460   -0.042957
      7          6           0       -0.543299    2.040453    0.123540
      8          6           0       -1.894518    2.022181    0.221342
      9          6           0       -2.635002    0.790309    0.142631
     10          6           0       -4.040631    0.745027    0.242217
     11          6           0       -4.715173   -0.460368    0.152992
     12          6           0       -4.003114   -1.659565   -0.039441
     13          6           0       -2.623135   -1.644760   -0.140271
     14          6           0       -1.924927   -0.426148   -0.050699
     15          6           0       -0.495100   -0.372550   -0.151754
     16          7           0        0.371982   -1.353659   -0.342780
     17          6           0        2.474128    1.709098   -0.221937
     18          6           0        3.701535    1.683381   -0.762619
     19          1           0        3.393086   -0.216875    1.738579
     20          1           0        4.977265    0.073540    1.020716
     21          1           0        4.765760   -1.278552    2.139536
     22          1           0        4.682010   -2.368731   -0.063741
     23          1           0        2.647281   -2.425246   -1.245666
     24          1           0        0.044111    2.947567    0.162044
     25          1           0       -2.427496    2.957438    0.354865
     26          1           0       -4.588056    1.672381    0.389833
     27          1           0       -5.798221   -0.481945    0.231717
     28          1           0       -4.540495   -2.600845   -0.108200
     29          1           0       -2.053905   -2.556383   -0.287095
     30          1           0        2.138129    2.642659    0.227821
     31          1           0        4.335370    2.563673   -0.736531
     32          1           0        4.099390    0.794598   -1.240248
 ---------------------------------------------------------------------

 SCF Done:  E(UB3LYP) =  -727.876073390     A.U. after   30 cycles

 The electronic state is 2-A.
 Alpha  occ. eigenvalues --  -14.24725 -14.15841 -10.08811 -10.08254 -10.06643
 Alpha  occ. eigenvalues --  -10.05969 -10.05953 -10.05733 -10.05048 -10.04891
 Alpha  occ. eigenvalues --  -10.04854 -10.04799 -10.04699 -10.04346 -10.04161
 Alpha  occ. eigenvalues --  -10.03921 -10.03469 -10.02908  -0.89299  -0.77088
 Alpha  occ. eigenvalues --   -0.73759  -0.68608  -0.67224  -0.64804  -0.63752
 Alpha  occ. eigenvalues --   -0.60842  -0.59432  -0.56617  -0.52051  -0.49950
 Alpha  occ. eigenvalues --   -0.49848  -0.46705  -0.44298  -0.40643  -0.40164
 Alpha  occ. eigenvalues --   -0.39583  -0.37027  -0.35594  -0.34517  -0.33004
 Alpha  occ. eigenvalues --   -0.32408  -0.32034  -0.30975  -0.29949  -0.29452
 Alpha  occ. eigenvalues --   -0.28846  -0.28703  -0.27521  -0.25811  -0.25113
 Alpha  occ. eigenvalues --   -0.24199  -0.22892  -0.22153  -0.21759  -0.21101
 Alpha  occ. eigenvalues --   -0.18461  -0.16143  -0.14899  -0.14299  -0.13044
 Alpha  occ. eigenvalues --   -0.09288  -0.07338   0.04524
 Alpha virt. eigenvalues --    0.07815   0.08152   0.08404   0.08737   0.09105
 Alpha virt. eigenvalues --    0.09594   0.10075   0.10315   0.11430   0.11845
 Alpha virt. eigenvalues --    0.12585   0.12890   0.13071   0.13718   0.14029

  Beta  occ. eigenvalues --  -14.24712 -14.15933 -10.08610 -10.08134 -10.06506
  Beta  occ. eigenvalues --  -10.06006 -10.05856 -10.05782 -10.05010 -10.04859
  Beta  occ. eigenvalues --  -10.04789 -10.04788 -10.04704 -10.04264 -10.03950
  Beta  occ. eigenvalues --  -10.03684 -10.03273 -10.02690  -0.89153  -0.76969
  Beta  occ. eigenvalues --   -0.73553  -0.68362  -0.66983  -0.64510  -0.63456
  Beta  occ. eigenvalues --   -0.60561  -0.59263  -0.56419  -0.51702  -0.49716
  Beta  occ. eigenvalues --   -0.49542  -0.46469  -0.44069  -0.40478  -0.40004
  Beta  occ. eigenvalues --   -0.39413  -0.36899  -0.35451  -0.34393  -0.32724
  Beta  occ. eigenvalues --   -0.32158  -0.31844  -0.30832  -0.29804  -0.29315
  Beta  occ. eigenvalues --   -0.28740  -0.28574  -0.27410  -0.25741  -0.24537
  Beta  occ. eigenvalues --   -0.24057  -0.22775  -0.22012  -0.21658  -0.20520
  Beta  occ. eigenvalues --   -0.17616  -0.15462  -0.14587  -0.13941  -0.12330
  Beta  occ. eigenvalues --   -0.08447  -0.06273
  Beta virt. eigenvalues --    0.07756   0.08144   0.08651   0.08964   0.09104
  Beta virt. eigenvalues --    0.09471   0.10009   0.10237   0.10266   0.11394
  Beta virt. eigenvalues --    0.11807   0.12498   0.12910   0.13213   0.14083

 Mulliken charges and spin densities:
               1          2
     1  C   -0.540850  -0.132508
     2  C   -0.039605   0.125248
     3  C   -0.163684  -0.018603
     4  C    0.220909   0.104269
     5  C   -0.044461   0.073289
     6  N    0.285386   0.005778
     7  C   -0.069888   0.065619
     8  C   -0.459409   0.162368
     9  C    0.392661  -0.044654
    10  C   -0.360119   0.170355
    11  C   -0.290606   0.017301
    12  C   -0.476413   0.081560
    13  C   -0.649879   0.115653
    14  C    0.497745  -0.034229
    15  C   -0.585872   0.110142
    16  N   -0.017080  -0.048124
    17  C    0.457258  -0.010395
    18  C   -0.843735   0.226867
    19  H    0.152923   0.005244
    20  H    0.131759   0.023712
    21  H    0.101904   0.013730
    22  H    0.082240   0.047402
    23  H    0.176040   0.002621
    24  H    0.092433  -0.006315
    25  H    0.131616  -0.008864
    26  H    0.085197  -0.013820
    27  H    0.109112  -0.000727
    28  H    0.119042  -0.005456
    29  H    0.143244  -0.010792
    30  H    0.118716   0.005232
    31  H    0.092696  -0.005278
    32  H    0.150720  -0.016624
 Sum of Mulliken charges =  -1.00000   1.00000

 Dipole moment (field-independent basis, Debye):
    X=             -0.0513    Y=              1.8523    Z=              0.9238  Tot=              2.0705
 Quadrupole moment (field-independent basis, Debye-Ang):
   XX=           -157.0654   YY=           -121.0666   ZZ=           -119.9929
   XY=             -3.2288   XZ=              1.8587   YZ=              2.6954

 Summary of Natural Population Analysis:

                                       Natural Population
                Natural  -----------------------------------------------
    Atom  No    Charge         Core      Valence    Rydberg      Total
 -----------------------------------------------------------------------
      C    1   -0.30731      0.99965     2.30194    0.00572     3.30731
      C    2   -0.06947      0.99956     2.06124    0.00868     3.06947
      C    3   -0.11005      0.99952     2.10022    0.01031     3.11005
      C    4    0.07073      0.99950     1.91567    0.01410     2.92927
      C    5    0.06008      0.99949     1.92709    0.01334     2.93992
      N    6   -0.18481      0.99959     2.67564    0.00958     3.68481
      C    7    0.02698      0.99956     1.96287    0.01059     2.97302
      C    8   -0.08603      0.99955     2.07768    0.00881     3.08603
      C    9   -0.05833      0.99956     2.04408    0.01470     3.05833
      C   10   -0.07989      0.99948     2.05851    0.02190     3.07989
      C   11   -0.04963      0.99949     2.04031    0.00982     3.04963
      C   12   -0.07111      0.99951     2.05798    0.01362     3.07111
      C   13   -0.08958      0.99955     2.06490    0.02513     3.08958
      C   14    0.00436      0.99948     1.98676    0.00941     2.99564
      C   15    0.20673      0.99962     1.77447    0.01918     2.79327
      N   16   -0.27586      0.99968     2.76611    0.01007     3.77586
      C   17   -0.11290      0.99957     2.10483    0.00850     3.11290
      C   18   -0.15420      0.99960     2.14644    0.00815     3.15420
      H   19    0.10819      0.00000     0.39052    0.00128     0.39181
      H   20    0.10457      0.00000     0.39364    0.00179     0.39543
      H   21    0.09394      0.00000     0.40485    0.00122     0.40606
      H   22    0.08262      0.00000     0.41573    0.00166     0.41738
      H   23    0.09857      0.00000     0.40008    0.00135     0.40143
      H   24    0.09277      0.00000     0.40595    0.00129     0.40723
      H   25    0.09380      0.00000     0.40465    0.00154     0.40620
      H   26    0.08593      0.00000     0.41056    0.00351     0.41407
      H   27    0.08578      0.00000     0.41246    0.00176     0.41422
      H   28    0.08257      0.00000     0.41341    0.00402     0.41743
      H   29    0.10320      0.00000     0.39532    0.00148     0.39680
      H   30    0.08820      0.00000     0.41006    0.00174     0.41180
      H   31    0.08298      0.00000     0.41599    0.00103     0.41702
      H   32    0.09210      0.00000     0.40683    0.00106     0.40790
 =======================================================================
   * Total *    0.01492     17.99194    43.74678    0.24636    61.98508

 Normal termination of Gaussian 16 at Fri Dec 11 20:59:37 2020.
