 Gaussian 16, Revision A.03,

 -----------------------------------------------------------
 # opt freq B3LYP/6-31G(d) empiricaldispersion=gd3bj scf=xqc
 -----------------------------------------------------------

 -------------------------------
 CID_150440834_JID_6106_neutraal
 -------------------------------
 Symbolic Z-matrix:
 Charge =  0 Multiplicity = 1

 SCF Done:  E(RB3LYP) =  -747.518445049     A.U. after   17 cycles
 SCF Done:  E(RB3LYP) =  -747.524871576     A.U. after   15 cycles
 SCF Done:  E(RB3LYP) =  -747.526162669     A.U. after   14 cycles
 SCF Done:  E(RB3LYP) =  -747.526415595     A.U. after   12 cycles
 SCF Done:  E(RB3LYP) =  -747.526469213     A.U. after   12 cycles
 SCF Done:  E(RB3LYP) =  -747.526502915     A.U. after   12 cycles
 SCF Done:  E(RB3LYP) =  -747.526614606     A.U. after   14 cycles
 SCF Done:  E(RB3LYP) =  -747.526615395     A.U. after   14 cycles
 SCF Done:  E(RB3LYP) =  -747.526743426     A.U. after   12 cycles
 SCF Done:  E(RB3LYP) =  -747.527280059     A.U. after   14 cycles
 SCF Done:  E(RB3LYP) =  -747.527356410     A.U. after   10 cycles
 SCF Done:  E(RB3LYP) =  -747.527357279     A.U. after   10 cycles
 SCF Done:  E(RB3LYP) =  -747.527358074     A.U. after   10 cycles
 SCF Done:  E(RB3LYP) =  -747.527358522     A.U. after    9 cycles
 SCF Done:  E(RB3LYP) =  -747.527358600     A.U. after    8 cycles
 Optimization completed.
    -- Stationary point found.
 Normal termination of Gaussian 16 at Thu Dec 10 21:16:42 2020.

 --------------------------------------------------------------------
 #N Geom=AllCheck Guess=TCheck SCRF=Check GenChk RB3LYP/6-31G(d) Freq
 --------------------------------------------------------------------

 Structure from the checkpoint file:  "JID_6106.chk"
 -------------------------------
 CID_150440834_JID_6106_neutraal
 -------------------------------
 Charge =  0 Multiplicity = 1

 SCF Done:  E(RB3LYP) =  -747.527358600     A.U. after    1 cycles

  Exact polarizability: 209.257   9.345 134.077  -2.537   5.015  72.395
 Approx polarizability: 310.227  20.896 236.138 -12.984  12.867 116.502

                      1                      2                      3
                      A                      A                      A
 Frequencies --     21.0405                41.2065                43.7590
 Red. masses --      6.2986                 7.3698                 3.6382
 Frc consts  --      0.0016                 0.0074                 0.0041
 IR Inten    --      0.5671                 0.3997                 0.2237

                      4                      5                      6
                      A                      A                      A
 Frequencies --     79.9902                97.3038               141.1185
 Red. masses --      6.8108                 4.9073                 6.0812
 Frc consts  --      0.0257                 0.0274                 0.0714
 IR Inten    --      0.6109                 3.5945                 0.1763

                      7                      8                      9
                      A                      A                      A
 Frequencies --    172.9548               190.2451               224.3895
 Red. masses --      3.8845                 5.1079                 6.4473
 Frc consts  --      0.0685                 0.1089                 0.1913
 IR Inten    --      3.2588                 2.3768                 0.7217

                     10                     11                     12
                      A                      A                      A
 Frequencies --    248.5602               327.5759               394.2464
 Red. masses --      7.9919                 6.8824                 7.0170
 Frc consts  --      0.2909                 0.4351                 0.6426
 IR Inten    --      1.9266                 2.8971                 3.9875

                     13                     14                     15
                      A                      A                      A
 Frequencies --    414.0544               434.8008               490.1022
 Red. masses --      4.6893                 6.2416                13.5312
 Frc consts  --      0.4737                 0.6952                 1.9150
 IR Inten    --      5.6398                 3.6389                 5.6425

                     16                     17                     18
                      A                      A                      A
 Frequencies --    506.2868               601.7786               632.2683
 Red. masses --      5.7225                 5.3092                 4.5115
 Frc consts  --      0.8642                 1.1328                 1.0626
 IR Inten    --      1.5952                 3.7178                 8.9534

                     19                     20                     21
                      A                      A                      A
 Frequencies --    646.8549               659.6997               691.2564
 Red. masses --      7.0247                 2.7871                 1.2733
 Frc consts  --      1.7318                 0.7147                 0.3585
 IR Inten    --      3.9261                 0.4528                 7.8020

                     22                     23                     24
                      A                      A                      A
 Frequencies --    698.7766               734.5532               781.9275
 Red. masses --      6.5798                 4.7531                11.4564
 Frc consts  --      1.8929                 1.5110                 4.1270
 IR Inten    --      1.7810                 5.6396                10.0423

                     25                     26                     27
                      A                      A                      A
 Frequencies --    804.3180               810.2529               814.1142
 Red. masses --      1.0669                 1.3636                 1.2997
 Frc consts  --      0.4067                 0.5275                 0.5075
 IR Inten    --      0.4906                24.8149                16.1964

                     28                     29                     30
                      A                      A                      A
 Frequencies --    832.1248               909.5375               923.3150
 Red. masses --      1.6023                 3.6823                 2.9532
 Frc consts  --      0.6537                 1.7948                 1.4833
 IR Inten    --     11.7209                 8.3519                 0.0243

                     31                     32                     33
                      A                      A                      A
 Frequencies --    960.0788               990.6990               999.7746
 Red. masses --      8.7521                 5.8833                 4.1197
 Frc consts  --      4.7531                 3.4021                 2.4262
 IR Inten    --     25.9450                51.2415                31.7632

                     34                     35                     36
                      A                      A                      A
 Frequencies --   1069.5905              1075.0153              1083.3981
 Red. masses --      1.4742                 3.1078                 1.3582
 Frc consts  --      0.9936                 2.1161                 0.9393
 IR Inten    --     18.7685                45.6779                10.2703

                     37                     38                     39
                      A                      A                      A
 Frequencies --   1092.5863              1124.9683              1133.6033
 Red. masses --      1.3515                 4.0803                 1.1010
 Frc consts  --      0.9506                 3.0424                 0.8336
 IR Inten    --      2.9106                43.0290                 1.5047

                     40                     41                     42
                      A                      A                      A
 Frequencies --   1158.0688              1193.0578              1218.1076
 Red. masses --      2.0850                 3.1758                 1.3655
 Frc consts  --      1.6475                 2.6633                 1.1938
 IR Inten    --     57.6767                12.5373                 0.3456

                     43                     44                     45
                      A                      A                      A
 Frequencies --   1230.2927              1244.2901              1276.3753
 Red. masses --      2.7490                 1.6943                 4.1268
 Frc consts  --      2.4515                 1.5456                 3.9611
 IR Inten    --      1.5059                24.0049                13.0366

                     46                     47                     48
                      A                      A                      A
 Frequencies --   1296.9546              1313.5782              1342.7172
 Red. masses --      5.8083                 2.5722                 6.8090
 Frc consts  --      5.7564                 2.6150                 7.2327
 IR Inten    --     17.3757                 4.0412               150.2586

                     49                     50                     51
                      A                      A                      A
 Frequencies --   1361.3193              1387.0323              1438.3457
 Red. masses --      6.2659                 2.0419                 2.9468
 Frc consts  --      6.8416                 2.3145                 3.5919
 IR Inten    --      6.0457                45.9332                10.5249

                     52                     53                     54
                      A                      A                      A
 Frequencies --   1484.0812              1490.0550              1521.4950
 Red. masses --      1.0891                 9.7589                 1.4436
 Frc consts  --      1.4134                12.7660                 1.9689
 IR Inten    --      1.7720                27.1238                14.8127

                     55                     56                     57
                      A                      A                      A
 Frequencies --   1545.2817              1633.0342              1651.3543
 Red. masses --      3.8010                 6.7323                 9.1650
 Frc consts  --      5.3476                10.5781                14.7253
 IR Inten    --     75.1178                62.4931               221.3604

                     58                     59                     60
                      A                      A                      A
 Frequencies --   2265.4062              3152.8936              3155.1117
 Red. masses --     14.0010                 1.0507                 1.0582
 Frc consts  --     42.3352                 6.1539                 6.2068
 IR Inten    --    533.4641                18.7942                15.8072

                     61                     62                     63
                      A                      A                      A
 Frequencies --   3174.0140              3235.3635              3248.3480
 Red. masses --      1.0897                 1.1197                 1.1165
 Frc consts  --      6.4678                 6.9054                 6.9414
 IR Inten    --     12.6026                 0.4145                16.4454

                     64                     65                     66
                      A                      A                      A
 Frequencies --   3291.5608              3296.7335              3299.5825
 Red. masses --      1.0966                 1.0988                 1.0988
 Frc consts  --      6.9999                 7.0362                 7.0487
 IR Inten    --      0.4009                 0.3879                 3.6693

 - Thermochemistry -
 -------------------
 Temperature   298.150 Kelvin.  Pressure   1.00000 Atm.
 Atom     1 has atomic number  6 and mass  12.00000

 Molecular mass:   216.08719 amu.
 Principal axes and moments of inertia in atomic units:
                           1         2         3
     Eigenvalues --  1361.869446840.604557914.60462
           X            0.99998  -0.00516   0.00336
           Y            0.00513   0.99995   0.00882
           Z           -0.00341  -0.00881   0.99996
 This molecule is an asymmetric top.
 Rotational symmetry number  1.
 Warning -- assumption of classical behavior for rotation
           may cause significant error
 Rotational temperatures (Kelvin)      0.06360     0.01266     0.01094
 Rotational constants (GHZ):           1.32519     0.26383     0.22803
 Zero-point vibrational energy     459381.5 (Joules/Mol)
                                  109.79480 (Kcal/Mol)
 Warning -- explicit consideration of  17 degrees of freedom as
           vibrations may cause significant error
 Vibrational temperatures:     30.27    59.29    62.96   115.09   140.00
          (Kelvin)            203.04   248.84   273.72   322.85   357.62
                              471.31   567.23   595.73   625.58   705.15
                              728.43   865.83   909.69   930.68   949.16
                              994.56  1005.38  1056.86  1125.02  1157.23
                             1165.77  1171.33  1197.24  1308.62  1328.44
                             1381.34  1425.39  1438.45  1538.90  1546.71
                             1558.77  1571.99  1618.58  1631.00  1666.20
                             1716.54  1752.59  1770.12  1790.26  1836.42
                             1866.03  1889.95  1931.87  1958.63  1995.63
                             2069.46  2135.26  2143.86  2189.09  2223.32
                             2349.57  2375.93  3259.41  4536.31  4539.50
                             4566.70  4654.97  4673.65  4735.82  4743.26
                             4747.36

 Zero-point correction=                           0.174969 (Hartree/Particle)
 Thermal correction to Energy=                    0.188313
 Thermal correction to Enthalpy=                  0.189257
 Thermal correction to Gibbs Free Energy=         0.132169
 Sum of electronic and zero-point Energies=           -747.352389
 Sum of electronic and thermal Energies=              -747.339046
 Sum of electronic and thermal Enthalpies=            -747.338102
 Sum of electronic and thermal Free Energies=         -747.395190

                     E (Thermal)             CV                S
                      KCal/Mol        Cal/Mol-Kelvin    Cal/Mol-Kelvin
 Total                  118.168             49.074            120.152
 Electronic               0.000              0.000              0.000
 Translational            0.889              2.981             42.015
 Rotational               0.889              2.981             32.667
 Vibrational            116.390             43.113             45.471
 Vibration     1          0.593              1.985              6.533
 Vibration     2          0.594              1.981              5.200
 Vibration     3          0.595              1.980              5.081
 Vibration     4          0.600              1.963              3.891
 Vibration     5          0.603              1.951              3.508
 Vibration     6          0.615              1.912              2.789
 Vibration     7          0.626              1.876              2.403
 Vibration     8          0.634              1.853              2.225
 Vibration     9          0.649              1.804              1.923
 Vibration    10          0.662              1.765              1.741
 Vibration    11          0.711              1.620              1.272
 Vibration    12          0.761              1.482              0.984
 Vibration    13          0.778              1.440              0.912
 Vibration    14          0.795              1.394              0.843
 Vibration    15          0.846              1.272              0.683
 Vibration    16          0.862              1.236              0.643
 Vibration    17          0.960              1.028              0.447

 Optimization completed.
    -- Stationary point found.
 Normal termination of Gaussian 16 at Thu Dec 10 21:23:18 2020.

 ----------------------------------------------------------------------
 # B3LYP/6-311++G(d,p) empiricaldispersion=gd3bj scf=xqc pop=npa geom=c
 heck
 ----------------------------------------------------------------------

 ---------------------------------------
 CID_150440834_JID_6106_Energie_neutraal
 ---------------------------------------
 Structure from the checkpoint file:  "JID_6106.chk"
 Charge =  0 Multiplicity = 1

 SCF Done:  E(RB3LYP) =  -747.721663392     A.U. after   18 cycles
 Normal termination of Gaussian 16 at Thu Dec 10 21:26:01 2020.

 ----------------------------------------------------------------------
 # B3LYP/6-311++G(d,p) empiricaldispersion=gd3bj scf=xqc pop=npa geom=c
 heck
 ----------------------------------------------------------------------

 -------------------------------------
 CID_150440834_JID_6106_Energie_kation
 -------------------------------------
 Structure from the checkpoint file:  "JID_6106.chk"
 Charge =  1 Multiplicity = 2

 SCF Done:  E(UB3LYP) =  -747.420276391     A.U. after   29 cycles
 Normal termination of Gaussian 16 at Thu Dec 10 21:32:14 2020.
 Gaussian 16:  ES64L-G16RevA.03 25-Dec-2016

 ----------------------------------------------------------------------
 # B3LYP/6-311++G(d,p) empiricaldispersion=gd3bj scf=xqc pop=npa geom=c
 heck
 ----------------------------------------------------------------------

 ------------------------------------
 CID_150440834_JID_6106_Energie_anion
 ------------------------------------
 Structure from the checkpoint file:  "JID_6106.chk"
 Charge = -1 Multiplicity = 2

                         Standard orientation:
 ---------------------------------------------------------------------
 Center     Atomic      Atomic             Coordinates (Angstroms)
 Number     Number       Type             X           Y           Z
 ---------------------------------------------------------------------
      1          6           0        4.654975   -0.922341    0.716768
      2          6           0        4.874168   -0.126174   -0.535565
      3          6           0        3.811906    0.311480    0.455374
      4          6           0        2.389392    0.154057    0.105152
      5          6           0        1.329417    0.953525    0.441541
      6          7           0        0.201652    0.350134   -0.123879
      7          6           0        0.655173   -0.778372   -0.784076
      8          7           0        1.948117   -0.919781   -0.659889
      9          6           0       -1.079612    0.877916   -0.097932
     10          6           0       -1.550775    2.179333   -0.085111
     11          7           0       -2.907536    2.156106   -0.020037
     12          7           0       -3.329921    0.920698   -0.004872
     13          7           0       -2.219786    0.136890   -0.035507
     14          7           0       -2.261811   -1.255342   -0.025788
     15          7           0       -3.418398   -1.681144    0.203979
     16          7           0       -4.385163   -2.249986    0.383715
     17          1           0        5.396247   -0.867341    1.508921
     18          1           0        4.151481   -1.879119    0.620362
     19          1           0        5.768329    0.485121   -0.617964
     20          1           0        4.517030   -0.551212   -1.468292
     21          1           0        4.032323    1.191532    1.053578
     22          1           0        1.244190    1.850641    1.034116
     23          1           0       -0.017011   -1.429723   -1.322360
     24          1           0       -0.990537    3.100542   -0.129320
 ---------------------------------------------------------------------

 SCF Done:  E(UB3LYP) =  -747.744920213     A.U. after   33 cycles
 SCF Done:  E(UB3LYP) =  -747.744920213     a.u. after    2 cycles

 The electronic state is 2-A.
 Alpha  occ. eigenvalues --  -14.31047 -14.29105 -14.26429 -14.24872 -14.23658
 Alpha  occ. eigenvalues --  -14.22006 -14.20353 -14.18970 -10.14780 -10.13275
 Alpha  occ. eigenvalues --  -10.10781 -10.10533 -10.10020 -10.08934 -10.08884
 Alpha  occ. eigenvalues --  -10.08839  -1.00820  -0.95674  -0.93124  -0.85440
 Alpha  occ. eigenvalues --   -0.81382  -0.77399  -0.74460  -0.69043  -0.66135
 Alpha  occ. eigenvalues --   -0.57120  -0.56266  -0.53500  -0.51770  -0.50981
 Alpha  occ. eigenvalues --   -0.48854  -0.45210  -0.42191  -0.40923  -0.38626
 Alpha  occ. eigenvalues --   -0.37567  -0.36324  -0.35296  -0.34920  -0.34383
 Alpha  occ. eigenvalues --   -0.32991  -0.31952  -0.28666  -0.28542  -0.28068
 Alpha  occ. eigenvalues --   -0.24738  -0.22913  -0.22183  -0.21668  -0.20684
 Alpha  occ. eigenvalues --   -0.20103  -0.18943  -0.15585  -0.14793  -0.12546
 Alpha  occ. eigenvalues --   -0.09370   0.04214
 Alpha virt. eigenvalues --    0.05369   0.07484   0.07980   0.08109   0.08873
 Alpha virt. eigenvalues --    0.10117   0.10493   0.11506   0.12037   0.12222
 Alpha virt. eigenvalues --    0.12980   0.13328   0.14577   0.14789   0.15188

  Beta  occ. eigenvalues --  -14.30781 -14.29101 -14.25731 -14.24867 -14.23667
  Beta  occ. eigenvalues --  -14.22016 -14.20347 -14.17974 -10.14780 -10.13263
  Beta  occ. eigenvalues --  -10.10778 -10.10535 -10.10015 -10.08922 -10.08880
  Beta  occ. eigenvalues --  -10.08835  -1.00440  -0.94614  -0.93101  -0.84861
  Beta  occ. eigenvalues --   -0.81313  -0.77372  -0.73999  -0.68981  -0.66122
  Beta  occ. eigenvalues --   -0.56800  -0.56128  -0.53303  -0.51756  -0.50679
  Beta  occ. eigenvalues --   -0.48829  -0.45185  -0.42133  -0.40848  -0.38468
  Beta  occ. eigenvalues --   -0.37529  -0.36034  -0.35214  -0.34768  -0.33702
  Beta  occ. eigenvalues --   -0.31555  -0.30711  -0.28639  -0.28527  -0.25820
  Beta  occ. eigenvalues --   -0.24718  -0.22639  -0.22130  -0.21420  -0.20269
  Beta  occ. eigenvalues --   -0.19202  -0.18553  -0.15095  -0.14698  -0.12524
  Beta  occ. eigenvalues --   -0.09070
  Beta virt. eigenvalues --    0.05703   0.07522   0.07969   0.08197   0.08805
  Beta virt. eigenvalues --    0.10112   0.10535   0.11413   0.11955   0.12240
  Beta virt. eigenvalues --    0.12866   0.13288   0.14325   0.14630   0.14765

 Mulliken charges and spin densities:
               1          2
     1  C   -0.245611  -0.268832
     2  C   -0.218418  -0.295365
     3  C   -0.219124   0.163248
     4  C   -0.130540  -0.073135
     5  C    0.023001  -0.173883
     6  N    0.136033  -0.020643
     7  C    0.221706  -0.010613
     8  N   -0.124495   0.016273
     9  C   -0.333419  -0.021243
    10  C   -0.102712   0.016953
    11  N   -0.168677  -0.003432
    12  N   -0.075974   0.038259
    13  N    0.166518  -0.000065
    14  N   -0.194998   0.119844
    15  N    0.273308   0.136618
    16  N   -0.520397   0.544510
    17  H    0.026226   0.099382
    18  H    0.157913   0.015638
    19  H    0.003995   0.123531
    20  H    0.158713   0.009375
    21  H   -0.106923   0.341694
    22  H    0.118310   0.040934
    23  H    0.086452   0.120578
    24  H    0.069113   0.080376
 Sum of Mulliken charges =  -1.00000   1.00000

 Dipole moment (field-independent basis, Debye):
    X=              9.2928    Y=              3.0971    Z=             -0.6423  Tot=              9.8163
 Quadrupole moment (field-independent basis, Debye-Ang):
   XX=           -182.2570   YY=           -120.0032   ZZ=            -99.9062
   XY=             -8.0651   XZ=              3.8228   YZ=              1.7310

 Summary of Natural Population Analysis:

                                       Natural Population
                Natural  -----------------------------------------------
    Atom  No    Charge         Core      Valence    Rydberg      Total
 -----------------------------------------------------------------------
      C    1   -0.19348      0.99963     2.18701    0.00683     3.19348
      C    2   -0.19674      0.99963     2.18863    0.00848     3.19674
      C    3   -0.12567      0.99956     2.11473    0.01138     3.12567
      C    4    0.05099      0.99953     1.93548    0.01401     2.94901
      C    5   -0.03208      0.99950     2.02360    0.00898     3.03208
      N    6   -0.20480      0.99963     2.69640    0.00877     3.70480
      C    7    0.12565      0.99965     1.85898    0.01571     2.87435
      N    8   -0.26401      0.99970     2.75451    0.00980     3.76401
      C    9    0.13932      0.99948     1.84889    0.01232     2.86068
      C   10   -0.05841      0.99958     2.04380    0.01502     3.05841
      N   11   -0.15001      0.99976     2.63447    0.01578     3.65001
      N   12   -0.05099      0.99977     2.53682    0.01439     3.55099
      N   13    0.00595      0.99960     2.47879    0.01566     3.49405
      N   14   -0.15424      0.99971     2.63767    0.01686     3.65424
      N   15    0.15822      0.99972     2.32688    0.01519     3.34178
      N   16    0.11567      0.99982     2.37056    0.01395     3.38433
      H   17    0.09821      0.00000     0.40053    0.00126     0.40179
      H   18    0.10976      0.00000     0.38893    0.00131     0.39024
      H   19    0.09861      0.00000     0.40046    0.00092     0.40139
      H   20    0.10933      0.00000     0.38959    0.00108     0.39067
      H   21    0.10686      0.00000     0.39218    0.00096     0.39314
      H   22    0.10562      0.00000     0.39322    0.00116     0.39438
      H   23    0.10797      0.00000     0.39059    0.00143     0.39203
      H   24    0.09827      0.00000     0.39990    0.00182     0.40173
 =======================================================================
   * Total *    0.00000     15.99428    39.79264    0.21308    56.00000

 Normal termination of Gaussian 16 at Thu Dec 10 21:48:54 2020.
