 Gaussian 16, Revision A.03,

 -----------------------------------------------------------
 # opt freq B3LYP/6-31G(d) empiricaldispersion=gd3bj scf=xqc
 -----------------------------------------------------------

 ------------------------------
 CID_85722428_JID_6509_neutraal
 ------------------------------
 Symbolic Z-matrix:
 Charge =  0 Multiplicity = 1

 SCF Done:  E(RB3LYP) =  -760.113625739     A.U. after   17 cycles
 SCF Done:  E(RB3LYP) =  -760.118559307     A.U. after   14 cycles
 SCF Done:  E(RB3LYP) =  -760.117952336     A.U. after   14 cycles
 SCF Done:  E(RB3LYP) =  -760.120613309     A.U. after   14 cycles
 SCF Done:  E(RB3LYP) =  -760.121555813     A.U. after   14 cycles
 SCF Done:  E(RB3LYP) =  -760.122447232     A.U. after   16 cycles
 SCF Done:  E(RB3LYP) =  -760.122724078     A.U. after   14 cycles
 SCF Done:  E(RB3LYP) =  -760.122887473     A.U. after   12 cycles
 SCF Done:  E(RB3LYP) =  -760.122913839     A.U. after   12 cycles
 SCF Done:  E(RB3LYP) =  -760.122923048     A.U. after   11 cycles
 SCF Done:  E(RB3LYP) =  -760.122926397     A.U. after    9 cycles
 SCF Done:  E(RB3LYP) =  -760.122928024     A.U. after    9 cycles
 SCF Done:  E(RB3LYP) =  -760.122928278     A.U. after    8 cycles
 SCF Done:  E(RB3LYP) =  -760.122928331     A.U. after    7 cycles
 SCF Done:  E(RB3LYP) =  -760.122928352     A.U. after    8 cycles
 Optimization completed.
    -- Stationary point found.
 Normal termination of Gaussian 16 at Thu Dec 10 23:19:06 2020.

 --------------------------------------------------------------------
 #N Geom=AllCheck Guess=TCheck SCRF=Check GenChk RB3LYP/6-31G(d) Freq
 --------------------------------------------------------------------

 Structure from the checkpoint file:  "JID_6509.chk"
 ------------------------------
 CID_85722428_JID_6509_neutraal
 ------------------------------
 Charge =  0 Multiplicity = 1

 SCF Done:  E(RB3LYP) =  -760.122928352     A.U. after    1 cycles

  Exact polarizability: 152.715  -3.483 172.429  20.592   2.576  98.214
 Approx polarizability: 212.004 -13.773 287.621  48.179   6.548 173.841

                      1                      2                      3
                      A                      A                      A
 Frequencies --     29.9811                51.5915                55.3556
 Red. masses --      3.9694                 4.8886                 4.2537
 Frc consts  --      0.0021                 0.0077                 0.0077
 IR Inten    --      0.1311                 0.5568                 1.2791

                      4                      5                      6
                      A                      A                      A
 Frequencies --     68.3317                79.8894               112.9161
 Red. masses --      6.6759                 3.8569                 4.9591
 Frc consts  --      0.0184                 0.0145                 0.0373
 IR Inten    --      1.7435                 0.8836                 1.8201

                      7                      8                      9
                      A                      A                      A
 Frequencies --    177.9722               184.7801               201.8446
 Red. masses --      2.0812                 1.7231                 1.4200
 Frc consts  --      0.0388                 0.0347                 0.0341
 IR Inten    --     13.3666                12.2576                 0.4788

                     10                     11                     12
                      A                      A                      A
 Frequencies --    222.4153               247.8256               263.5148
 Red. masses --      3.2657                 5.1061                 3.5817
 Frc consts  --      0.0952                 0.1848                 0.1465
 IR Inten    --      3.7154                 2.3267                 1.2675

                     13                     14                     15
                      A                      A                      A
 Frequencies --    275.7752               317.1939               327.1644
 Red. masses --      1.6450                 2.6853                 3.1038
 Frc consts  --      0.0737                 0.1592                 0.1957
 IR Inten    --     37.6808                 2.6245                 5.2028

                     16                     17                     18
                      A                      A                      A
 Frequencies --    342.5900               384.0759               388.2870
 Red. masses --      3.7868                 2.0292                 1.4135
 Frc consts  --      0.2619                 0.1764                 0.1256
 IR Inten    --      5.9088                93.7841               170.5971

                     19                     20                     21
                      A                      A                      A
 Frequencies --    419.8013               455.0551               487.4058
 Red. masses --      2.1436                 3.3459                 1.2457
 Frc consts  --      0.2226                 0.4082                 0.1744
 IR Inten    --      5.0059                 9.0309               124.8474

                     22                     23                     24
                      A                      A                      A
 Frequencies --    514.7647               531.9645               556.9804
 Red. masses --      2.6129                 4.6461                 3.6105
 Frc consts  --      0.4079                 0.7746                 0.6599
 IR Inten    --      5.1206                 3.1247                 5.3990

                     25                     26                     27
                      A                      A                      A
 Frequencies --    576.4002               627.7478               664.6988
 Red. masses --      4.1620                 4.9224                 4.9485
 Frc consts  --      0.8147                 1.1429                 1.2882
 IR Inten    --      1.2147                 3.1637                 4.5569

                     28                     29                     30
                      A                      A                      A
 Frequencies --    688.4865               741.5230               770.0774
 Red. masses --      3.2883                 3.4569                 2.0116
 Frc consts  --      0.9184                 1.1199                 0.7028
 IR Inten    --     10.8226                 0.6289                 1.8673

                     31                     32                     33
                      A                      A                      A
 Frequencies --    794.6887               815.4162               848.8248
 Red. masses --      3.4167                 3.1707                 1.5417
 Frc consts  --      1.2713                 1.2421                 0.6545
 IR Inten    --     11.6074                 1.7219                16.9233

                     34                     35                     36
                      A                      A                      A
 Frequencies --    853.3225               883.0184               919.5902
 Red. masses --      8.1436                 1.3194                 2.1669
 Frc consts  --      3.4937                 0.6061                 1.0796
 IR Inten    --     28.6629               143.5824                 0.9896

                     37                     38                     39
                      A                      A                      A
 Frequencies --    932.9095               975.8341              1005.7047
 Red. masses --      2.0917                 2.3591                 2.1240
 Frc consts  --      1.0726                 1.3236                 1.2657
 IR Inten    --      8.3195                 4.7119                 2.8845

                     40                     41                     42
                      A                      A                      A
 Frequencies --   1034.5078              1066.1841              1072.4599
 Red. masses --      2.2180                 1.5934                 1.5740
 Frc consts  --      1.3986                 1.0672                 1.0666
 IR Inten    --      5.4574                 4.8062                 4.0864

                     43                     44                     45
                      A                      A                      A
 Frequencies --   1078.5844              1090.2165              1110.6885
 Red. masses --      1.9145                 1.8546                 1.7881
 Frc consts  --      1.3122                 1.2988                 1.2996
 IR Inten    --      0.3937                 8.1334                 0.1684

                     46                     47                     48
                      A                      A                      A
 Frequencies --   1136.9563              1150.8933              1163.5608
 Red. masses --      2.3346                 5.2399                 1.3272
 Frc consts  --      1.7781                 4.0892                 1.0586
 IR Inten    --      1.4551                24.8984                 2.8554

                     49                     50                     51
                      A                      A                      A
 Frequencies --   1222.9718              1237.7138              1261.3755
 Red. masses --      1.2171                 1.5498                 1.4643
 Frc consts  --      1.0725                 1.3988                 1.3727
 IR Inten    --     12.4290                 0.2581                14.7602

                     52                     53                     54
                      A                      A                      A
 Frequencies --   1315.6108              1349.6722              1364.0368
 Red. masses --      1.2492                 4.0169                 1.5328
 Frc consts  --      1.2739                 4.3112                 1.6803
 IR Inten    --      8.2238                 0.8424                41.1949

                     55                     56                     57
                      A                      A                      A
 Frequencies --   1372.9698              1380.8284              1397.3343
 Red. masses --      1.3003                 1.9768                 2.3669
 Frc consts  --      1.4441                 2.2207                 2.7229
 IR Inten    --     28.8906                80.1480               211.5698

                     58                     59                     60
                      A                      A                      A
 Frequencies --   1406.2267              1419.2488              1444.7583
 Red. masses --      2.4497                 1.9465                 1.2313
 Frc consts  --      2.8541                 2.3101                 1.5142
 IR Inten    --     82.0284                 1.3148                 4.6526

                     61                     62                     63
                      A                      A                      A
 Frequencies --   1452.3164              1468.8353              1491.1494
 Red. masses --      1.4336                 3.2467                 2.3129
 Frc consts  --      1.7816                 4.1271                 3.0301
 IR Inten    --     10.5996                28.6969                 8.7766

                     64                     65                     66
                      A                      A                      A
 Frequencies --   1508.5574              1509.9297              1513.1011
 Red. masses --      1.1250                 1.1404                 1.1882
 Frc consts  --      1.5084                 1.5318                 1.6028
 IR Inten    --      4.4007                32.3709                10.5826

                     67                     68                     69
                      A                      A                      A
 Frequencies --   1522.0005              1535.3792              1552.1142
 Red. masses --      1.2182                 1.1092                 1.0867
 Frc consts  --      1.6626                 1.5406                 1.5424
 IR Inten    --     67.5116                 5.0894                10.7654

                     70                     71                     72
                      A                      A                      A
 Frequencies --   1600.5524              1629.5826              1648.2755
 Red. masses --      8.1570                 6.1771                 2.8026
 Frc consts  --     12.3117                 9.6647                 4.4862
 IR Inten    --     45.5635               216.7379               115.2717

                     73                     74                     75
                      A                      A                      A
 Frequencies --   1677.3503              1700.7671              2994.6442
 Red. masses --      1.8429                 1.0876                 1.0707
 Frc consts  --      3.0549                 1.8535                 5.6575
 IR Inten    --    442.8531                32.4375                40.9168

                     76                     77                     78
                      A                      A                      A
 Frequencies --   3041.8500              3059.0986              3070.7883
 Red. masses --      1.0639                 1.0656                 1.0907
 Frc consts  --      5.7998                 5.8751                 6.0598
 IR Inten    --     18.1106                16.9758                47.2510

                     79                     80                     81
                      A                      A                      A
 Frequencies --   3072.4913              3087.7716              3090.7594
 Red. masses --      1.0357                 1.0751                 1.0963
 Frc consts  --      5.7604                 6.0395                 6.1705
 IR Inten    --     13.9358                 6.3674                55.7170

                     82                     83                     84
                      A                      A                      A
 Frequencies --   3104.3392              3142.5032              3146.1427
 Red. masses --      1.0900                 1.1011                 1.1035
 Frc consts  --      6.1891                 6.4064                 6.4356
 IR Inten    --     44.2784                 6.6307                14.3085

                     85                     86                     87
                      A                      A                      A
 Frequencies --   3147.4681              3196.2458              3464.0330
 Red. masses --      1.1008                 1.0912                 1.0499
 Frc consts  --      6.4252                 6.5681                 7.4230
 IR Inten    --      5.5538                13.1532                 2.6258

                     88                     89                     90
                      A                      A                      A
 Frequencies --   3545.6547              3587.4578              3704.8787
 Red. masses --      1.0917                 1.0463                 1.1022
 Frc consts  --      8.0863                 7.9335                 8.9134
 IR Inten    --      1.5902                71.0101                30.0017

 - Thermochemistry -
 -------------------
 Temperature   298.150 Kelvin.  Pressure   1.00000 Atm.
 Atom     1 has atomic number  6 and mass  12.00000

 Molecular mass:   224.12733 amu.
 Principal axes and moments of inertia in atomic units:
                           1         2         3
     Eigenvalues --  2771.076094210.796336097.96188
           X            0.99955   0.02937   0.00684
           Y           -0.02936   0.99957  -0.00103
           Z           -0.00687   0.00083   0.99998
 This molecule is an asymmetric top.
 Rotational symmetry number  1.
 Warning -- assumption of classical behavior for rotation
           may cause significant error
 Rotational temperatures (Kelvin)      0.03126     0.02057     0.01420
 Rotational constants (GHZ):           0.65128     0.42860     0.29596
 Zero-point vibrational energy     706625.5 (Joules/Mol)
                                  168.88754 (Kcal/Mol)
 Warning -- explicit consideration of  25 degrees of freedom as
           vibrations may cause significant error
 Vibrational temperatures:     43.14    74.23    79.64    98.31   114.94
          (Kelvin)            162.46   256.06   265.86   290.41   320.01
                              356.57   379.14   396.78   456.37   470.72
                              492.91   552.60   558.66   604.00   654.72
                              701.27   740.63   765.38   801.37   829.31
                              903.19   956.35   990.58  1066.89  1107.97
                             1143.38  1173.20  1221.27  1227.74  1270.47
                             1323.09  1342.25  1404.01  1446.98  1488.43
                             1534.00  1543.03  1551.84  1568.58  1598.03
                             1635.83  1655.88  1674.10  1759.58  1780.79
                             1814.84  1892.87  1941.88  1962.54  1975.40
                             1986.70  2010.45  2023.25  2041.98  2078.69
                             2089.56  2113.33  2145.43  2170.48  2172.45
                             2177.02  2189.82  2209.07  2233.15  2302.84
                             2344.61  2371.50  2413.33  2447.02  4308.63
                             4376.54  4401.36  4418.18  4420.63  4442.61
                             4446.91  4466.45  4521.36  4526.60  4528.50
                             4598.68  4983.97  5101.41  5161.55  5330.49

 Zero-point correction=                           0.269139 (Hartree/Particle)
 Thermal correction to Energy=                    0.285308
 Thermal correction to Enthalpy=                  0.286252
 Thermal correction to Gibbs Free Energy=         0.224860
 Sum of electronic and zero-point Energies=           -759.853789
 Sum of electronic and thermal Energies=              -759.837620
 Sum of electronic and thermal Enthalpies=            -759.836676
 Sum of electronic and thermal Free Energies=         -759.898068

                     E (Thermal)             CV                S
                      KCal/Mol        Cal/Mol-Kelvin    Cal/Mol-Kelvin
 Total                  179.034             60.682            129.211
 Electronic               0.000              0.000              0.000
 Translational            0.889              2.981             42.124
 Rotational               0.889              2.981             32.631
 Vibrational            177.256             54.720             54.456
 Vibration     1          0.594              1.984              5.831
 Vibration     2          0.596              1.977              4.755
 Vibration     3          0.596              1.975              4.616
 Vibration     4          0.598              1.969              4.201
 Vibration     5          0.600              1.963              3.894
 Vibration     6          0.607              1.939              3.218
 Vibration     7          0.628              1.869              2.350
 Vibration     8          0.631              1.861              2.280
 Vibration     9          0.639              1.837              2.116
 Vibration    10          0.648              1.807              1.939
 Vibration    11          0.661              1.766              1.746
 Vibration    12          0.670              1.740              1.638
 Vibration    13          0.677              1.718              1.560
 Vibration    14          0.704              1.641              1.325
 Vibration    15          0.711              1.621              1.274
 Vibration    16          0.722              1.590              1.200
 Vibration    17          0.753              1.504              1.023
 Vibration    18          0.756              1.495              1.007
 Vibration    19          0.782              1.427              0.893
 Vibration    20          0.813              1.350              0.781
 Vibration    21          0.843              1.278              0.690
 Vibration    22          0.870              1.217              0.622
 Vibration    23          0.887              1.179              0.583
 Vibration    24          0.912              1.124              0.530
 Vibration    25          0.933              1.082              0.492

 Optimization completed.
    -- Stationary point found.
 Normal termination of Gaussian 16 at Thu Dec 10 23:29:26 2020.

 ----------------------------------------------------------------------
 # B3LYP/6-311++G(d,p) empiricaldispersion=gd3bj scf=xqc pop=npa geom=c
 heck
 ----------------------------------------------------------------------

 --------------------------------------
 CID_85722428_JID_6509_Energie_neutraal
 --------------------------------------
 Structure from the checkpoint file:  "JID_6509.chk"
 Charge =  0 Multiplicity = 1

 SCF Done:  E(RB3LYP) =  -760.350736248     A.U. after   16 cycles
 Normal termination of Gaussian 16 at Thu Dec 10 23:33:44 2020.

 ----------------------------------------------------------------------
 # B3LYP/6-311++G(d,p) empiricaldispersion=gd3bj scf=xqc pop=npa geom=c
 heck
 ----------------------------------------------------------------------

 ------------------------------------
 CID_85722428_JID_6509_Energie_kation
 ------------------------------------
 Structure from the checkpoint file:  "JID_6509.chk"
 Charge =  1 Multiplicity = 2

 SCF Done:  E(UB3LYP) =  -760.048286859     A.U. after   33 cycles
 SCF Done:  E(UB3LYP) =  -760.048286863     a.u. after    2 cycles
 Normal termination of Gaussian 16 at Thu Dec 10 23:55:50 2020.
 Gaussian 16:  ES64L-G16RevA.03 25-Dec-2016

 ----------------------------------------------------------------------
 # B3LYP/6-311++G(d,p) empiricaldispersion=gd3bj scf=xqc pop=npa geom=c
 heck
 ----------------------------------------------------------------------

 -----------------------------------
 CID_85722428_JID_6509_Energie_anion
 -----------------------------------
 Structure from the checkpoint file:  "JID_6509.chk"
 Charge = -1 Multiplicity = 2

                         Standard orientation:
 ---------------------------------------------------------------------
 Center     Atomic      Atomic             Coordinates (Angstroms)
 Number     Number       Type             X           Y           Z
 ---------------------------------------------------------------------
      1          6           0        3.523349   -0.101943    0.858029
      2          6           0        2.219416    0.415289    0.307907
      3          6           0        1.993765    1.781712    0.268612
      4          6           0        0.779302    2.270896   -0.245691
      5          7           0       -0.187255    1.463553   -0.709416
      6          6           0        0.001857    0.139463   -0.705335
      7          6           0        1.197323   -0.413281   -0.206279
      8          7           0        1.391870   -1.857464   -0.206347
      9          8           0        1.933281   -2.363652    0.780716
     10          8           0        1.014801   -2.502764   -1.187318
     11          6           0       -1.180077   -0.673961   -1.181635
     12          6           0       -1.860569   -1.484042   -0.055672
     13          6           0       -2.288301   -0.656557    1.164942
     14          6           0       -3.232488    0.506920    0.848090
     15          7           0       -4.464734    0.025185    0.205018
     16          7           0        0.498011    3.612073   -0.264161
     17          1           0        3.955612   -0.880385    0.223431
     18          1           0        4.241120    0.718260    0.946323
     19          1           0        3.374917   -0.551176    1.843601
     20          1           0        2.750873    2.467979    0.635851
     21          1           0       -1.885376    0.044859   -1.607601
     22          1           0       -0.870657   -1.356923   -1.974603
     23          1           0       -2.738212   -1.983348   -0.484008
     24          1           0       -1.194002   -2.288990    0.271801
     25          1           0       -2.783923   -1.325777    1.878043
     26          1           0       -1.397818   -0.253797    1.665894
     27          1           0       -3.521246    0.985504    1.791629
     28          1           0       -2.689925    1.266084    0.261168
     29          1           0       -5.122095    0.798017    0.113096
     30          1           0       -4.257032   -0.269519   -0.748183
     31          1           0        1.262572    4.269828   -0.227964
     32          1           0       -0.296156    3.880320   -0.829126
 ---------------------------------------------------------------------

 SCF Done:  E(UB3LYP) =  -760.375924635     A.U. after   29 cycles

 The electronic state is 2-A.
 Alpha  occ. eigenvalues --  -18.92986 -18.92978 -14.30099 -14.20824 -14.19608
 Alpha  occ. eigenvalues --  -14.17008 -10.10607 -10.07991 -10.07436 -10.06473
 Alpha  occ. eigenvalues --  -10.05897 -10.04508 -10.04442 -10.04334 -10.03976
 Alpha  occ. eigenvalues --  -10.03454  -1.01127  -0.84178  -0.83822  -0.78268
 Alpha  occ. eigenvalues --   -0.77367  -0.69391  -0.67185  -0.63438  -0.59409
 Alpha  occ. eigenvalues --   -0.58562  -0.54335  -0.51280  -0.47752  -0.45089
 Alpha  occ. eigenvalues --   -0.43948  -0.41481  -0.39419  -0.38407  -0.36428
 Alpha  occ. eigenvalues --   -0.35750  -0.35655  -0.32985  -0.32010  -0.31155
 Alpha  occ. eigenvalues --   -0.30507  -0.29934  -0.29235  -0.28458  -0.27729
 Alpha  occ. eigenvalues --   -0.27155  -0.26216  -0.25503  -0.24277  -0.21920
 Alpha  occ. eigenvalues --   -0.21239  -0.20246  -0.18501  -0.15074  -0.14306
 Alpha  occ. eigenvalues --   -0.13798  -0.12504  -0.10831  -0.10415  -0.07956
 Alpha  occ. eigenvalues --    0.04028
 Alpha virt. eigenvalues --    0.06695   0.07362   0.09054   0.09529   0.10107
 Alpha virt. eigenvalues --    0.10554   0.11034   0.12016   0.12878   0.12971
 Alpha virt. eigenvalues --    0.13139   0.13827   0.13920   0.14680   0.14934

  Beta  occ. eigenvalues --  -18.92461 -18.92430 -14.29286 -14.20768 -14.19607
  Beta  occ. eigenvalues --  -14.17107 -10.10350 -10.07990 -10.07239 -10.06341
  Beta  occ. eigenvalues --  -10.05910 -10.04514 -10.04507 -10.04344 -10.03957
  Beta  occ. eigenvalues --  -10.03469  -0.99868  -0.83983  -0.82803  -0.78264
  Beta  occ. eigenvalues --   -0.77245  -0.69207  -0.67100  -0.63130  -0.59178
  Beta  occ. eigenvalues --   -0.58528  -0.53991  -0.50937  -0.47584  -0.44453
  Beta  occ. eigenvalues --   -0.43896  -0.41263  -0.39409  -0.38274  -0.36372
  Beta  occ. eigenvalues --   -0.35249  -0.34915  -0.32160  -0.31441  -0.30637
  Beta  occ. eigenvalues --   -0.29926  -0.29378  -0.28362  -0.27855  -0.27517
  Beta  occ. eigenvalues --   -0.26907  -0.26127  -0.25401  -0.24205  -0.21754
  Beta  occ. eigenvalues --   -0.21188  -0.20191  -0.18089  -0.15003  -0.14209
  Beta  occ. eigenvalues --   -0.13764  -0.10402  -0.09952  -0.08825  -0.07205
  Beta virt. eigenvalues --    0.06695   0.07310   0.08980   0.09531   0.10241
  Beta virt. eigenvalues --    0.10516   0.11045   0.11323   0.12012   0.12931
  Beta virt. eigenvalues --    0.12940   0.13576   0.13871   0.14641   0.14798

 Mulliken charges and spin densities:
               1          2
     1  C   -0.308076  -0.008759
     2  C    0.548715   0.162417
     3  C   -0.431512  -0.162362
     4  C   -0.000877   0.120444
     5  N    0.021254  -0.061551
     6  C    0.363390   0.152897
     7  C   -1.230648  -0.038099
     8  N   -0.260152   0.271062
     9  O   -0.160105   0.211066
    10  O   -0.173728   0.195205
    11  C   -0.161016   0.000911
    12  C   -0.389734  -0.068136
    13  C   -0.088692   0.031195
    14  C   -0.641456  -0.013896
    15  N   -0.373550   0.000525
    16  N   -0.344796   0.028895
    17  H    0.185073   0.005862
    18  H    0.067890   0.016060
    19  H    0.203797   0.005396
    20  H    0.106134   0.012546
    21  H    0.156809   0.004676
    22  H    0.220526   0.006202
    23  H    0.127671   0.016091
    24  H    0.140560   0.041898
    25  H    0.146351  -0.000107
    26  H    0.138400   0.006671
    27  H    0.114281   0.003256
    28  H    0.170447   0.011039
    29  H    0.215790   0.002134
    30  H    0.208000   0.002275
    31  H    0.190565   0.037928
    32  H    0.238688   0.006260
 Sum of Mulliken charges =  -1.00000   1.00000

 Dipole moment (field-independent basis, Debye):
    X=             -2.7198    Y=              8.2344    Z=              0.0932  Tot=              8.6725
 Quadrupole moment (field-independent basis, Debye-Ang):
   XX=           -121.5005   YY=           -127.8575   ZZ=           -108.8853
   XY=              9.0027   XZ=              4.2327   YZ=             -2.1418

 Summary of Natural Population Analysis:

                                       Natural Population
                Natural  -----------------------------------------------
    Atom  No    Charge         Core      Valence    Rydberg      Total
 -----------------------------------------------------------------------
      C    1   -0.29521      0.99963     2.29028    0.00530     3.29521
      C    2    0.04034      0.99949     1.95234    0.00782     2.95966
      C    3   -0.17272      0.99948     2.16560    0.00764     3.17272
      C    4    0.23608      0.99956     1.75126    0.01311     2.76392
      N    5   -0.29906      0.99965     2.78606    0.01336     3.79906
      C    6    0.15691      0.99951     1.82677    0.01680     2.84309
      C    7    0.00450      0.99932     1.98117    0.01502     2.99550
      N    8    0.32410      0.99971     2.14972    0.02647     3.17590
      O    9   -0.19220      0.99990     3.18446    0.00784     4.19220
      O   10   -0.19998      0.99990     3.19168    0.00840     4.19998
      C   11   -0.20977      0.99960     2.20233    0.00784     3.20977
      C   12   -0.18900      0.99962     2.18144    0.00793     3.18900
      C   13   -0.19362      0.99963     2.18654    0.00746     3.19362
      C   14   -0.09648      0.99964     2.08722    0.00962     3.09648
      N   15   -0.42619      0.99977     2.91634    0.01007     3.92619
      N   16   -0.39452      0.99971     2.88585    0.00897     3.89452
      H   17    0.11254      0.00000     0.38634    0.00112     0.38746
      H   18    0.08688      0.00000     0.41199    0.00113     0.41312
      H   19    0.11612      0.00000     0.38281    0.00107     0.38388
      H   20    0.09209      0.00000     0.40637    0.00154     0.40791
      H   21    0.09332      0.00000     0.40541    0.00127     0.40668
      H   22    0.12336      0.00000     0.37564    0.00100     0.37664
      H   23    0.08832      0.00000     0.40986    0.00182     0.41168
      H   24    0.11175      0.00000     0.38632    0.00193     0.38825
      H   25    0.09445      0.00000     0.40444    0.00112     0.40555
      H   26    0.10290      0.00000     0.39614    0.00095     0.39710
      H   27    0.08269      0.00000     0.41609    0.00122     0.41731
      H   28    0.09177      0.00000     0.40687    0.00136     0.40823
      H   29    0.16784      0.00000     0.33060    0.00156     0.33216
      H   30    0.17159      0.00000     0.32677    0.00163     0.32841
      H   31    0.18200      0.00000     0.31637    0.00163     0.31800
      H   32    0.18920      0.00000     0.30942    0.00139     0.31080
 =======================================================================
   * Total *    0.00000     15.99411    43.81049    0.19540    60.00000

 Normal termination of Gaussian 16 at Fri Dec 11 00:06:27 2020.
