 Gaussian 16, Revision A.03,

 -----------------------------------------------------------
 # opt freq B3LYP/6-31G(d) empiricaldispersion=gd3bj scf=xqc
 -----------------------------------------------------------

 ------------------------------
 CID_43279830_JID_8138_neutraal
 ------------------------------
 Symbolic Z-matrix:
 Charge =  0 Multiplicity = 1

 SCF Done:  E(RB3LYP) =  -751.173308203     A.U. after   14 cycles
 SCF Done:  E(RB3LYP) =  -751.177004490     A.U. after   12 cycles
 SCF Done:  E(RB3LYP) =  -751.177746812     A.U. after   12 cycles
 SCF Done:  E(RB3LYP) =  -751.178192792     A.U. after   12 cycles
 SCF Done:  E(RB3LYP) =  -751.178463403     A.U. after   12 cycles
 SCF Done:  E(RB3LYP) =  -751.178544010     A.U. after   11 cycles
 SCF Done:  E(RB3LYP) =  -751.178580071     A.U. after   10 cycles
 SCF Done:  E(RB3LYP) =  -751.178589473     A.U. after   10 cycles
 SCF Done:  E(RB3LYP) =  -751.178596213     A.U. after   10 cycles
 SCF Done:  E(RB3LYP) =  -751.178598923     A.U. after    9 cycles
 SCF Done:  E(RB3LYP) =  -751.178599134     A.U. after    7 cycles
 SCF Done:  E(RB3LYP) =  -751.178599207     A.U. after    7 cycles
 SCF Done:  E(RB3LYP) =  -751.178599220     A.U. after    6 cycles
 SCF Done:  E(RB3LYP) =  -751.178599228     A.U. after    6 cycles
 Optimization completed.
    -- Stationary point found.
 Normal termination of Gaussian 16 at Fri Dec 11 18:55:41 2020.

 --------------------------------------------------------------------
 #N Geom=AllCheck Guess=TCheck SCRF=Check GenChk RB3LYP/6-31G(d) Freq
 --------------------------------------------------------------------

 Structure from the checkpoint file:  "JID_8138.chk"
 ------------------------------
 CID_43279830_JID_8138_neutraal
 ------------------------------
 Charge =  0 Multiplicity = 1

 SCF Done:  E(RB3LYP) =  -751.178599228     A.U. after    1 cycles

  Exact polarizability: 218.762   3.281 146.730 -18.930  -3.277 145.975
 Approx polarizability: 286.177  13.269 230.646 -35.920  -2.609 259.520

                      1                      2                      3
                      A                      A                      A
 Frequencies --     17.5574                21.2692                33.7969
 Red. masses --      3.8247                 4.1763                 3.7901
 Frc consts  --      0.0007                 0.0011                 0.0026
 IR Inten    --      0.0604                 0.0263                 0.1673

                      4                      5                      6
                      A                      A                      A
 Frequencies --     45.4421                91.9139               146.0031
 Red. masses --      4.9053                 2.9667                 2.7176
 Frc consts  --      0.0060                 0.0148                 0.0341
 IR Inten    --      0.1361                 0.4583                 0.4595

                      7                      8                      9
                      A                      A                      A
 Frequencies --    148.0603               161.7395               195.1881
 Red. masses --      2.6020                 4.1323                 4.3876
 Frc consts  --      0.0336                 0.0637                 0.0985
 IR Inten    --      1.8384                 2.2477                 0.2466

                     10                     11                     12
                      A                      A                      A
 Frequencies --    216.4827               236.3068               260.2361
 Red. masses --      1.9634                 1.1223                 2.3938
 Frc consts  --      0.0542                 0.0369                 0.0955
 IR Inten    --      1.7420                 0.3418                 0.5717

                     13                     14                     15
                      A                      A                      A
 Frequencies --    270.2903               286.9548               316.1371
 Red. masses --      2.5557                 2.8775                 2.5542
 Frc consts  --      0.1100                 0.1396                 0.1504
 IR Inten    --      1.1553                 1.8843                 5.5430

                     16                     17                     18
                      A                      A                      A
 Frequencies --    341.9113               415.6203               418.9359
 Red. masses --      3.2482                 3.0224                 4.0094
 Frc consts  --      0.2237                 0.3076                 0.4146
 IR Inten    --      2.2683                 0.4828                 1.3149

                     19                     20                     21
                      A                      A                      A
 Frequencies --    460.5708               473.9938               494.7849
 Red. masses --      3.2212                 3.1568                 3.3631
 Frc consts  --      0.4026                 0.4179                 0.4851
 IR Inten    --      3.7464                 2.3292                 3.9873

                     22                     23                     24
                      A                      A                      A
 Frequencies --    504.9599               565.7428               608.5367
 Red. masses --      5.1000                 5.1467                 3.2060
 Frc consts  --      0.7662                 0.9705                 0.6995
 IR Inten    --      1.7862                 2.5086                 4.8609

                     25                     26                     27
                      A                      A                      A
 Frequencies --    635.4150               645.5895               647.8158
 Red. masses --      6.1760                 4.2148                 4.1716
 Frc consts  --      1.4692                 1.0350                 1.0315
 IR Inten    --      0.7349                 3.2512                15.8006

                     28                     29                     30
                      A                      A                      A
 Frequencies --    710.5763               713.0470               723.8914
 Red. masses --      2.2274                 2.1767                 3.4803
 Frc consts  --      0.6626                 0.6521                 1.0745
 IR Inten    --     13.1665                33.9573                13.0274

                     31                     32                     33
                      A                      A                      A
 Frequencies --    749.8556               787.3100               791.1529
 Red. masses --      1.4499                 2.2264                 1.5128
 Frc consts  --      0.4803                 0.8131                 0.5579
 IR Inten    --     28.7707               139.3541                49.2242

                     34                     35                     36
                      A                      A                      A
 Frequencies --    821.0305               863.8929               874.9252
 Red. masses --      4.1767                 1.2506                 1.5334
 Frc consts  --      1.6588                 0.5499                 0.6916
 IR Inten    --      2.5214                 0.3667                 1.5310

                     37                     38                     39
                      A                      A                      A
 Frequencies --    882.5157               892.2250               919.2973
 Red. masses --      1.8860                 1.4913                 1.3398
 Frc consts  --      0.8654                 0.6995                 0.6671
 IR Inten    --      6.0590                14.3952                 1.3705

                     40                     41                     42
                      A                      A                      A
 Frequencies --    929.3694               960.2632               971.0651
 Red. masses --      1.8995                 1.2564                 1.3428
 Frc consts  --      0.9666                 0.6826                 0.7460
 IR Inten    --     10.4507                 0.6584                 0.1115

                     43                     44                     45
                      A                      A                      A
 Frequencies --    997.5958              1017.1114              1021.4872
 Red. masses --      1.2531                 3.7357                 2.2300
 Frc consts  --      0.7348                 2.2770                 1.3709
 IR Inten    --      0.8420                 4.4035                 4.3492

                     46                     47                     48
                      A                      A                      A
 Frequencies --   1021.7035              1046.5034              1059.2177
 Red. masses --      4.2343                 1.9654                 2.2754
 Frc consts  --      2.6042                 1.2682                 1.5041
 IR Inten    --      4.6121                 0.7997                16.2339

                     49                     50                     51
                      A                      A                      A
 Frequencies --   1072.6216              1084.6524              1093.8642
 Red. masses --      1.7749                 2.1709                 2.7525
 Frc consts  --      1.2032                 1.5047                 1.9405
 IR Inten    --     50.9636                17.4246                36.1194

                     52                     53                     54
                      A                      A                      A
 Frequencies --   1121.1433              1136.7013              1158.4200
 Red. masses --      1.6679                 1.6145                 2.9443
 Frc consts  --      1.2352                 1.2291                 2.3279
 IR Inten    --     12.6142                 6.1332                39.3234

                     55                     56                     57
                      A                      A                      A
 Frequencies --   1172.5019              1184.3964              1194.2110
 Red. masses --      1.4980                 1.6672                 1.1006
 Frc consts  --      1.2134                 1.3780                 0.9248
 IR Inten    --     21.4239                33.2354                 0.0835

                     58                     59                     60
                      A                      A                      A
 Frequencies --   1210.9471              1211.2819              1231.9302
 Red. masses --      1.1741                 1.1363                 2.7949
 Frc consts  --      1.0144                 0.9823                 2.4991
 IR Inten    --      2.7750                 1.9842                 2.5416

                     61                     62                     63
                      A                      A                      A
 Frequencies --   1251.1235              1281.0151              1302.3487
 Red. masses --      2.1925                 2.0956                 1.8612
 Frc consts  --      2.0220                 2.0261                 1.8600
 IR Inten    --     11.9343               143.0716                65.8454

                     64                     65                     66
                      A                      A                      A
 Frequencies --   1323.4079              1351.4778              1358.4818
 Red. masses --      1.6837                 1.9824                 1.4020
 Frc consts  --      1.7374                 2.1333                 1.5244
 IR Inten    --     61.9488                16.7100                10.9473

                     67                     68                     69
                      A                      A                      A
 Frequencies --   1367.8093              1371.5014              1387.8617
 Red. masses --      2.0850                 1.8144                 1.9611
 Frc consts  --      2.2983                 2.0109                 2.2256
 IR Inten    --      1.0275                12.1361                37.3892

                     70                     71                     72
                      A                      A                      A
 Frequencies --   1421.8860              1431.4912              1480.3814
 Red. masses --      1.4121                 1.2539                 1.1805
 Frc consts  --      1.6821                 1.5139                 1.5243
 IR Inten    --     19.7031                 4.2782                 1.5663

                     73                     74                     75
                      A                      A                      A
 Frequencies --   1498.6117              1502.9859              1504.7637
 Red. masses --      2.2832                 1.2979                 2.0666
 Frc consts  --      3.0212                 1.7274                 2.7571
 IR Inten    --     34.6387                23.8023                 6.4885

                     76                     77                     78
                      A                      A                      A
 Frequencies --   1517.8539              1521.7814              1523.8960
 Red. masses --      1.0596                 1.1331                 1.0526
 Frc consts  --      1.4383                 1.5461                 1.4402
 IR Inten    --      5.1221                 5.7570                12.6616

                     79                     80                     81
                      A                      A                      A
 Frequencies --   1530.0006              1541.5695              1548.8290
 Red. masses --      1.1069                 2.1767                 2.1664
 Frc consts  --      1.5267                 3.0477                 3.0619
 IR Inten    --      6.7975                57.6161                 7.4844

                     82                     83                     84
                      A                      A                      A
 Frequencies --   1549.5429              1644.5131              1650.3527
 Red. masses --      1.0652                 5.6134                 5.6032
 Frc consts  --      1.5069                 8.9444                 8.9916
 IR Inten    --      6.3076                63.9566                 2.2273

                     85                     86                     87
                      A                      A                      A
 Frequencies --   1669.1416              1671.0168              2991.2128
 Red. masses --      5.7156                 5.9502                 1.0529
 Frc consts  --      9.3821                 9.7891                 5.5506
 IR Inten    --     26.1417                50.2704                57.2180

                     88                     89                     90
                      A                      A                      A
 Frequencies --   3033.7039              3034.6762              3051.0514
 Red. masses --      1.0651                 1.0840                 1.0375
 Frc consts  --      5.7756                 5.8815                 5.6906
 IR Inten    --     40.8013                18.6087                22.6927

                     91                     92                     93
                      A                      A                      A
 Frequencies --   3075.7774              3091.5755              3117.6659
 Red. masses --      1.0815                 1.0991                 1.0987
 Frc consts  --      6.0284                 6.1895                 6.2920
 IR Inten    --     49.7722                22.9562                28.5955

                     94                     95                     96
                      A                      A                      A
 Frequencies --   3118.5811              3139.8110              3170.9167
 Red. masses --      1.1023                 1.1040                 1.0874
 Frc consts  --      6.3165                 6.4125                 6.4420
 IR Inten    --     37.8778                30.5680                10.1939

                     97                     98                     99
                      A                      A                      A
 Frequencies --   3175.8882              3186.1325              3194.2937
 Red. masses --      1.0862                 1.0865                 1.0907
 Frc consts  --      6.4549                 6.4983                 6.5567
 IR Inten    --      8.6096                 0.6067                22.1487

                    100                    101                    102
                      A                      A                      A
 Frequencies --   3196.1896              3196.3991              3208.5691
 Red. masses --      1.0929                 1.0912                 1.0951
 Frc consts  --      6.5777                 6.5685                 6.6423
 IR Inten    --      9.5710                24.0889                30.8516

                    103                    104                    105
                      A                      A                      A
 Frequencies --   3217.6722              3241.3544              3482.5156
 Red. masses --      1.0948                 1.0915                 1.0735
 Frc consts  --      6.6781                 6.7568                 7.6705
 IR Inten    --      7.8002                 7.3106                 1.5548

 - Thermochemistry -
 -------------------
 Temperature   298.150 Kelvin.  Pressure   1.00000 Atm.
 Atom     1 has atomic number  6 and mass  12.00000

 Molecular mass:   241.14666 amu.
 Principal axes and moments of inertia in atomic units:
                           1         2         3
     Eigenvalues --  1730.093899957.06792**********
           X            0.99999   0.00127  -0.00323
           Y           -0.00141   0.99898  -0.04516
           Z            0.00317   0.04516   0.99897
 This molecule is an asymmetric top.
 Rotational symmetry number  1.
 Warning -- assumption of classical behavior for rotation
           may cause significant error
 Rotational temperatures (Kelvin)      0.05006     0.00870     0.00842
 Rotational constants (GHZ):           1.04315     0.18125     0.17536
 Zero-point vibrational energy     833890.4 (Joules/Mol)
                                  199.30460 (Kcal/Mol)
 Warning -- explicit consideration of  24 degrees of freedom as
           vibrations may cause significant error
 Vibrational temperatures:     25.26    30.60    48.63    65.38   132.24
          (Kelvin)            210.07   213.03   232.71   280.83   311.47
                              339.99   374.42   388.89   412.86   454.85
                              491.93   597.98   602.76   662.66   681.97
                              711.89   726.52   813.98   875.55   914.22
                              928.86   932.06  1022.36  1025.92  1041.52
                             1078.87  1132.76  1138.29  1181.28  1242.95
                             1258.82  1269.74  1283.71  1322.66  1337.16
                             1381.60  1397.15  1435.32  1463.40  1469.69
                             1470.00  1505.68  1523.98  1543.26  1560.57
                             1573.83  1613.08  1635.46  1666.71  1686.97
                             1704.08  1718.20  1742.28  1742.76  1772.47
                             1800.09  1843.10  1873.79  1904.09  1944.48
                             1954.55  1967.97  1973.28  1996.82  2045.78
                             2059.60  2129.94  2156.17  2162.46  2165.02
                             2183.85  2189.50  2192.55  2201.33  2217.97
                             2228.42  2229.45  2366.09  2374.49  2401.52
                             2404.22  4303.69  4364.82  4366.22  4389.78
                             4425.36  4448.09  4485.63  4486.94  4517.49
                             4562.24  4569.39  4584.13  4595.88  4598.60
                             4598.91  4616.42  4629.51  4663.59  5010.56

 Zero-point correction=                           0.317612 (Hartree/Particle)
 Thermal correction to Energy=                    0.334333
 Thermal correction to Enthalpy=                  0.335278
 Thermal correction to Gibbs Free Energy=         0.270776
 Sum of electronic and zero-point Energies=           -750.860987
 Sum of electronic and thermal Energies=              -750.844266
 Sum of electronic and thermal Enthalpies=            -750.843322
 Sum of electronic and thermal Free Energies=         -750.907823

                     E (Thermal)             CV                S
                      KCal/Mol        Cal/Mol-Kelvin    Cal/Mol-Kelvin
 Total                  209.797             64.632            135.755
 Electronic               0.000              0.000              0.000
 Translational            0.889              2.981             42.342
 Rotational               0.889              2.981             33.538
 Vibrational            208.020             58.671             59.875
 Vibration     1          0.593              1.986              6.893
 Vibration     2          0.593              1.985              6.512
 Vibration     3          0.594              1.983              5.593
 Vibration     4          0.595              1.979              5.006
 Vibration     5          0.602              1.955              3.619
 Vibration     6          0.617              1.907              2.724
 Vibration     7          0.617              1.905              2.697
 Vibration     8          0.622              1.889              2.529
 Vibration     9          0.636              1.847              2.178
 Vibration    10          0.645              1.816              1.988
 Vibration    11          0.655              1.785              1.831
 Vibration    12          0.668              1.745              1.660
 Vibration    13          0.674              1.728              1.594
 Vibration    14          0.684              1.698              1.492
 Vibration    15          0.703              1.643              1.330
 Vibration    16          0.721              1.592              1.203
 Vibration    17          0.779              1.436              0.907
 Vibration    18          0.782              1.429              0.896
 Vibration    19          0.818              1.338              0.764
 Vibration    20          0.831              1.308              0.726
 Vibration    21          0.850              1.262              0.671
 Vibration    22          0.860              1.239              0.646
 Vibration    23          0.922              1.105              0.512
 Vibration    24          0.967              1.014              0.435

                           ! Non-Optimized Parameters !
 Normal termination of Gaussian 16 at Fri Dec 11 19:12:23 2020.

 ----------------------------------------------------------------------
 # B3LYP/6-311++G(d,p) empiricaldispersion=gd3bj scf=xqc pop=npa geom=c
 heck
 ----------------------------------------------------------------------

 --------------------------------------
 CID_43279830_JID_8138_Energie_neutraal
 --------------------------------------
 Structure from the checkpoint file:  "JID_8138.chk"
 Charge =  0 Multiplicity = 1

 SCF Done:  E(RB3LYP) =  -751.380766651     A.U. after   15 cycles
 Normal termination of Gaussian 16 at Fri Dec 11 19:20:07 2020.

 ----------------------------------------------------------------------
 # B3LYP/6-311++G(d,p) empiricaldispersion=gd3bj scf=xqc pop=npa geom=c
 heck
 ----------------------------------------------------------------------

 ------------------------------------
 CID_43279830_JID_8138_Energie_kation
 ------------------------------------
 Structure from the checkpoint file:  "JID_8138.chk"
 Charge =  1 Multiplicity = 2

 SCF Done:  E(UB3LYP) =  -751.097554378     A.U. after   27 cycles
 Normal termination of Gaussian 16 at Fri Dec 11 19:40:01 2020.
 Gaussian 16:  ES64L-G16RevA.03 25-Dec-2016

 ----------------------------------------------------------------------
 # B3LYP/6-311++G(d,p) empiricaldispersion=gd3bj scf=xqc pop=npa geom=c
 heck
 ----------------------------------------------------------------------

 -----------------------------------
 CID_43279830_JID_8138_Energie_anion
 -----------------------------------
 Structure from the checkpoint file:  "JID_8138.chk"
 Charge = -1 Multiplicity = 2

                         Standard orientation:
 ---------------------------------------------------------------------
 Center     Atomic      Atomic             Coordinates (Angstroms)
 Number     Number       Type             X           Y           Z
 ---------------------------------------------------------------------
      1          6           0       -3.871941   -2.183932    0.498689
      2          6           0       -3.687446   -0.663713    0.550371
      3          6           0       -2.332266   -0.252969   -0.021940
      4          6           0       -1.354105    0.292151    0.803998
      5          6           0       -0.106260    0.671861    0.292470
      6          6           0        0.172037    0.506679   -1.066543
      7          6           0       -0.815907   -0.033176   -1.895875
      8          6           0       -2.054008   -0.409729   -1.388419
      9          8           0        0.763080    1.201255    1.210460
     10          6           0        2.018435    1.690119    0.753250
     11          6           0        3.000877    0.601126    0.375900
     12          6           0        2.940911   -0.655581    0.984866
     13          6           0        3.871155   -1.640792    0.656875
     14          6           0        4.874543   -1.377964   -0.277554
     15          6           0        4.939502   -0.124684   -0.887486
     16          6           0        4.002889    0.857512   -0.564641
     17          7           0       -4.841760   -0.021990   -0.086994
     18          6           0       -4.800080    1.436786   -0.060916
     19          1           0       -3.859122   -2.542735   -0.537896
     20          1           0       -4.831478   -2.460313    0.945972
     21          1           0       -3.063287   -2.691761    1.033472
     22          1           0       -3.707171   -0.351279    1.603326
     23          1           0       -1.541547    0.439381    1.864040
     24          1           0        1.138568    0.766665   -1.478615
     25          1           0       -0.601098   -0.163855   -2.953105
     26          1           0       -2.806077   -0.827233   -2.053090
     27          1           0        1.874423    2.386924   -0.083914
     28          1           0        2.401167    2.268641    1.600800
     29          1           0        2.153947   -0.857878    1.704243
     30          1           0        3.811603   -2.616713    1.130662
     31          1           0        5.598054   -2.147008   -0.532775
     32          1           0        5.712607    0.086050   -1.621184
     33          1           0        4.048734    1.830037   -1.050481
     34          1           0       -4.907261   -0.341582   -1.052426
     35          1           0       -3.910022    1.879910   -0.537774
     36          1           0       -5.693639    1.830121   -0.556345
     37          1           0       -4.820739    1.774354    0.982094
 ---------------------------------------------------------------------

 SCF Done:  E(UB3LYP) =  -751.367443706     A.U. after   33 cycles
 SCF Done:  E(UB3LYP) =  -751.367443706     a.u. after    1 cycles

 The electronic state is 2-A.
 Alpha  occ. eigenvalues --  -19.06697 -14.21358 -10.14576 -10.14519 -10.11921
 Alpha  occ. eigenvalues --  -10.10030 -10.09533 -10.09090 -10.08608 -10.08566
 Alpha  occ. eigenvalues --  -10.08498 -10.08435 -10.08426 -10.08404 -10.08051
 Alpha  occ. eigenvalues --  -10.08047 -10.07716 -10.07685  -0.98313  -0.82581
 Alpha  occ. eigenvalues --   -0.77242  -0.76372  -0.69363  -0.68582  -0.65879
 Alpha  occ. eigenvalues --   -0.65509  -0.64161  -0.60010  -0.57572  -0.54312
 Alpha  occ. eigenvalues --   -0.52388  -0.51925  -0.50896  -0.47667  -0.44521
 Alpha  occ. eigenvalues --   -0.42848  -0.40868  -0.40147  -0.38816  -0.37993
 Alpha  occ. eigenvalues --   -0.37322  -0.36308  -0.35596  -0.34858  -0.34317
 Alpha  occ. eigenvalues --   -0.33826  -0.33232  -0.33162  -0.30809  -0.29900
 Alpha  occ. eigenvalues --   -0.29649  -0.28860  -0.27785  -0.27518  -0.26828
 Alpha  occ. eigenvalues --   -0.26263  -0.25851  -0.25537  -0.23909  -0.23177
 Alpha  occ. eigenvalues --   -0.16826  -0.16639  -0.15964  -0.14665  -0.13578
 Alpha  occ. eigenvalues --    0.04060
 Alpha virt. eigenvalues --    0.05533   0.06443   0.06572   0.06878   0.07005
 Alpha virt. eigenvalues --    0.07189   0.07571   0.07840   0.08399   0.08520
 Alpha virt. eigenvalues --    0.08954   0.09248   0.09838   0.10142   0.10576

  Beta  occ. eigenvalues --  -19.06695 -14.21342 -10.14574 -10.14504 -10.11918
  Beta  occ. eigenvalues --  -10.10017 -10.09532 -10.09092 -10.08586 -10.08546
  Beta  occ. eigenvalues --  -10.08477 -10.08421 -10.08406 -10.08385 -10.08042
  Beta  occ. eigenvalues --  -10.08040 -10.07703 -10.07664  -0.98305  -0.82559
  Beta  occ. eigenvalues --   -0.77209  -0.76347  -0.69334  -0.68559  -0.65827
  Beta  occ. eigenvalues --   -0.65475  -0.64140  -0.59974  -0.57535  -0.54283
  Beta  occ. eigenvalues --   -0.52348  -0.51868  -0.50857  -0.47635  -0.44492
  Beta  occ. eigenvalues --   -0.42793  -0.40848  -0.40110  -0.38784  -0.37947
  Beta  occ. eigenvalues --   -0.37300  -0.36277  -0.35560  -0.34826  -0.34297
  Beta  occ. eigenvalues --   -0.33801  -0.33189  -0.33144  -0.30785  -0.29873
  Beta  occ. eigenvalues --   -0.29625  -0.28825  -0.27744  -0.27494  -0.26796
  Beta  occ. eigenvalues --   -0.26234  -0.25816  -0.25504  -0.23886  -0.23146
  Beta  occ. eigenvalues --   -0.16773  -0.16569  -0.15922  -0.14641  -0.13550
  Beta virt. eigenvalues --    0.05916   0.06473   0.06550   0.07019   0.07091
  Beta virt. eigenvalues --    0.07254   0.07552   0.07741   0.08219   0.08499
  Beta virt. eigenvalues --    0.08784   0.09350   0.09592   0.09956   0.10474

 Mulliken charges and spin densities:
               1          2
     1  C   -0.009232  -0.644101
     2  C    0.088205  -0.864034
     3  C    1.306948   0.171429
     4  C   -0.705105   0.396350
     5  C   -1.255764   0.829135
     6  C    0.560928  -0.733739
     7  C    1.011095  -1.319924
     8  C   -1.097584   0.735179
     9  O   -0.066866  -0.006456
    10  C    1.184364  -1.719195
    11  C   -0.028269   0.662314
    12  C   -0.744706   0.924238
    13  C   -0.533064   0.076741
    14  C    1.289118  -1.600497
    15  C    0.920672  -1.216998
    16  C   -0.881565   0.512916
    17  N   -0.017667   0.005785
    18  C   -0.090319  -0.306036
    19  H    0.015953   0.137311
    20  H    0.094527   0.056328
    21  H    0.023096   0.116431
    22  H    0.079755   0.084914
    23  H    0.083590   0.075112
    24  H    0.526711  -0.368598
    25  H   -0.460219   0.652144
    26  H   -0.463195   0.595295
    27  H   -0.165353   0.352988
    28  H    0.093511   0.108481
    29  H    0.085007   0.098938
    30  H   -0.218610   0.386522
    31  H   -0.271030   0.423322
    32  H   -0.765618   0.955843
    33  H   -0.715607   0.886112
    34  H    0.028346   0.224786
    35  H    0.139518   0.007555
    36  H   -0.116026   0.251336
    37  H    0.074453   0.052074
 Sum of Mulliken charges =  -1.00000   1.00000

 Dipole moment (field-independent basis, Debye):
    X=             -4.4204    Y=              0.6815    Z=              5.1593  Tot=              6.8281
 Quadrupole moment (field-independent basis, Debye-Ang):
   XX=           -234.8854   YY=           -145.8282   ZZ=           -147.1082
   XY=             -2.7100   XZ=              6.6985   YZ=              1.5123

 Summary of Natural Population Analysis:

                                       Natural Population
                Natural  -----------------------------------------------
    Atom  No    Charge         Core      Valence    Rydberg      Total
 -----------------------------------------------------------------------
      C    1   -0.28172      0.99964     2.27724    0.00484     3.28172
      C    2   -0.01659      0.99957     2.00303    0.01400     3.01659
      C    3   -0.01594      0.99949     2.00460    0.01185     3.01594
      C    4   -0.12104      0.99946     2.11308    0.00850     3.12104
      C    5    0.16368      0.99937     1.82347    0.01348     2.83632
      C    6   -0.14441      0.99951     2.13600    0.00890     3.14441
      C    7   -0.08277      0.99957     2.07290    0.01030     3.08277
      C    8   -0.11936      0.99950     2.10910    0.01076     3.11936
      O    9   -0.27648      0.99986     3.26795    0.00867     4.27648
      C   10   -0.01576      0.99952     2.00359    0.01265     3.01576
      C   11   -0.03772      0.99950     2.02785    0.01037     3.03772
      C   12   -0.09998      0.99951     2.09185    0.00863     3.09998
      C   13   -0.09397      0.99956     2.08497    0.00944     3.09397
      C   14   -0.10267      0.99956     2.09256    0.01055     3.10267
      C   15   -0.09461      0.99956     2.08435    0.01070     3.09461
      C   16   -0.09877      0.99951     2.08844    0.01082     3.09877
      N   17   -0.33670      0.99975     2.82508    0.01187     3.83670
      C   18   -0.17957      0.99966     2.17293    0.00698     3.17957
      H   19    0.09865      0.00000     0.40029    0.00107     0.40135
      H   20    0.10148      0.00000     0.39745    0.00108     0.39852
      H   21    0.10205      0.00000     0.39716    0.00079     0.39795
      H   22    0.09062      0.00000     0.40755    0.00183     0.40938
      H   23    0.10275      0.00000     0.39550    0.00174     0.39725
      H   24    0.11072      0.00000     0.38719    0.00209     0.38928
      H   25    0.10255      0.00000     0.39637    0.00108     0.39745
      H   26    0.10033      0.00000     0.39788    0.00179     0.39967
      H   27    0.09184      0.00000     0.40664    0.00152     0.40816
      H   28    0.09829      0.00000     0.40062    0.00109     0.40171
      H   29    0.10589      0.00000     0.39266    0.00145     0.39411
      H   30    0.10019      0.00000     0.39895    0.00086     0.39981
      H   31    0.10204      0.00000     0.39671    0.00125     0.39796
      H   32    0.10428      0.00000     0.39340    0.00232     0.39572
      H   33    0.10316      0.00000     0.39451    0.00233     0.39684
      H   34    0.17132      0.00000     0.32523    0.00344     0.32868
      H   35    0.08609      0.00000     0.41225    0.00165     0.41391
      H   36    0.09346      0.00000     0.40559    0.00096     0.40654
      H   37    0.08867      0.00000     0.41019    0.00114     0.41133
 =======================================================================
   * Total *    0.00000     17.99210    46.79511    0.21279    65.00000

 Normal termination of Gaussian 16 at Fri Dec 11 20:05:00 2020.
