 Gaussian 16, Revision A.03,

 -----------------------------------------------------------
 # opt freq B3LYP/6-31G(d) empiricaldispersion=gd3bj scf=xqc
 -----------------------------------------------------------

 ------------------------------
 CID_84731692_JID_2932_neutraal
 ------------------------------
 Symbolic Z-matrix:
 Charge =  0 Multiplicity = 1

 SCF Done:  E(RB3LYP) =  -552.167972737     A.U. after   14 cycles
 SCF Done:  E(RB3LYP) =  -552.172357538     A.U. after   12 cycles
 SCF Done:  E(RB3LYP) =  -552.174238489     A.U. after   11 cycles
 SCF Done:  E(RB3LYP) =  -552.174932256     A.U. after   11 cycles
 SCF Done:  E(RB3LYP) =  -552.175701120     A.U. after   11 cycles
 SCF Done:  E(RB3LYP) =  -552.176363085     A.U. after   11 cycles
 SCF Done:  E(RB3LYP) =  -552.176842782     A.U. after   11 cycles
 SCF Done:  E(RB3LYP) =  -552.177416606     A.U. after   12 cycles
 SCF Done:  E(RB3LYP) =  -552.177952836     A.U. after   12 cycles
 SCF Done:  E(RB3LYP) =  -552.178179280     A.U. after   11 cycles
 SCF Done:  E(RB3LYP) =  -552.178229216     A.U. after    9 cycles
 SCF Done:  E(RB3LYP) =  -552.178236548     A.U. after   10 cycles
 SCF Done:  E(RB3LYP) =  -552.178240279     A.U. after   10 cycles
 SCF Done:  E(RB3LYP) =  -552.178243135     A.U. after    9 cycles
 SCF Done:  E(RB3LYP) =  -552.178243484     A.U. after    9 cycles
 SCF Done:  E(RB3LYP) =  -552.178243581     A.U. after    7 cycles
 Optimization completed.
    -- Stationary point found.
 Normal termination of Gaussian 16 at Wed Dec  9 18:18:38 2020.

 --------------------------------------------------------------------
 #N Geom=AllCheck Guess=TCheck SCRF=Check GenChk RB3LYP/6-31G(d) Freq
 --------------------------------------------------------------------

 Structure from the checkpoint file:  "JID_2932.chk"
 ------------------------------
 CID_84731692_JID_2932_neutraal
 ------------------------------
 Charge =  0 Multiplicity = 1

 SCF Done:  E(RB3LYP) =  -552.178243581     A.U. after    1 cycles

  Exact polarizability: 124.218  -1.013  99.258  -4.906  -1.552  73.664
 Approx polarizability: 167.155  -2.672 159.840  -5.217  -1.764 106.597

                      1                      2                      3
                      A                      A                      A
 Frequencies --     50.8613                94.6438               101.8765
 Red. masses --      2.9252                 2.1890                 2.2757
 Frc consts  --      0.0045                 0.0116                 0.0139
 IR Inten    --     10.5942                10.6792                15.1097

                      4                      5                      6
                      A                      A                      A
 Frequencies --    110.9753               225.1669               243.7594
 Red. masses --      2.1080                 3.2810                 2.0750
 Frc consts  --      0.0153                 0.0980                 0.0726
 IR Inten    --      7.1051                 0.6800                 1.9822

                      7                      8                      9
                      A                      A                      A
 Frequencies --    259.8140               305.1576               359.4396
 Red. masses --      3.4814                 5.0072                 2.7614
 Frc consts  --      0.1385                 0.2747                 0.2102
 IR Inten    --      0.1671                 1.0180                 9.3186

                     10                     11                     12
                      A                      A                      A
 Frequencies --    369.3061               425.0447               453.6608
 Red. masses --      4.6427                 2.3272                 3.8639
 Frc consts  --      0.3731                 0.2477                 0.4685
 IR Inten    --      7.2967                 1.3544                 1.6544

                     13                     14                     15
                      A                      A                      A
 Frequencies --    499.5191               553.5771               648.8165
 Red. masses --      2.9939                 1.9428                 4.0135
 Frc consts  --      0.4401                 0.3508                 0.9954
 IR Inten    --      2.8155                 3.3073                 1.4146

                     16                     17                     18
                      A                      A                      A
 Frequencies --    681.4584               713.3605               789.5642
 Red. masses --      3.9990                 7.1607                 1.4193
 Frc consts  --      1.0942                 2.1470                 0.5213
 IR Inten    --     10.9517                 5.9316                 8.9801

                     19                     20                     21
                      A                      A                      A
 Frequencies --    792.8871               822.5214               834.8712
 Red. masses --      2.0659                 1.3237                 1.4565
 Frc consts  --      0.7652                 0.5276                 0.5981
 IR Inten    --     32.1864                 9.0976                65.7735

                     22                     23                     24
                      A                      A                      A
 Frequencies --    857.6223               884.0178               900.6759
 Red. masses --      3.5809                 1.4419                 2.3785
 Frc consts  --      1.5518                 0.6639                 1.1368
 IR Inten    --      4.9181                 9.4240                 4.2221

                     25                     26                     27
                      A                      A                      A
 Frequencies --    934.2420               938.9603               992.5644
 Red. masses --      2.8354                 3.6580                 1.9257
 Frc consts  --      1.4581                 1.9002                 1.1178
 IR Inten    --     24.3244                44.1477                 4.6714

                     28                     29                     30
                      A                      A                      A
 Frequencies --   1017.9462              1048.5544              1122.4877
 Red. masses --      1.7535                 1.7918                 3.7484
 Frc consts  --      1.0706                 1.1607                 2.7826
 IR Inten    --     10.0306                 7.0484                60.7922

                     31                     32                     33
                      A                      A                      A
 Frequencies --   1147.1762              1154.6787              1186.9033
 Red. masses --      3.2716                 1.9290                 2.2889
 Frc consts  --      2.5367                 1.5153                 1.8998
 IR Inten    --     44.7405                15.9071                 4.2709

                     34                     35                     36
                      A                      A                      A
 Frequencies --   1206.1938              1213.8751              1234.0644
 Red. masses --      1.5791                 1.3654                 2.2161
 Frc consts  --      1.3536                 1.1854                 1.9884
 IR Inten    --      8.6908                 6.1980                19.6516

                     37                     38                     39
                      A                      A                      A
 Frequencies --   1253.1188              1266.1070              1299.7681
 Red. masses --      1.6767                 1.4822                 1.7421
 Frc consts  --      1.5513                 1.3999                 1.7341
 IR Inten    --     10.3008                17.1077                 9.2767

                     40                     41                     42
                      A                      A                      A
 Frequencies --   1313.5002              1324.2829              1335.3026
 Red. masses --      2.5920                 1.3183                 1.3529
 Frc consts  --      2.6348                 1.3622                 1.4213
 IR Inten    --     21.4767                 2.1433                 8.7146

                     43                     44                     45
                      A                      A                      A
 Frequencies --   1353.2809              1386.9697              1395.5085
 Red. masses --      1.2581                 1.5182                 1.3985
 Frc consts  --      1.3575                 1.7207                 1.6047
 IR Inten    --      1.0004                 0.9781                 4.1496

                     46                     47                     48
                      A                      A                      A
 Frequencies --   1399.9910              1425.7456              1433.7421
 Red. masses --      1.5312                 3.1825                 1.6594
 Frc consts  --      1.7682                 3.8116                 2.0098
 IR Inten    --     17.5553                20.2429                 9.8170

                     49                     50                     51
                      A                      A                      A
 Frequencies --   1456.9366              1509.5580              1521.1357
 Red. masses --      1.6087                 1.0926                 3.6529
 Frc consts  --      2.0119                 1.4670                 4.9799
 IR Inten    --      7.1337                 4.2168               110.3690

                     52                     53                     54
                      A                      A                      A
 Frequencies --   1522.0233              1527.2146              1541.7924
 Red. masses --      1.1201                 1.0943                 1.1112
 Frc consts  --      1.5288                 1.5038                 1.5563
 IR Inten    --      5.6808                 2.6396                 5.6903

                     55                     56                     57
                      A                      A                      A
 Frequencies --   1608.2944              1692.4025              2984.0162
 Red. masses --      4.6518                 1.1422                 1.0718
 Frc consts  --      7.0892                 1.9275                 5.6230
 IR Inten    --     11.7818                28.5984                53.7000

                     58                     59                     60
                      A                      A                      A
 Frequencies --   3038.2041              3046.6548              3062.3391
 Red. masses --      1.0658                 1.0607                 1.0668
 Frc consts  --      5.7962                 5.8009                 5.8945
 IR Inten    --     22.8662                23.8204                18.0798

                     61                     62                     63
                      A                      A                      A
 Frequencies --   3065.5971              3088.4431              3111.8314
 Red. masses --      1.0778                 1.1027                 1.0982
 Frc consts  --      5.9676                 6.1970                 6.2655
 IR Inten    --     20.5528                33.9912                32.9087

                     64                     65                     66
                      A                      A                      A
 Frequencies --   3114.1439              3122.5015              3245.8373
 Red. masses --      1.0983                 1.1021                 1.0952
 Frc consts  --      6.2754                 6.3309                 6.7984
 IR Inten    --     44.4703                31.0338                14.9596

                     67                     68                     69
                      A                      A                      A
 Frequencies --   3252.4652              3476.1019              3562.3096
 Red. masses --      1.0974                 1.0518                 1.0908
 Frc consts  --      6.8400                 7.4879                 8.1559
 IR Inten    --      0.6506                 2.2485                 7.3720

 - Thermochemistry -
 -------------------
 Temperature   298.150 Kelvin.  Pressure   1.00000 Atm.
 Atom     1 has atomic number  6 and mass  12.00000

 Molecular mass:   167.10586 amu.
 Principal axes and moments of inertia in atomic units:
                           1         2         3
     Eigenvalues --   873.768983096.403313260.17652
           X            0.99990   0.00602  -0.01299
           Y           -0.00639   0.99957  -0.02862
           Z            0.01281   0.02870   0.99951
 This molecule is an asymmetric top.
 Rotational symmetry number  1.
 Warning -- assumption of classical behavior for rotation
           may cause significant error
 Rotational temperatures (Kelvin)      0.09913     0.02797     0.02657
 Rotational constants (GHZ):           2.06547     0.58285     0.55357
 Zero-point vibrational energy     567708.0 (Joules/Mol)
                                  135.68547 (Kcal/Mol)
 Warning -- explicit consideration of  14 degrees of freedom as
           vibrations may cause significant error
 Vibrational temperatures:     73.18   136.17   146.58   159.67   323.96
          (Kelvin)            350.72   373.81   439.05   517.15   531.35
                              611.54   652.72   718.70   796.47   933.50
                              980.47  1026.37  1136.01  1140.79  1183.42
                             1201.19  1233.93  1271.90  1295.87  1344.17
                             1350.95  1428.08  1464.60  1508.64  1615.01
                             1650.53  1661.33  1707.69  1735.44  1746.50
                             1775.54  1802.96  1821.65  1870.08  1889.83
                             1905.35  1921.20  1947.07  1995.54  2007.83
                             2014.27  2051.33  2062.84  2096.21  2171.92
                             2188.58  2189.85  2197.32  2218.30  2313.98
                             2434.99  4293.33  4371.30  4383.46  4406.02
                             4410.71  4443.58  4477.23  4480.56  4492.58
                             4670.04  4679.57  5001.34  5125.37

 Zero-point correction=                           0.216229 (Hartree/Particle)
 Thermal correction to Energy=                    0.226950
 Thermal correction to Enthalpy=                  0.227894
 Thermal correction to Gibbs Free Energy=         0.179408
 Sum of electronic and zero-point Energies=           -551.962015
 Sum of electronic and thermal Energies=              -551.951294
 Sum of electronic and thermal Enthalpies=            -551.950350
 Sum of electronic and thermal Free Energies=         -551.998835

                     E (Thermal)             CV                S
                      KCal/Mol        Cal/Mol-Kelvin    Cal/Mol-Kelvin
 Total                  142.413             41.294            102.046
 Electronic               0.000              0.000              0.000
 Translational            0.889              2.981             41.249
 Rotational               0.889              2.981             30.557
 Vibrational            140.636             35.332             30.241
 Vibration     1          0.595              1.977              4.784
 Vibration     2          0.603              1.953              3.562
 Vibration     3          0.604              1.948              3.418
 Vibration     4          0.607              1.940              3.252
 Vibration     5          0.650              1.803              1.917
 Vibration     6          0.659              1.773              1.775
 Vibration     7          0.668              1.746              1.663
 Vibration     8          0.696              1.664              1.388
 Vibration     9          0.734              1.556              1.125
 Vibration    10          0.742              1.535              1.083
 Vibration    11          0.787              1.416              0.875
 Vibration    12          0.812              1.353              0.785
 Vibration    13          0.855              1.251              0.659
 Vibration    14          0.909              1.132              0.537

 Optimization completed.
    -- Stationary point found.
 Normal termination of Gaussian 16 at Wed Dec  9 18:24:49 2020.

 ----------------------------------------------------------------------
 # B3LYP/6-311++G(d,p) empiricaldispersion=gd3bj scf=xqc pop=npa geom=c
 heck
 ----------------------------------------------------------------------

 --------------------------------------
 CID_84731692_JID_2932_Energie_neutraal
 --------------------------------------
 Structure from the checkpoint file:  "JID_2932.chk"
 Charge =  0 Multiplicity = 1

 SCF Done:  E(RB3LYP) =  -552.337351342     A.U. after   14 cycles
 Normal termination of Gaussian 16 at Wed Dec  9 18:27:30 2020.

 ----------------------------------------------------------------------
 # B3LYP/6-311++G(d,p) empiricaldispersion=gd3bj scf=xqc pop=npa geom=c
 heck
 ----------------------------------------------------------------------

 ------------------------------------
 CID_84731692_JID_2932_Energie_kation
 ------------------------------------
 Structure from the checkpoint file:  "JID_2932.chk"
 Charge =  1 Multiplicity = 2

 SCF Done:  E(UB3LYP) =  -552.034774968     A.U. after   24 cycles
 Normal termination of Gaussian 16 at Wed Dec  9 18:33:02 2020.
 Gaussian 16:  ES64L-G16RevA.03 25-Dec-2016

 ----------------------------------------------------------------------
 # B3LYP/6-311++G(d,p) empiricaldispersion=gd3bj scf=xqc pop=npa geom=c
 heck
 ----------------------------------------------------------------------

 -----------------------------------
 CID_84731692_JID_2932_Energie_anion
 -----------------------------------
 Structure from the checkpoint file:  "JID_2932.chk"
 Charge = -1 Multiplicity = 2

                         Standard orientation:
 ---------------------------------------------------------------------
 Center     Atomic      Atomic             Coordinates (Angstroms)
 Number     Number       Type             X           Y           Z
 ---------------------------------------------------------------------
      1          6           0       -2.617650   -0.101844    1.192104
      2          6           0       -1.100332    0.118143    1.273985
      3          6           0       -0.417182   -0.594032    0.098877
      4          6           0       -1.061800   -0.164189   -1.229696
      5          8           0       -2.452393   -0.448785   -1.216565
      6          6           0       -3.131487    0.276752   -0.197605
      7          7           0        1.031263   -0.414834    0.078346
      8          6           0        1.949372   -1.429343    0.120381
      9          7           0        3.189963   -0.996226    0.039682
     10          6           0        3.081996    0.372163   -0.052670
     11          6           0        1.762720    0.765806   -0.032820
     12          7           0        1.116481    2.022341   -0.136283
     13          1           0       -2.854016   -1.157184    1.379475
     14          1           0       -3.134486    0.490467    1.957135
     15          1           0       -0.881103    1.189439    1.209757
     16          1           0       -0.693593   -0.250190    2.222723
     17          1           0       -0.581454   -1.672843    0.203299
     18          1           0       -0.880377    0.907239   -1.394281
     19          1           0       -0.631484   -0.729896   -2.060709
     20          1           0       -4.191828    0.034157   -0.311333
     21          1           0       -3.005758    1.360604   -0.363315
     22          1           0        1.643203   -2.463094    0.217444
     23          1           0        3.955889    1.006331   -0.132808
     24          1           0        1.565219    2.597638   -0.843933
     25          1           0        1.151164    2.537912    0.741527
 ---------------------------------------------------------------------

 SCF Done:  E(UB3LYP) =  -552.326228835     A.U. after   31 cycles

 The electronic state is 2-A.
 Alpha  occ. eigenvalues --  -19.03110 -14.26765 -14.20461 -14.19294 -10.12471
 Alpha  occ. eigenvalues --  -10.12464 -10.11998 -10.11936 -10.11791 -10.07608
 Alpha  occ. eigenvalues --  -10.07232 -10.07150  -0.94605  -0.92002  -0.80000
 Alpha  occ. eigenvalues --   -0.78246  -0.69967  -0.66788  -0.62356  -0.55807
 Alpha  occ. eigenvalues --   -0.55421  -0.50726  -0.47985  -0.46061  -0.43614
 Alpha  occ. eigenvalues --   -0.40026  -0.39631  -0.38350  -0.36110  -0.35855
 Alpha  occ. eigenvalues --   -0.34973  -0.33336  -0.31252  -0.31136  -0.30461
 Alpha  occ. eigenvalues --   -0.29097  -0.27032  -0.24783  -0.24539  -0.21973
 Alpha  occ. eigenvalues --   -0.19337  -0.18225  -0.16377  -0.14973  -0.12122
 Alpha  occ. eigenvalues --    0.04505
 Alpha virt. eigenvalues --    0.06554   0.07733   0.08279   0.09279   0.10008
 Alpha virt. eigenvalues --    0.10106   0.10409   0.10708   0.11690   0.12364
 Alpha virt. eigenvalues --    0.12956   0.13846   0.13869   0.14956   0.15574

  Beta  occ. eigenvalues --  -19.03104 -14.26761 -14.20375 -14.19291 -10.12467
  Beta  occ. eigenvalues --  -10.12461 -10.11997 -10.11926 -10.11772 -10.07600
  Beta  occ. eigenvalues --  -10.07207 -10.07123  -0.94593  -0.91988  -0.79933
  Beta  occ. eigenvalues --   -0.78168  -0.69928  -0.66759  -0.62310  -0.55772
  Beta  occ. eigenvalues --   -0.55375  -0.50695  -0.47940  -0.45997  -0.43562
  Beta  occ. eigenvalues --   -0.39989  -0.39558  -0.38306  -0.36057  -0.35821
  Beta  occ. eigenvalues --   -0.34939  -0.33302  -0.31219  -0.31109  -0.30432
  Beta  occ. eigenvalues --   -0.29063  -0.26995  -0.24738  -0.24506  -0.21946
  Beta  occ. eigenvalues --   -0.19301  -0.18201  -0.16346  -0.14935  -0.12096
  Beta virt. eigenvalues --    0.06944   0.07907   0.08126   0.08830   0.09783
  Beta virt. eigenvalues --    0.10287   0.10711   0.11051   0.11183   0.12074
  Beta virt. eigenvalues --    0.12637   0.13147   0.13924   0.14292   0.15331

 Mulliken charges and spin densities:
               1          2
     1  C   -0.160748  -0.289234
     2  C    0.315051  -0.240434
     3  C   -0.877379   0.311117
     4  C    0.018623  -0.433352
     5  O   -0.174007   0.045828
     6  C    0.632377  -0.910974
     7  N    0.395811  -0.062679
     8  C    0.447743  -0.438932
     9  N   -0.156418   0.012331
    10  C    0.055595  -0.508628
    11  C    0.806933  -0.813629
    12  N   -0.483644   0.165291
    13  H    0.138974  -0.008796
    14  H   -0.779067   0.958578
    15  H    0.332736  -0.158097
    16  H   -0.306213   0.479512
    17  H    0.019243   0.131905
    18  H    0.056779   0.165801
    19  H    0.121672   0.052338
    20  H   -0.196777   0.390064
    21  H   -0.031910   0.155417
    22  H    0.137187  -0.009287
    23  H   -0.287350   0.423501
    24  H   -0.429475   0.698769
    25  H   -0.595734   0.883591
 Sum of Mulliken charges =  -1.00000   1.00000

 Dipole moment (field-independent basis, Debye):
    X=             -0.8437    Y=             -6.6176    Z=             -2.2463  Tot=              7.0392
 Quadrupole moment (field-independent basis, Debye-Ang):
   XX=           -138.8137   YY=           -117.6114   ZZ=           -106.4164
   XY=             -0.9737   XZ=              4.4316   YZ=             -4.3762

 Summary of Natural Population Analysis:

                                       Natural Population
                Natural  -----------------------------------------------
    Atom  No    Charge         Core      Valence    Rydberg      Total
 -----------------------------------------------------------------------
      C    1   -0.20306      0.99963     2.19445    0.00899     3.20306
      C    2   -0.19814      0.99960     2.18814    0.01039     3.19814
      C    3   -0.01237      0.99957     1.99988    0.01292     3.01237
      C    4   -0.01374      0.99955     2.00194    0.01226     3.01374
      O    5   -0.30044      0.99989     3.29179    0.00876     4.30044
      C    6   -0.01032      0.99958     1.99744    0.01331     3.01032
      N    7   -0.21256      0.99961     2.70127    0.01168     3.71256
      C    8    0.10133      0.99964     1.88355    0.01548     2.89867
      N    9   -0.25785      0.99973     2.74732    0.01080     3.75785
      C   10   -0.04740      0.99951     2.03287    0.01502     3.04740
      C   11    0.14606      0.99949     1.83821    0.01625     2.85394
      N   12   -0.42688      0.99974     2.91589    0.01125     3.92688
      H   13    0.09346      0.00000     0.40531    0.00124     0.40654
      H   14    0.10720      0.00000     0.39043    0.00238     0.39280
      H   15    0.10997      0.00000     0.38710    0.00292     0.39003
      H   16    0.10288      0.00000     0.39565    0.00147     0.39712
      H   17    0.09701      0.00000     0.40092    0.00207     0.40299
      H   18    0.09430      0.00000     0.40383    0.00186     0.40570
      H   19    0.09020      0.00000     0.40856    0.00124     0.40980
      H   20    0.09079      0.00000     0.40790    0.00131     0.40921
      H   21    0.08101      0.00000     0.41746    0.00153     0.41899
      H   22    0.08836      0.00000     0.41045    0.00118     0.41164
      H   23    0.09731      0.00000     0.40147    0.00123     0.40269
      H   24    0.19101      0.00000     0.30208    0.00691     0.30899
      H   25    0.19186      0.00000     0.29697    0.01117     0.30814
 =======================================================================
   * Total *   -0.00000     11.99553    32.82086    0.18361    45.00000

 Normal termination of Gaussian 16 at Wed Dec  9 18:40:07 2020.
