 Gaussian 16, Revision A.03,

 -----------------------------------------------------------
 # opt freq B3LYP/6-31G(d) empiricaldispersion=gd3bj scf=xqc
 -----------------------------------------------------------

 -------------------------------
 CID_130956646_JID_4944_neutraal
 -------------------------------
 Symbolic Z-matrix:
 Charge =  0 Multiplicity = 1

 SCF Done:  E(RB3LYP) =  -1025.83383032     A.U. after   15 cycles
 SCF Done:  E(RB3LYP) =  -1025.84037529     A.U. after   13 cycles
 SCF Done:  E(RB3LYP) =  -1025.84133175     A.U. after   12 cycles
 SCF Done:  E(RB3LYP) =  -1025.84157902     A.U. after   12 cycles
 SCF Done:  E(RB3LYP) =  -1025.84167231     A.U. after   12 cycles
 SCF Done:  E(RB3LYP) =  -1025.84210458     A.U. after   11 cycles
 SCF Done:  E(RB3LYP) =  -1025.84293769     A.U. after   13 cycles
 SCF Done:  E(RB3LYP) =  -1025.84314321     A.U. after   14 cycles
 SCF Done:  E(RB3LYP) =  -1025.84360541     A.U. after   12 cycles
 SCF Done:  E(RB3LYP) =  -1025.84371228     A.U. after   11 cycles
 SCF Done:  E(RB3LYP) =  -1025.84376894     A.U. after   11 cycles
 SCF Done:  E(RB3LYP) =  -1025.84378886     A.U. after   10 cycles
 SCF Done:  E(RB3LYP) =  -1025.84379541     A.U. after   10 cycles
 SCF Done:  E(RB3LYP) =  -1025.84379649     A.U. after    8 cycles
 Optimization completed.
    -- Stationary point found.
 Normal termination of Gaussian 16 at Thu Dec 10 10:56:59 2020.

 --------------------------------------------------------------------
 #N Geom=AllCheck Guess=TCheck SCRF=Check GenChk RB3LYP/6-31G(d) Freq
 --------------------------------------------------------------------

 Structure from the checkpoint file:  "JID_4944.chk"
 -------------------------------
 CID_130956646_JID_4944_neutraal
 -------------------------------
 Charge =  0 Multiplicity = 1

 SCF Done:  E(RB3LYP) =  -1025.84379649     A.U. after    1 cycles

  Exact polarizability: 175.518  -7.557 147.873   0.004  -0.003  50.317
 Approx polarizability: 274.859  -7.152 275.810   0.013  -0.009  80.581

                      1                      2                      3
                      A                      A                      A
 Frequencies --     54.9162                81.7711               103.1360
 Red. masses --     11.1513                 5.9822                 1.3361
 Frc consts  --      0.0198                 0.0236                 0.0084
 IR Inten    --      0.5067                 0.0510                19.3712

                      4                      5                      6
                      A                      A                      A
 Frequencies --    147.5050               157.9867               213.8716
 Red. masses --      3.0325                 7.2037                 7.1207
 Frc consts  --      0.0389                 0.1059                 0.1919
 IR Inten    --      0.2183                 0.6732                 0.0001

                      7                      8                      9
                      A                      A                      A
 Frequencies --    256.7915               266.1536               321.9148
 Red. masses --      8.7564                 4.5026                 4.3374
 Frc consts  --      0.3402                 0.1879                 0.2648
 IR Inten    --      6.7042                 5.1740                 1.7448

                     10                     11                     12
                      A                      A                      A
 Frequencies --    324.6989               344.5103               389.5266
 Red. masses --      3.9954                10.1914                 9.0347
 Frc consts  --      0.2482                 0.7127                 0.8077
 IR Inten    --      7.1988                 0.9678                 2.6878

                     13                     14                     15
                      A                      A                      A
 Frequencies --    445.9395               491.7256               528.2024
 Red. masses --     10.3112                 4.2116                 6.6695
 Frc consts  --      1.2081                 0.6000                 1.0963
 IR Inten    --      5.6353                 5.5148                 0.8258

                     16                     17                     18
                      A                      A                      A
 Frequencies --    530.8589               606.5914               618.6737
 Red. masses --      3.9551                 1.6383                 4.8197
 Frc consts  --      0.6567                 0.3552                 1.0869
 IR Inten    --      0.5345                40.8597                10.3365

                     19                     20                     21
                      A                      A                      A
 Frequencies --    657.9222               662.1078               662.7690
 Red. masses --      4.3958                 7.6987                 2.7926
 Frc consts  --      1.1211                 1.9885                 0.7227
 IR Inten    --     63.6695                 5.7083                45.0764

                     22                     23                     24
                      A                      A                      A
 Frequencies --    730.4352               742.1113               746.3982
 Red. masses --      6.2140                 5.4800                 1.0810
 Frc consts  --      1.9534                 1.7782                 0.3548
 IR Inten    --      7.4101                20.1164               112.8907

                     25                     26                     27
                      A                      A                      A
 Frequencies --    770.9212               817.5263               852.3845
 Red. masses --      3.4412                 1.4704                 1.5696
 Frc consts  --      1.2050                 0.5790                 0.6719
 IR Inten    --     31.4036                46.3508                 6.8626

                     28                     29                     30
                      A                      A                      A
 Frequencies --    865.2955               874.8668               920.4600
 Red. masses --      4.4641                 1.6093                 4.7000
 Frc consts  --      1.9693                 0.7257                 2.3462
 IR Inten    --     69.9334               119.7623                11.4398

                     31                     32                     33
                      A                      A                      A
 Frequencies --    939.5037               939.6865              1093.1514
 Red. masses --      4.8932                 1.2599                 2.9611
 Frc consts  --      2.5447                 0.6555                 2.0848
 IR Inten    --      5.2425                 0.0556                 2.3392

                     34                     35                     36
                      A                      A                      A
 Frequencies --   1163.0737              1186.7837              1211.6754
 Red. masses --      1.5494                 2.2968                 1.2469
 Frc consts  --      1.2349                 1.9060                 1.0786
 IR Inten    --      0.0489               188.3680                 0.0339

                     37                     38                     39
                      A                      A                      A
 Frequencies --   1212.3025              1254.5387              1296.9525
 Red. masses --      1.7014                 2.9858                 2.3155
 Frc consts  --      1.4733                 2.7687                 2.2947
 IR Inten    --    170.1368                 1.6138                20.5945

                     40                     41                     42
                      A                      A                      A
 Frequencies --   1332.7422              1358.4167              1384.8071
 Red. masses --      2.3311                 3.1918                 3.3131
 Frc consts  --      2.4395                 3.4702                 3.7434
 IR Inten    --    164.8250                86.4440                47.3333

                     43                     44                     45
                      A                      A                      A
 Frequencies --   1413.6755              1481.4476              1529.9034
 Red. masses --      4.5285                 2.6027                 4.2244
 Frc consts  --      5.3322                 3.3655                 5.8256
 IR Inten    --      5.0430                 0.8064               215.0059

                     46                     47                     48
                      A                      A                      A
 Frequencies --   1567.2111              1607.0257              1671.3920
 Red. masses --      6.1739                 4.8022                 3.6204
 Frc consts  --      8.9344                 7.3070                 5.9589
 IR Inten    --     56.6522                84.5081                 8.2744

                     49                     50                     51
                      A                      A                      A
 Frequencies --   1691.1951              1813.2983              3184.5321
 Red. masses --      1.4038                 9.5301                 1.0901
 Frc consts  --      2.3656                18.4624                 6.5135
 IR Inten    --     26.7717               369.4061                16.5959

                     52                     53                     54
                      A                      A                      A
 Frequencies --   3260.0739              3278.6878              3476.9279
 Red. masses --      1.0916                 1.0934                 1.0487
 Frc consts  --      6.8354                 6.9253                 7.4694
 IR Inten    --      1.6932                 6.8501                 5.4568

                     55                     56                     57
                      A                      A                      A
 Frequencies --   3507.3855              3551.4335              3691.7916
 Red. masses --      1.0631                 1.0939                 1.0640
 Frc consts  --      7.7053                 8.1292                 8.5438
 IR Inten    --    170.9946                 6.2665                75.0238

 - Thermochemistry -
 -------------------
 Temperature   298.150 Kelvin.  Pressure   1.00000 Atm.
 Atom     1 has atomic number  6 and mass  12.00000

 Molecular mass:   209.01466 amu.
 Principal axes and moments of inertia in atomic units:
                           1         2         3
     Eigenvalues --  1552.818574051.843805595.00339
           X            0.99987  -0.01584  -0.00000
           Y            0.01584   0.99987  -0.00000
           Z            0.00000   0.00000   1.00000
 This molecule is an asymmetric top.
 Rotational symmetry number  1.
 Warning -- assumption of classical behavior for rotation
           may cause significant error
 Rotational temperatures (Kelvin)      0.05578     0.02138     0.01548
 Rotational constants (GHZ):           1.16224     0.44541     0.32256
 Zero-point vibrational energy     396487.8 (Joules/Mol)
                                   94.76286 (Kcal/Mol)
 Warning -- explicit consideration of  18 degrees of freedom as
           vibrations may cause significant error
 Vibrational temperatures:     79.01   117.65   148.39   212.23   227.31
          (Kelvin)            307.71   369.47   382.94   463.16   467.17
                              495.67   560.44   641.61   707.48   759.97
                              763.79   872.75   890.13   946.60   952.63
                              953.58  1050.93  1067.73  1073.90  1109.18
                             1176.24  1226.39  1244.97  1258.74  1324.34
                             1351.74  1352.00  1572.80  1673.40  1707.52
                             1743.33  1744.23  1805.00  1866.03  1917.52
                             1954.46  1992.43  2033.96  2131.47  2201.19
                             2254.87  2312.15  2404.76  2433.25  2608.93
                             4581.83  4690.52  4717.30  5002.52  5046.35
                             5109.72  5311.66

 Zero-point correction=                           0.151014 (Hartree/Particle)
 Thermal correction to Energy=                    0.162955
 Thermal correction to Enthalpy=                  0.163899
 Thermal correction to Gibbs Free Energy=         0.112501
 Sum of electronic and zero-point Energies=          -1025.692782
 Sum of electronic and thermal Energies=             -1025.680842
 Sum of electronic and thermal Enthalpies=           -1025.679898
 Sum of electronic and thermal Free Energies=        -1025.731296

                     E (Thermal)             CV                S
                      KCal/Mol        Cal/Mol-Kelvin    Cal/Mol-Kelvin
 Total                  102.256             45.906            108.177
 Electronic               0.000              0.000              0.000
 Translational            0.889              2.981             41.916
 Rotational               0.889              2.981             31.932
 Vibrational            100.478             39.944             34.329
 Vibration     1          0.596              1.976              4.632
 Vibration     2          0.600              1.962              3.848
 Vibration     3          0.605              1.947              3.394
 Vibration     4          0.617              1.905              2.704
 Vibration     5          0.621              1.894              2.574
 Vibration     6          0.644              1.820              2.010
 Vibration     7          0.666              1.751              1.683
 Vibration     8          0.672              1.735              1.621
 Vibration     9          0.707              1.632              1.300
 Vibration    10          0.709              1.626              1.286
 Vibration    11          0.723              1.586              1.191
 Vibration    12          0.757              1.493              1.002
 Vibration    13          0.805              1.370              0.808
 Vibration    14          0.847              1.268              0.679
 Vibration    15          0.883              1.188              0.591
 Vibration    16          0.886              1.182              0.585
 Vibration    17          0.965              1.018              0.438
 Vibration    18          0.979              0.992              0.419

 Optimization completed.
    -- Stationary point found.
 Normal termination of Gaussian 16 at Thu Dec 10 11:03:12 2020.

 ----------------------------------------------------------------------
 # B3LYP/6-311++G(d,p) empiricaldispersion=gd3bj scf=xqc pop=npa geom=c
 heck
 ----------------------------------------------------------------------

 ---------------------------------------
 CID_130956646_JID_4944_Energie_neutraal
 ---------------------------------------
 Structure from the checkpoint file:  "JID_4944.chk"
 Charge =  0 Multiplicity = 1

 SCF Done:  E(RB3LYP) =  -1026.06396317     A.U. after   15 cycles
 Normal termination of Gaussian 16 at Thu Dec 10 11:06:00 2020.

 ----------------------------------------------------------------------
 # B3LYP/6-311++G(d,p) empiricaldispersion=gd3bj scf=xqc pop=npa geom=c
 heck
 ----------------------------------------------------------------------

 -------------------------------------
 CID_130956646_JID_4944_Energie_kation
 -------------------------------------
 Structure from the checkpoint file:  "JID_4944.chk"
 Charge =  1 Multiplicity = 2

 SCF Done:  E(UB3LYP) =  -1025.77666516     A.U. after   24 cycles
 Normal termination of Gaussian 16 at Thu Dec 10 11:11:41 2020.
 Gaussian 16:  ES64L-G16RevA.03 25-Dec-2016

 ----------------------------------------------------------------------
 # B3LYP/6-311++G(d,p) empiricaldispersion=gd3bj scf=xqc pop=npa geom=c
 heck
 ----------------------------------------------------------------------

 ------------------------------------
 CID_130956646_JID_4944_Energie_anion
 ------------------------------------
 Structure from the checkpoint file:  "JID_4944.chk"
 Charge = -1 Multiplicity = 2

                         Standard orientation:
 ---------------------------------------------------------------------
 Center     Atomic      Atomic             Coordinates (Angstroms)
 Number     Number       Type             X           Y           Z
 ---------------------------------------------------------------------
      1          6           0        0.118046   -1.714995    0.000058
      2          6           0        1.482971   -1.968008   -0.000022
      3          6           0        2.424627   -0.927035   -0.000109
      4          6           0        1.995816    0.404625    0.000061
      5          6           0        0.622979    0.664327    0.000065
      6          6           0       -0.332286   -0.379872    0.000170
      7          6           0       -1.678666    0.168274    0.000187
      8          6           0       -1.689422    1.537257   -0.000206
      9         16           0       -0.116486    2.254904    0.000304
     10          6           0       -2.966836   -0.547497    0.000050
     11          8           0       -4.059159   -0.013157   -0.000736
     12          8           0       -2.835864   -1.901178    0.000433
     13          8           0        2.890654    1.417013   -0.000249
     14          7           0        3.858665   -1.092328   -0.000144
     15          1           0       -0.597564   -2.525751    0.000279
     16          1           0        1.841066   -2.994696    0.000016
     17          1           0       -2.578877    2.152220   -0.000548
     18          1           0       -3.747943   -2.246789    0.000043
     19          1           0        3.761649    0.957432    0.000202
     20          1           0        4.173221   -1.609753    0.818628
     21          1           0        4.173148   -1.608712   -0.819589
 ---------------------------------------------------------------------

 SCF Done:  E(UB3LYP) =  -1026.06923819     A.U. after   33 cycles
 SCF Done:  E(UB3LYP) =  -1026.06923819     a.u. after    3 cycles

 The electronic state is 2-A.
 Alpha  occ. eigenvalues --  -88.73921 -19.03746 -19.03479 -18.96403 -14.20993
 Alpha  occ. eigenvalues --  -10.15285 -10.11375 -10.08112 -10.07465 -10.06275
 Alpha  occ. eigenvalues --  -10.05668 -10.04742 -10.04436 -10.04045  -7.82550
 Alpha  occ. eigenvalues --   -5.78861  -5.78490  -5.78129  -0.97308  -0.95199
 Alpha  occ. eigenvalues --   -0.87757  -0.79676  -0.75893  -0.69274  -0.64156
 Alpha  occ. eigenvalues --   -0.59910  -0.58930  -0.51834  -0.49374  -0.48068
 Alpha  occ. eigenvalues --   -0.43812  -0.40412  -0.39290  -0.38634  -0.36512
 Alpha  occ. eigenvalues --   -0.35743  -0.33016  -0.32535  -0.31994  -0.29892
 Alpha  occ. eigenvalues --   -0.29519  -0.28224  -0.26461  -0.24680  -0.24389
 Alpha  occ. eigenvalues --   -0.24096  -0.21406  -0.20473  -0.19282  -0.17195
 Alpha  occ. eigenvalues --   -0.14726  -0.14002  -0.11717  -0.08860   0.04225
 Alpha virt. eigenvalues --    0.05708   0.08664   0.09341   0.09581   0.10765
 Alpha virt. eigenvalues --    0.11062   0.11414   0.12012   0.13570   0.13932
 Alpha virt. eigenvalues --    0.14338   0.15160   0.15438   0.16420   0.17018

  Beta  occ. eigenvalues --  -88.73884 -19.03687 -19.03471 -18.96264 -14.20951
  Beta  occ. eigenvalues --  -10.15058 -10.11332 -10.08077 -10.07470 -10.06283
  Beta  occ. eigenvalues --  -10.05676 -10.04391 -10.04173 -10.04031  -7.82516
  Beta  occ. eigenvalues --   -5.78848  -5.78482  -5.77994  -0.97092  -0.95170
  Beta  occ. eigenvalues --   -0.87525  -0.79588  -0.75701  -0.69023  -0.63966
  Beta  occ. eigenvalues --   -0.59655  -0.58671  -0.51533  -0.49008  -0.47999
  Beta  occ. eigenvalues --   -0.43554  -0.40160  -0.39206  -0.38541  -0.36332
  Beta  occ. eigenvalues --   -0.35556  -0.32926  -0.32430  -0.31136  -0.29675
  Beta  occ. eigenvalues --   -0.29381  -0.28141  -0.26290  -0.24290  -0.24215
  Beta  occ. eigenvalues --   -0.23893  -0.21218  -0.19840  -0.18620  -0.17152
  Beta  occ. eigenvalues --   -0.14588  -0.13544  -0.10710  -0.08103
  Beta virt. eigenvalues --    0.06736   0.08643   0.09661   0.09759   0.09918
  Beta virt. eigenvalues --    0.10762   0.11190   0.11765   0.12765   0.13620
  Beta virt. eigenvalues --    0.13900   0.14318   0.15381   0.15466   0.16522

 Mulliken charges and spin densities:
               1          2
     1  C   -1.267112   0.228327
     2  C    0.085141  -0.110542
     3  C    0.779319  -0.958149
     4  C   -0.564143   0.255712
     5  C   -0.186089  -0.009924
     6  C    1.133244  -0.176902
     7  C    0.201551  -0.028717
     8  C    0.097041   0.426602
     9  S   -0.676378   0.061066
    10  C    0.250026   0.157250
    11  O   -0.407212   0.051664
    12  O   -0.233354   0.011200
    13  O   -0.270899  -0.016770
    14  N   -0.532338   0.067325
    15  H    0.175026  -0.008968
    16  H   -0.078093   0.221483
    17  H    0.242986  -0.033648
    18  H    0.277869   0.000295
    19  H    0.268974   0.038507
    20  H   -0.194061   0.462413
    21  H   -0.101497   0.361778
 Sum of Mulliken charges =  -1.00000   1.00000

 Dipole moment (field-independent basis, Debye):
    X=             -0.1396    Y=             -0.9792    Z=             -0.1878  Tot=              1.0068
 Quadrupole moment (field-independent basis, Debye-Ang):
   XX=           -146.9935   YY=           -107.4041   ZZ=            -99.2152
   XY=             11.5068   XZ=             -1.2186   YZ=              0.8076

 Summary of Natural Population Analysis:

                                       Natural Population
                Natural  -----------------------------------------------
    Atom  No    Charge         Core      Valence    Rydberg      Total
 -----------------------------------------------------------------------
      C    1   -0.10356      0.99953     2.09435    0.00968     3.10356
      C    2   -0.11444      0.99953     2.10435    0.01055     3.11444
      C    3    0.02411      0.99943     1.96439    0.01207     2.97589
      C    4    0.15419      0.99926     1.83087    0.01568     2.84581
      C    5   -0.11664      0.99938     2.10657    0.01069     3.11664
      C    6   -0.02558      0.99946     2.01518    0.01094     3.02558
      C    7   -0.11860      0.99938     2.10915    0.01007     3.11860
      C    8   -0.02706      0.99950     2.01798    0.00959     3.02706
      S    9    0.20540      4.99946     2.77372    0.02142     7.79460
      C   10    0.42673      0.99964     1.55009    0.02354     2.57327
      O   11   -0.32216      0.99987     3.31560    0.00669     4.32216
      O   12   -0.35366      0.99988     3.34563    0.00814     4.35366
      O   13   -0.34557      0.99988     3.33950    0.00620     4.34557
      N   14   -0.44112      0.99974     2.92929    0.01209     3.94112
      H   15    0.10948      0.00000     0.38919    0.00132     0.39052
      H   16    0.09651      0.00000     0.40248    0.00100     0.40349
      H   17    0.10598      0.00000     0.39305    0.00096     0.39402
      H   18    0.23248      0.00000     0.26475    0.00277     0.26752
      H   19    0.24530      0.00000     0.25158    0.00312     0.25470
      H   20    0.18524      0.00000     0.31091    0.00386     0.31476
      H   21    0.18298      0.00000     0.31526    0.00176     0.31702
 =======================================================================
   * Total *   -0.00000     17.99397    35.82390    0.18214    54.00000

 Normal termination of Gaussian 16 at Thu Dec 10 11:35:13 2020.
