 Gaussian 16, Revision A.03,

 -----------------------------------------------------------
 # opt freq B3LYP/6-31G(d) empiricaldispersion=gd3bj scf=xqc
 -----------------------------------------------------------

 -------------------------------
 CID_136801025_JID_3742_neutraal
 -------------------------------
 Symbolic Z-matrix:
 Charge =  0 Multiplicity = 1

 SCF Done:  E(RB3LYP) =  -606.315924689     A.U. after   15 cycles
 SCF Done:  E(RB3LYP) =  -606.322627721     A.U. after   12 cycles
 SCF Done:  E(RB3LYP) =  -606.323426611     A.U. after   11 cycles
 SCF Done:  E(RB3LYP) =  -606.323584734     A.U. after   11 cycles
 SCF Done:  E(RB3LYP) =  -606.323680128     A.U. after   11 cycles
 SCF Done:  E(RB3LYP) =  -606.323751156     A.U. after   10 cycles
 SCF Done:  E(RB3LYP) =  -606.323827362     A.U. after   11 cycles
 SCF Done:  E(RB3LYP) =  -606.323844637     A.U. after   10 cycles
 SCF Done:  E(RB3LYP) =  -606.323864337     A.U. after   10 cycles
 SCF Done:  E(RB3LYP) =  -606.323885584     A.U. after   10 cycles
 SCF Done:  E(RB3LYP) =  -606.323890767     A.U. after    9 cycles
 SCF Done:  E(RB3LYP) =  -606.323891686     A.U. after    8 cycles
 SCF Done:  E(RB3LYP) =  -606.323891890     A.U. after    8 cycles
 SCF Done:  E(RB3LYP) =  -606.323891931     A.U. after    7 cycles
 Optimization completed.
    -- Stationary point found.
 Normal termination of Gaussian 16 at Sun Dec 13 20:07:04 2020.

 --------------------------------------------------------------------
 #N Geom=AllCheck Guess=TCheck SCRF=Check GenChk RB3LYP/6-31G(d) Freq
 --------------------------------------------------------------------

 Structure from the checkpoint file:  "JID_3742.chk"
 -------------------------------
 CID_136801025_JID_3742_neutraal
 -------------------------------
 Charge =  0 Multiplicity = 1

 SCF Done:  E(RB3LYP) =  -606.323891931     A.U. after    1 cycles

  Exact polarizability: 134.660  -0.668 117.393  -1.208   7.227  69.720
 Approx polarizability: 185.215 -12.291 192.275  -3.949  23.426 109.562

                      1                      2                      3
                      A                      A                      A
 Frequencies --     36.7488                80.0412               111.4270
 Red. masses --      4.3425                 3.2200                 3.6758
 Frc consts  --      0.0035                 0.0122                 0.0269
 IR Inten    --      2.4825                 0.7647                 0.4265

                      4                      5                      6
                      A                      A                      A
 Frequencies --    119.8598               128.5640               193.0343
 Red. masses --      1.6852                 2.0765                 2.8074
 Frc consts  --      0.0143                 0.0202                 0.0616
 IR Inten    --      0.8414                 2.1329                 0.7775

                      7                      8                      9
                      A                      A                      A
 Frequencies --    267.4071               275.2165               289.6081
 Red. masses --      1.1184                 3.6855                 3.0170
 Frc consts  --      0.0471                 0.1645                 0.1491
 IR Inten    --      3.4190                 3.9591                10.9127

                     10                     11                     12
                      A                      A                      A
 Frequencies --    319.2465               353.0897               371.7110
 Red. masses --      2.7101                 2.0631                 2.6458
 Frc consts  --      0.1627                 0.1515                 0.2154
 IR Inten    --     33.8825                34.5842                26.2380

                     13                     14                     15
                      A                      A                      A
 Frequencies --    384.9820               412.8263               446.5202
 Red. masses --      2.0187                 1.5042                 3.7932
 Frc consts  --      0.1763                 0.1510                 0.4456
 IR Inten    --     51.5467                72.3380                11.7997

                     16                     17                     18
                      A                      A                      A
 Frequencies --    491.2972               546.9784               590.5942
 Red. masses --      3.8909                 3.1454                 3.4174
 Frc consts  --      0.5533                 0.5545                 0.7023
 IR Inten    --      6.0866                45.6781                 0.5328

                     19                     20                     21
                      A                      A                      A
 Frequencies --    633.2042               668.6147               719.1164
 Red. masses --      5.3273                 4.8929                 3.4523
 Frc consts  --      1.2585                 1.2887                 1.0519
 IR Inten    --      7.1416                 3.6793                 3.1584

                     22                     23                     24
                      A                      A                      A
 Frequencies --    729.2750               799.2562               827.7591
 Red. masses --      6.8056                 3.9265                 3.4562
 Frc consts  --      2.1326                 1.4778                 1.3953
 IR Inten    --     14.4871                 7.5363                 5.6956

                     25                     26                     27
                      A                      A                      A
 Frequencies --    883.7925               917.8250               986.7507
 Red. masses --      1.3662                 2.0794                 3.5108
 Frc consts  --      0.6287                 1.0320                 2.0140
 IR Inten    --      6.4440                 1.7995                10.3915

                     28                     29                     30
                      A                      A                      A
 Frequencies --    995.6457              1019.4555              1031.7270
 Red. masses --      2.6803                 5.5608                 1.6272
 Frc consts  --      1.5655                 3.4051                 1.0205
 IR Inten    --     46.0794                76.5244                 6.4360

                     31                     32                     33
                      A                      A                      A
 Frequencies --   1072.9976              1082.0145              1114.5646
 Red. masses --      1.5285                 1.8695                 2.1675
 Frc consts  --      1.0368                 1.2896                 1.5864
 IR Inten    --     11.5415                 4.1660                16.5170

                     34                     35                     36
                      A                      A                      A
 Frequencies --   1131.7338              1172.5302              1215.9836
 Red. masses --      2.2736                 1.8419                 1.9838
 Frc consts  --      1.7157                 1.4920                 1.7282
 IR Inten    --     14.9034                11.9885                20.2318

                     37                     38                     39
                      A                      A                      A
 Frequencies --   1225.2133              1243.8740              1279.1634
 Red. masses --      1.8721                 4.1823                 3.3279
 Frc consts  --      1.6557                 3.8126                 3.2083
 IR Inten    --     35.1359                 2.2328                20.1356

                     40                     41                     42
                      A                      A                      A
 Frequencies --   1296.0522              1309.0862              1356.2823
 Red. masses --      1.8449                 3.1714                 2.1006
 Frc consts  --      1.8259                 3.2022                 2.2766
 IR Inten    --     17.2612                24.9130                 3.0024

                     43                     44                     45
                      A                      A                      A
 Frequencies --   1369.6161              1382.1053              1425.5493
 Red. masses --      1.2879                 1.4318                 1.3885
 Frc consts  --      1.4234                 1.6114                 1.6625
 IR Inten    --      8.4854                11.9342                13.3442

                     46                     47                     48
                      A                      A                      A
 Frequencies --   1430.8907              1436.5681              1451.1000
 Red. masses --      1.4443                 1.3482                 1.5789
 Frc consts  --      1.7423                 1.6393                 1.9589
 IR Inten    --      4.1885               111.3705                 7.7468

                     49                     50                     51
                      A                      A                      A
 Frequencies --   1497.2068              1513.3515              1517.0267
 Red. masses --      2.9244                 1.0514                 1.0946
 Frc consts  --      3.8624                 1.4187                 1.4842
 IR Inten    --     42.7031                 8.7866                 7.0722

                     52                     53                     54
                      A                      A                      A
 Frequencies --   1522.7833              1530.5659              1550.7443
 Red. masses --      1.0487                 1.0628                 1.0978
 Frc consts  --      1.4328                 1.4669                 1.5555
 IR Inten    --      9.3058                 3.8379                 4.4499

                     55                     56                     57
                      A                      A                      A
 Frequencies --   1589.3653              1636.9320              1729.1903
 Red. masses --      4.4029                 6.2846                 6.8913
 Frc consts  --      6.5529                 9.9218                12.1405
 IR Inten    --     57.6443               360.3869                73.3111

                     58                     59                     60
                      A                      A                      A
 Frequencies --   3040.9585              3043.0480              3048.3415
 Red. masses --      1.0817                 1.0545                 1.0535
 Frc consts  --      5.8937                 5.7533                 5.7678
 IR Inten    --     13.9016                35.6018                58.3870

                     61                     62                     63
                      A                      A                      A
 Frequencies --   3062.4285              3089.0219              3094.0907
 Red. masses --      1.0370                 1.1012                 1.1006
 Frc consts  --      5.7300                 6.1908                 6.2077
 IR Inten    --     15.7419                34.8750                13.4230

                     64                     65                     66
                      A                      A                      A
 Frequencies --   3136.1194              3165.4836              3180.7653
 Red. masses --      1.1016                 1.1032                 1.0945
 Frc consts  --      6.3835                 6.5128                 6.5240
 IR Inten    --     20.8200                 5.2785                12.0537

                     67                     68                     69
                      A                      A                      A
 Frequencies --   3274.8378              3636.0401              3734.0187
 Red. masses --      1.0965                 1.0776                 1.0661
 Frc consts  --      6.9286                 8.3939                 8.7583
 IR Inten    --      9.9320                60.8114                 8.4183

 - Thermochemistry -
 -------------------
 Temperature   298.150 Kelvin.  Pressure   1.00000 Atm.
 Atom     1 has atomic number  6 and mass  12.00000

 Molecular mass:   180.10111 amu.
 Principal axes and moments of inertia in atomic units:
                           1         2         3
     Eigenvalues --  1270.190402777.682233759.61615
           X            0.99972   0.02360  -0.00242
           Y           -0.02363   0.99967  -0.01027
           Z            0.00218   0.01032   0.99994
 This molecule is an asymmetric top.
 Rotational symmetry number  1.
 Warning -- assumption of classical behavior for rotation
           may cause significant error
 Rotational temperatures (Kelvin)      0.06819     0.03118     0.02304
 Rotational constants (GHZ):           1.42084     0.64973     0.48003
 Zero-point vibrational energy     545612.1 (Joules/Mol)
                                  130.40442 (Kcal/Mol)
 Warning -- explicit consideration of  18 degrees of freedom as
           vibrations may cause significant error
 Vibrational temperatures:     52.87   115.16   160.32   172.45   184.97
          (Kelvin)            277.73   384.74   395.98   416.68   459.32
                              508.02   534.81   553.90   593.96   642.44
                              706.87   786.98   849.73   911.04   961.99
                             1034.65  1049.26  1149.95  1190.96  1271.58
                             1320.55  1419.71  1432.51  1466.77  1484.42
                             1543.80  1556.78  1603.61  1628.31  1687.01
                             1749.53  1762.81  1789.66  1840.43  1864.73
                             1883.48  1951.39  1970.57  1988.54  2051.05
                             2058.73  2066.90  2087.81  2154.15  2177.38
                             2182.66  2190.95  2202.14  2231.18  2286.74
                             2355.18  2487.92  4375.26  4378.27  4385.88
                             4406.15  4444.41  4451.71  4512.18  4554.42
                             4576.41  4711.76  5231.45  5372.42

 Zero-point correction=                           0.207813 (Hartree/Particle)
 Thermal correction to Energy=                    0.220020
 Thermal correction to Enthalpy=                  0.220965
 Thermal correction to Gibbs Free Energy=         0.169210
 Sum of electronic and zero-point Energies=           -606.116079
 Sum of electronic and thermal Energies=              -606.103872
 Sum of electronic and thermal Enthalpies=            -606.102927
 Sum of electronic and thermal Free Energies=         -606.154682

                     E (Thermal)             CV                S
                      KCal/Mol        Cal/Mol-Kelvin    Cal/Mol-Kelvin
 Total                  138.065             46.003            108.926
 Electronic               0.000              0.000              0.000
 Translational            0.889              2.981             41.472
 Rotational               0.889              2.981             30.962
 Vibrational            136.287             40.041             36.492
 Vibration     1          0.594              1.982              5.427
 Vibration     2          0.600              1.963              3.890
 Vibration     3          0.607              1.940              3.244
 Vibration     4          0.609              1.933              3.103
 Vibration     5          0.611              1.925              2.967
 Vibration     6          0.635              1.850              2.198
 Vibration     7          0.673              1.733              1.613
 Vibration     8          0.677              1.719              1.563
 Vibration     9          0.686              1.693              1.476
 Vibration    10          0.705              1.637              1.314
 Vibration    11          0.729              1.569              1.152
 Vibration    12          0.743              1.530              1.073
 Vibration    13          0.754              1.502              1.020
 Vibration    14          0.777              1.442              0.917
 Vibration    15          0.806              1.369              0.806
 Vibration    16          0.847              1.269              0.680
 Vibration    17          0.902              1.146              0.550
 Vibration    18          0.948              1.052              0.466

                           ! Non-Optimized Parameters !
 Normal termination of Gaussian 16 at Sun Dec 13 20:13:59 2020.

 ----------------------------------------------------------------------
 # B3LYP/6-311++G(d,p) empiricaldispersion=gd3bj scf=xqc pop=npa geom=c
 heck
 ----------------------------------------------------------------------

 ---------------------------------------
 CID_136801025_JID_3742_Energie_neutraal
 ---------------------------------------
 Structure from the checkpoint file:  "JID_3742.chk"
 Charge =  0 Multiplicity = 1

 SCF Done:  E(RB3LYP) =  -606.500691292     A.U. after   15 cycles
 Normal termination of Gaussian 16 at Sun Dec 13 20:16:58 2020.

 ----------------------------------------------------------------------
 # B3LYP/6-311++G(d,p) empiricaldispersion=gd3bj scf=xqc pop=npa geom=c
 heck
 ----------------------------------------------------------------------

 -------------------------------------
 CID_136801025_JID_3742_Energie_kation
 -------------------------------------
 Structure from the checkpoint file:  "JID_3742.chk"
 Charge =  1 Multiplicity = 2

 SCF Done:  E(UB3LYP) =  -606.212234848     A.U. after   22 cycles
 Normal termination of Gaussian 16 at Sun Dec 13 20:23:08 2020.
 Gaussian 16:  ES64L-G16RevA.03 25-Dec-2016

 ----------------------------------------------------------------------
 # B3LYP/6-311++G(d,p) empiricaldispersion=gd3bj scf=xqc pop=npa geom=c
 heck
 ----------------------------------------------------------------------

 ------------------------------------
 CID_136801025_JID_3742_Energie_anion
 ------------------------------------
 Structure from the checkpoint file:  "JID_3742.chk"
 Charge = -1 Multiplicity = 2

                         Standard orientation:
 ---------------------------------------------------------------------
 Center     Atomic      Atomic             Coordinates (Angstroms)
 Number     Number       Type             X           Y           Z
 ---------------------------------------------------------------------
      1          6           0        0.298864   -2.085936    0.917793
      2          6           0        0.109167   -1.129980   -0.270068
      3          6           0        1.140336   -0.007079   -0.327830
      4          6           0        0.835660    1.262679    0.032459
      5          7           0       -0.469304    1.610155    0.408853
      6          6           0       -1.497676    0.740435    0.136401
      7          7           0       -2.803389    0.959336    0.166441
      8          6           0       -3.290156   -0.267759   -0.196803
      9          7           0       -2.386823   -1.205031   -0.439145
     10          7           0       -1.216616   -0.523313   -0.228933
     11          6           0        1.776747    2.436209    0.078941
     12          6           0        2.517786   -0.422136   -0.764963
     13          8           0        3.236027   -1.180313    0.218895
     14          1           0        1.285527   -2.551030    0.864456
     15          1           0       -0.476762   -2.857064    0.901715
     16          1           0        0.223075   -1.530685    1.859272
     17          1           0        0.162530   -1.713495   -1.198300
     18          1           0       -0.719394    2.584793    0.493798
     19          1           0       -4.348982   -0.468758   -0.285650
     20          1           0        1.531089    3.165756   -0.703684
     21          1           0        1.684702    2.948053    1.044856
     22          1           0        2.819115    2.145668   -0.044967
     23          1           0        2.442943   -1.093722   -1.627351
     24          1           0        3.109093    0.443408   -1.088560
     25          1           0        3.187405   -0.677039    1.047163
 ---------------------------------------------------------------------

 SCF Done:  E(UB3LYP) =  -606.493299000     A.U. after   30 cycles

 The electronic state is 2-A.
 Alpha  occ. eigenvalues --  -19.01767 -14.29269 -14.25722 -14.23985 -14.20710
 Alpha  occ. eigenvalues --  -10.17779 -10.13478 -10.12793 -10.12694 -10.11931
 Alpha  occ. eigenvalues --  -10.07566 -10.06657 -10.06536  -0.98860  -0.91748
 Alpha  occ. eigenvalues --   -0.87297  -0.81696  -0.74248  -0.71029  -0.65241
 Alpha  occ. eigenvalues --   -0.62148  -0.57845  -0.55644  -0.53030  -0.51452
 Alpha  occ. eigenvalues --   -0.45989  -0.44336  -0.40647  -0.39826  -0.38771
 Alpha  occ. eigenvalues --   -0.36583  -0.35593  -0.34017  -0.32602  -0.32256
 Alpha  occ. eigenvalues --   -0.31535  -0.30187  -0.28914  -0.28601  -0.26600
 Alpha  occ. eigenvalues --   -0.25899  -0.24285  -0.23583  -0.19143  -0.19083
 Alpha  occ. eigenvalues --   -0.17779  -0.16710  -0.11366   0.04406
 Alpha virt. eigenvalues --    0.07411   0.07946   0.08205   0.08990   0.09364
 Alpha virt. eigenvalues --    0.10207   0.10554   0.11288   0.11679   0.11947
 Alpha virt. eigenvalues --    0.12436   0.13674   0.14256   0.14904   0.15281

  Beta  occ. eigenvalues --  -19.01728 -14.29261 -14.25693 -14.23982 -14.20703
  Beta  occ. eigenvalues --  -10.17777 -10.13475 -10.12744 -10.12694 -10.11906
  Beta  occ. eigenvalues --  -10.07571 -10.06567 -10.06522  -0.98846  -0.91659
  Beta  occ. eigenvalues --   -0.87241  -0.81686  -0.74227  -0.70979  -0.65190
  Beta  occ. eigenvalues --   -0.62061  -0.57772  -0.55605  -0.52977  -0.51404
  Beta  occ. eigenvalues --   -0.45960  -0.44277  -0.40623  -0.39765  -0.38703
  Beta  occ. eigenvalues --   -0.36528  -0.35559  -0.33961  -0.32495  -0.32226
  Beta  occ. eigenvalues --   -0.31472  -0.30158  -0.28831  -0.28573  -0.26536
  Beta  occ. eigenvalues --   -0.25862  -0.24242  -0.23563  -0.19121  -0.19065
  Beta  occ. eigenvalues --   -0.17733  -0.16631  -0.11325
  Beta virt. eigenvalues --    0.07218   0.08181   0.08221   0.08530   0.09313
  Beta virt. eigenvalues --    0.10033   0.10737   0.11223   0.11519   0.11909
  Beta virt. eigenvalues --    0.12409   0.13073   0.13953   0.14413   0.15076

 Mulliken charges and spin densities:
               1          2
     1  C   -0.090467  -0.615742
     2  C   -0.072127   0.137321
     3  C   -0.406780   0.774968
     4  C   -1.593541   1.786353
     5  N   -0.427731   0.224548
     6  C   -0.358443   0.419694
     7  N   -0.198978   0.030374
     8  C   -0.100553   0.079087
     9  N   -0.094769  -0.030741
    10  N    0.066006   0.015194
    11  C    3.627390  -4.220272
    12  C    1.141453  -2.153179
    13  O   -0.241682   0.039405
    14  H    0.125421   0.051502
    15  H    0.125200   0.015689
    16  H   -0.124301   0.314781
    17  H    0.119854   0.070560
    18  H   -0.163951   0.506720
    19  H    0.113771   0.032990
    20  H   -0.602312   0.785062
    21  H   -0.875377   1.058783
    22  H   -0.774487   0.942450
    23  H    0.070248   0.079568
    24  H   -0.163838   0.312079
    25  H   -0.100006   0.342806
 Sum of Mulliken charges =  -1.00000   1.00000

 Dipole moment (field-independent basis, Debye):
    X=             -5.7503    Y=             -6.5292    Z=             -2.6325  Tot=              9.0899
 Quadrupole moment (field-independent basis, Debye-Ang):
   XX=           -137.7898   YY=           -133.4530   ZZ=           -105.0982
   XY=             -8.7943   XZ=             -5.4797   YZ=             -4.8851

 Summary of Natural Population Analysis:

                                       Natural Population
                Natural  -----------------------------------------------
    Atom  No    Charge         Core      Valence    Rydberg      Total
 -----------------------------------------------------------------------
      C    1   -0.29240      0.99964     2.28701    0.00575     3.29240
      C    2   -0.00316      0.99957     1.99130    0.01228     3.00316
      C    3   -0.08173      0.99943     2.06965    0.01266     3.08173
      C    4    0.11930      0.99942     1.86927    0.01202     2.88070
      N    5   -0.30100      0.99963     2.79069    0.01068     3.80100
      C    6    0.29088      0.99957     1.69260    0.01695     2.70912
      N    7   -0.28338      0.99970     2.77416    0.00952     3.78338
      C    8    0.08994      0.99971     1.89135    0.01900     2.91006
      N    9   -0.16977      0.99974     2.65950    0.01053     3.66977
      N   10   -0.12593      0.99958     2.61349    0.01286     3.62593
      C   11   -0.30439      0.99963     2.29762    0.00715     3.30439
      C   12   -0.01721      0.99954     2.00441    0.01325     3.01721
      O   13   -0.37287      0.99990     3.36631    0.00665     4.37287
      H   14    0.11226      0.00000     0.38656    0.00118     0.38774
      H   15    0.10138      0.00000     0.39770    0.00091     0.39862
      H   16    0.10118      0.00000     0.39772    0.00110     0.39882
      H   17    0.09781      0.00000     0.40007    0.00211     0.40219
      H   18    0.20663      0.00000     0.28968    0.00369     0.29337
      H   19    0.08912      0.00000     0.41014    0.00074     0.41088
      H   20    0.10878      0.00000     0.38890    0.00231     0.39122
      H   21    0.11713      0.00000     0.37219    0.01069     0.38287
      H   22    0.11352      0.00000     0.38259    0.00389     0.38648
      H   23    0.08455      0.00000     0.41407    0.00138     0.41545
      H   24    0.08753      0.00000     0.41082    0.00166     0.41247
      H   25    0.23182      0.00000     0.26233    0.00585     0.26818
 =======================================================================
   * Total *   -0.00000     12.99507    34.82014    0.18480    48.00000

 Normal termination of Gaussian 16 at Sun Dec 13 20:31:29 2020.
