 Gaussian 16, Revision A.03,

 -----------------------------------------------------------
 # opt freq B3LYP/6-31G(d) empiricaldispersion=gd3bj scf=xqc
 -----------------------------------------------------------

 -------------------------------
 CID_103546231_JID_7142_neutraal
 -------------------------------
 Symbolic Z-matrix:
 Charge =  0 Multiplicity = 1

 SCF Done:  E(RB3LYP) =  -783.463136283     A.U. after   15 cycles
 SCF Done:  E(RB3LYP) =  -783.462587506     A.U. after   13 cycles
 SCF Done:  E(RB3LYP) =  -783.469015935     A.U. after   12 cycles
 SCF Done:  E(RB3LYP) =  -783.470091173     A.U. after   12 cycles
 SCF Done:  E(RB3LYP) =  -783.470669162     A.U. after   12 cycles
 SCF Done:  E(RB3LYP) =  -783.471014285     A.U. after   12 cycles
 SCF Done:  E(RB3LYP) =  -783.471654237     A.U. after   11 cycles
 SCF Done:  E(RB3LYP) =  -783.472040169     A.U. after   11 cycles
 SCF Done:  E(RB3LYP) =  -783.472093883     A.U. after   12 cycles
 SCF Done:  E(RB3LYP) =  -783.472145419     A.U. after   10 cycles
 SCF Done:  E(RB3LYP) =  -783.472755063     A.U. after   10 cycles
 SCF Done:  E(RB3LYP) =  -783.472756832     A.U. after    8 cycles
 SCF Done:  E(RB3LYP) =  -783.472757118     A.U. after    7 cycles
 SCF Done:  E(RB3LYP) =  -783.472757188     A.U. after    7 cycles
 SCF Done:  E(RB3LYP) =  -783.472757240     A.U. after    7 cycles
 Optimization completed.
    -- Stationary point found.
 Normal termination of Gaussian 16 at Mon Dec 14 13:36:56 2020.

 --------------------------------------------------------------------
 #N Geom=AllCheck Guess=TCheck SCRF=Check GenChk RB3LYP/6-31G(d) Freq
 --------------------------------------------------------------------

 Structure from the checkpoint file:  "JID_7142.chk"
 -------------------------------
 CID_103546231_JID_7142_neutraal
 -------------------------------
 Charge =  0 Multiplicity = 1

 SCF Done:  E(RB3LYP) =  -783.472757240     A.U. after    1 cycles

  Exact polarizability: 181.227 -14.462 148.966 -11.955 -12.290 116.753
 Approx polarizability: 249.069 -12.417 208.442 -33.745 -32.793 192.556

                      1                      2                      3
                      A                      A                      A
 Frequencies --     26.8876                31.3156                62.2851
 Red. masses --      4.7585                 4.2548                 4.3617
 Frc consts  --      0.0020                 0.0025                 0.0100
 IR Inten    --      1.6370                 0.6983                 1.1435

                      4                      5                      6
                      A                      A                      A
 Frequencies --     67.2396                97.8950               120.6308
 Red. masses --      2.7678                 2.6261                 2.9188
 Frc consts  --      0.0074                 0.0148                 0.0250
 IR Inten    --      0.1926                 3.3396                 0.0833

                      7                      8                      9
                      A                      A                      A
 Frequencies --    129.0566               134.9960               156.5614
 Red. masses --      2.5866                 1.4752                 2.9949
 Frc consts  --      0.0254                 0.0158                 0.0433
 IR Inten    --      0.8816                 0.1910                 0.9356

                     10                     11                     12
                      A                      A                      A
 Frequencies --    171.7544               179.3645               202.8761
 Red. masses --      3.5190                 2.6358                 1.4019
 Frc consts  --      0.0612                 0.0500                 0.0340
 IR Inten    --      3.0233                 0.1739                 0.4001

                     13                     14                     15
                      A                      A                      A
 Frequencies --    263.2935               278.3828               281.1587
 Red. masses --      2.6967                 2.9733                 2.5075
 Frc consts  --      0.1101                 0.1358                 0.1168
 IR Inten    --      1.4549                 7.3348                 0.7431

                     16                     17                     18
                      A                      A                      A
 Frequencies --    307.9582               328.9017               352.0666
 Red. masses --      3.8172                 2.8514                 3.4987
 Frc consts  --      0.2133                 0.1817                 0.2555
 IR Inten    --      7.9494                 4.2555                 9.5108

                     19                     20                     21
                      A                      A                      A
 Frequencies --    362.8313               367.3362               386.9256
 Red. masses --      3.0600                 2.0940                 1.4145
 Frc consts  --      0.2373                 0.1665                 0.1248
 IR Inten    --      4.8158                 0.7454                45.3465

                     22                     23                     24
                      A                      A                      A
 Frequencies --    405.5672               415.4116               496.4303
 Red. masses --      4.4715                 3.2361                 2.5270
 Frc consts  --      0.4333                 0.3290                 0.3669
 IR Inten    --      2.7385                 2.1889                 0.5343

                     25                     26                     27
                      A                      A                      A
 Frequencies --    609.7109               626.9402               669.9515
 Red. masses --      4.3627                 3.9255                 8.2431
 Frc consts  --      0.9555                 0.9091                 2.1799
 IR Inten    --      9.5954                 6.7129                17.1359

                     28                     29                     30
                      A                      A                      A
 Frequencies --    681.9512               718.4342               758.9593
 Red. masses --      4.2938                 2.5216                 9.4364
 Frc consts  --      1.1765                 0.7668                 3.2025
 IR Inten    --      8.6797                 3.5757                 5.1372

                     31                     32                     33
                      A                      A                      A
 Frequencies --    768.8978               775.0110               793.4174
 Red. masses --      3.6337                 2.4524                 1.7850
 Frc consts  --      1.2657                 0.8679                 0.6621
 IR Inten    --      7.5253                 4.3114                 3.7908

                     34                     35                     36
                      A                      A                      A
 Frequencies --    827.1424               830.2899               835.5684
 Red. masses --      1.2382                 1.4299                 1.8939
 Frc consts  --      0.4991                 0.5808                 0.7791
 IR Inten    --     38.1784                13.6245               139.4930

                     37                     38                     39
                      A                      A                      A
 Frequencies --    860.9525               889.1406               928.4002
 Red. masses --      2.0938                 2.5789                 2.4054
 Frc consts  --      0.9144                 1.2012                 1.2215
 IR Inten    --     80.2768                 3.0109                 9.7835

                     40                     41                     42
                      A                      A                      A
 Frequencies --    975.7395               991.4879              1015.0784
 Red. masses --      2.4631                 1.7754                 2.5748
 Frc consts  --      1.3816                 1.0283                 1.5631
 IR Inten    --     15.3386                15.7551                10.9727

                     43                     44                     45
                      A                      A                      A
 Frequencies --   1034.3406              1061.9531              1072.5448
 Red. masses --      2.0247                 1.6358                 1.7385
 Frc consts  --      1.2763                 1.0869                 1.1783
 IR Inten    --      7.5777                14.9089                17.9707

                     46                     47                     48
                      A                      A                      A
 Frequencies --   1076.2578              1086.8726              1095.8883
 Red. masses --      1.4839                 1.9550                 1.3936
 Frc consts  --      1.0127                 1.3607                 0.9861
 IR Inten    --     10.8246                49.6430                 4.5507

                     49                     50                     51
                      A                      A                      A
 Frequencies --   1104.4229              1147.1638              1162.6967
 Red. masses --      2.4999                 1.1279                 4.1095
 Frc consts  --      1.7966                 0.8745                 3.2732
 IR Inten    --     13.7044                 1.0461               336.0923

                     52                     53                     54
                      A                      A                      A
 Frequencies --   1185.7595              1186.6884              1214.9025
 Red. masses --      2.0351                 1.2721                 1.5299
 Frc consts  --      1.6859                 1.0555                 1.3304
 IR Inten    --     31.9971                 0.8381                62.3462

                     55                     56                     57
                      A                      A                      A
 Frequencies --   1219.9212              1233.1462              1237.0998
 Red. masses --      1.4120                 2.1623                 1.8319
 Frc consts  --      1.2381                 1.9373                 1.6518
 IR Inten    --      2.0599                25.3227                 0.9922

                     58                     59                     60
                      A                      A                      A
 Frequencies --   1261.9505              1269.3062              1277.6667
 Red. masses --      2.1957                 1.7057                 1.9223
 Frc consts  --      2.0602                 1.6191                 1.8489
 IR Inten    --      2.8153                 1.0993                 7.9419

                     61                     62                     63
                      A                      A                      A
 Frequencies --   1331.7006              1351.2653              1381.4705
 Red. masses --      1.2667                 1.6419                 1.6390
 Frc consts  --      1.3236                 1.7664                 1.8430
 IR Inten    --      8.0535                25.2424                32.2281

                     64                     65                     66
                      A                      A                      A
 Frequencies --   1405.8060              1415.7575              1431.5549
 Red. masses --      4.0056                 1.4233                 1.4744
 Frc consts  --      4.6641                 1.6808                 1.7803
 IR Inten    --     54.8316                19.7535                 2.9118

                     67                     68                     69
                      A                      A                      A
 Frequencies --   1441.4311              1446.6560              1488.6820
 Red. masses --      1.5119                 1.5816                 1.2976
 Frc consts  --      1.8508                 1.9502                 1.6943
 IR Inten    --     16.9565                 6.9403                 6.8289

                     70                     71                     72
                      A                      A                      A
 Frequencies --   1494.9782              1508.8014              1509.6858
 Red. masses --      1.0902                 1.0918                 1.0509
 Frc consts  --      1.4356                 1.4644                 1.4112
 IR Inten    --      2.1927                15.3264                 5.9872

                     73                     74                     75
                      A                      A                      A
 Frequencies --   1510.7416              1515.9206              1520.3788
 Red. masses --      1.1775                 1.5325                 1.3527
 Frc consts  --      1.5834                 2.0749                 1.8423
 IR Inten    --     43.5605                76.3071                42.7591

                     76                     77                     78
                      A                      A                      A
 Frequencies --   1529.8348              1531.0070              1536.0816
 Red. masses --      1.0710                 1.1180                 1.3104
 Frc consts  --      1.4769                 1.5440                 1.8218
 IR Inten    --      3.3937                 6.9332                 2.0991

                     79                     80                     81
                      A                      A                      A
 Frequencies --   1541.5362              1599.1727              1619.8593
 Red. masses --      1.2832                 4.0587                 5.7274
 Frc consts  --      1.7967                 6.1154                 8.8545
 IR Inten    --     29.3059                48.1832                49.7949

                     82                     83                     84
                      A                      A                      A
 Frequencies --   1698.1789              1823.0536              3035.1558
 Red. masses --      1.3103                11.9813                 1.0618
 Frc consts  --      2.2263                23.4613                 5.7630
 IR Inten    --     88.3747               454.4032                24.2056

                     85                     86                     87
                      A                      A                      A
 Frequencies --   3042.8416              3045.6928              3060.7484
 Red. masses --      1.0426                 1.0674                 1.0731
 Frc consts  --      5.6876                 5.8337                 5.9232
 IR Inten    --     17.3588                21.7300                41.7949

                     88                     89                     90
                      A                      A                      A
 Frequencies --   3071.6761              3073.6639              3090.9882
 Red. masses --      1.0293                 1.0972                 1.1007
 Frc consts  --      5.7217                 6.1073                 6.1959
 IR Inten    --     54.0159                41.2934                20.4602

                     91                     92                     93
                      A                      A                      A
 Frequencies --   3099.2103              3132.8342              3137.0102
 Red. masses --      1.0948                 1.0710                 1.0690
 Frc consts  --      6.1956                 6.1933                 6.1982
 IR Inten    --     20.4002                24.6891                14.2788

                     94                     95                     96
                      A                      A                      A
 Frequencies --   3143.1769              3145.6449              3147.5649
 Red. masses --      1.0936                 1.1073                 1.0579
 Frc consts  --      6.3657                 6.4554                 6.1750
 IR Inten    --     20.4989                23.0639                12.2948

                     97                     98                     99
                      A                      A                      A
 Frequencies --   3161.5379              3169.8306              3215.9951
 Red. masses --      1.0973                 1.1074                 1.1188
 Frc consts  --      6.4622                 6.5557                 6.8177
 IR Inten    --      4.4883                19.8046                 1.4125

                    100                    101                    102
                      A                      A                      A
 Frequencies --   3231.5145              3513.0127              3605.8449
 Red. masses --      1.1163                 1.0479                 1.0955
 Frc consts  --      6.8680                 7.6193                 8.3925
 IR Inten    --     17.8792                28.4348                73.4368

 - Thermochemistry -
 -------------------
 Temperature   298.150 Kelvin.  Pressure   1.00000 Atm.
 Atom     1 has atomic number  6 and mass  12.00000

 Molecular mass:   237.14773 amu.
 Principal axes and moments of inertia in atomic units:
                           1         2         3
     Eigenvalues --  2777.395455542.882077115.86272
           X            0.99970  -0.02364   0.00694
           Y            0.02363   0.99972   0.00142
           Z           -0.00698  -0.00125   0.99997
 This molecule is an asymmetric top.
 Rotational symmetry number  1.
 Warning -- assumption of classical behavior for rotation
           may cause significant error
 Rotational temperatures (Kelvin)      0.03119     0.01563     0.01217
 Rotational constants (GHZ):           0.64980     0.32560     0.25362
 Zero-point vibrational energy     812684.7 (Joules/Mol)
                                  194.23632 (Kcal/Mol)
 Warning -- explicit consideration of  25 degrees of freedom as
           vibrations may cause significant error
 Vibrational temperatures:     38.69    45.06    89.61    96.74   140.85
          (Kelvin)            173.56   185.68   194.23   225.26   247.12
                              258.07   291.89   378.82   400.53   404.52
                              443.08   473.22   506.55   522.03   528.51
                              556.70   583.52   597.68   714.25   877.24
                              902.03   963.91   981.18  1033.67  1091.97
                             1106.27  1115.07  1141.55  1190.07  1194.60
                             1202.20  1238.72  1279.28  1335.76  1403.87
                             1426.53  1460.47  1488.19  1527.91  1543.15
                             1548.49  1563.77  1576.74  1589.02  1650.51
                             1672.86  1706.04  1707.38  1747.97  1755.19
                             1774.22  1779.91  1815.67  1826.25  1838.28
                             1916.02  1944.17  1987.63  2022.64  2036.96
                             2059.69  2073.90  2081.42  2141.88  2150.94
                             2170.83  2172.10  2173.62  2181.07  2187.49
                             2201.09  2202.78  2210.08  2217.93  2300.85
                             2330.62  2443.30  2622.97  4366.91  4377.97
                             4382.07  4403.73  4419.46  4422.32  4447.24
                             4459.07  4507.45  4513.46  4522.33  4525.88
                             4528.64  4548.75  4560.68  4627.10  4649.43
                             5054.44  5188.01

 Zero-point correction=                           0.309535 (Hartree/Particle)
 Thermal correction to Energy=                    0.327234
 Thermal correction to Enthalpy=                  0.328179
 Thermal correction to Gibbs Free Energy=         0.263061
 Sum of electronic and zero-point Energies=           -783.163222
 Sum of electronic and thermal Energies=              -783.145523
 Sum of electronic and thermal Enthalpies=            -783.144579
 Sum of electronic and thermal Free Energies=         -783.209696

                     E (Thermal)             CV                S
                      KCal/Mol        Cal/Mol-Kelvin    Cal/Mol-Kelvin
 Total                  205.343             65.671            137.051
 Electronic               0.000              0.000              0.000
 Translational            0.889              2.981             42.292
 Rotational               0.889              2.981             33.060
 Vibrational            203.565             59.709             61.699
 Vibration     1          0.593              1.984              6.047
 Vibration     2          0.594              1.983              5.744
 Vibration     3          0.597              1.972              4.383
 Vibration     4          0.598              1.970              4.233
 Vibration     5          0.603              1.951              3.496
 Vibration     6          0.609              1.932              3.090
 Vibration     7          0.612              1.924              2.960
 Vibration     8          0.613              1.918              2.874
 Vibration     9          0.620              1.895              2.591
 Vibration    10          0.626              1.877              2.416
 Vibration    11          0.629              1.868              2.335
 Vibration    12          0.639              1.836              2.107
 Vibration    13          0.670              1.740              1.640
 Vibration    14          0.679              1.713              1.544
 Vibration    15          0.681              1.708              1.527
 Vibration    16          0.698              1.659              1.373
 Vibration    17          0.712              1.618              1.265
 Vibration    18          0.729              1.571              1.157
 Vibration    19          0.737              1.549              1.110
 Vibration    20          0.740              1.539              1.091
 Vibration    21          0.755              1.498              1.012
 Vibration    22          0.771              1.458              0.942
 Vibration    23          0.779              1.437              0.908
 Vibration    24          0.852              1.258              0.667
 Vibration    25          0.969              1.011              0.433

                           ! Non-Optimized Parameters !
 Normal termination of Gaussian 16 at Mon Dec 14 13:50:55 2020.

 ----------------------------------------------------------------------
 # B3LYP/6-311++G(d,p) empiricaldispersion=gd3bj scf=xqc pop=npa geom=c
 heck
 ----------------------------------------------------------------------

 ---------------------------------------
 CID_103546231_JID_7142_Energie_neutraal
 ---------------------------------------
 Structure from the checkpoint file:  "JID_7142.chk"
 Charge =  0 Multiplicity = 1

 SCF Done:  E(RB3LYP) =  -783.696726705     A.U. after   15 cycles
 Normal termination of Gaussian 16 at Mon Dec 14 13:57:56 2020.

 ----------------------------------------------------------------------
 # B3LYP/6-311++G(d,p) empiricaldispersion=gd3bj scf=xqc pop=npa geom=c
 heck
 ----------------------------------------------------------------------

 -------------------------------------
 CID_103546231_JID_7142_Energie_kation
 -------------------------------------
 Structure from the checkpoint file:  "JID_7142.chk"
 Charge =  1 Multiplicity = 2

 SCF Done:  E(UB3LYP) =  -783.420619021     A.U. after   21 cycles
 Normal termination of Gaussian 16 at Mon Dec 14 14:11:47 2020.
 Gaussian 16:  ES64L-G16RevA.03 25-Dec-2016

 ----------------------------------------------------------------------
 # B3LYP/6-311++G(d,p) empiricaldispersion=gd3bj scf=xqc pop=npa geom=c
 heck
 ----------------------------------------------------------------------

 ------------------------------------
 CID_103546231_JID_7142_Energie_anion
 ------------------------------------
 Structure from the checkpoint file:  "JID_7142.chk"
 Charge = -1 Multiplicity = 2

                         Standard orientation:
 ---------------------------------------------------------------------
 Center     Atomic      Atomic             Coordinates (Angstroms)
 Number     Number       Type             X           Y           Z
 ---------------------------------------------------------------------
      1          6           0       -1.067937    3.178575   -0.636832
      2          6           0       -0.186053    2.037052   -0.255433
      3          7           0        1.029524    1.849729   -0.694328
      4          6           0        1.486232    0.684210   -0.093915
      5          6           0        0.501317    0.169659    0.743793
      6          7           0       -0.569496    1.028589    0.632702
      7          6           0       -1.812524    0.923473    1.388992
      8          6           0       -3.077270    0.802739    0.526978
      9          6           0       -3.023767   -0.220771   -0.614284
     10          6           0       -2.854205   -1.667567   -0.184571
     11          6           0       -2.733815   -2.729215   -1.247269
     12          6           0       -1.542307   -2.402224   -0.385169
     13          7           0        0.505193   -0.892281    1.635625
     14          6           0        2.812080    0.148493   -0.366260
     15          8           0        3.642288    0.599290   -1.125292
     16          8           0        3.041768   -1.000646    0.367102
     17          6           0        4.325309   -1.597339    0.150867
     18          1           0       -0.454983    3.911243   -1.165143
     19          1           0       -1.517914    3.664174    0.237831
     20          1           0       -1.883672    2.872445   -1.303470
     21          1           0       -1.707657    0.055788    2.042515
     22          1           0       -1.900755    1.798262    2.044708
     23          1           0       -3.904866    0.555351    1.205426
     24          1           0       -3.320414    1.782057    0.102237
     25          1           0       -3.960976   -0.128548   -1.179476
     26          1           0       -2.219003    0.047235   -1.311151
     27          1           0       -3.430486   -1.948477    0.696935
     28          1           0       -3.236575   -3.679501   -1.093452
     29          1           0       -2.711463   -2.399339   -2.282921
     30          1           0       -0.720733   -1.857007   -0.841922
     31          1           0       -1.236560   -3.145881    0.347266
     32          1           0        1.378385   -1.403655    1.545483
     33          1           0       -0.289895   -1.514422    1.525210
     34          1           0        4.446195   -1.887283   -0.896483
     35          1           0        5.124568   -0.900136    0.415735
     36          1           0        4.355454   -2.476225    0.796813
 ---------------------------------------------------------------------

 SCF Done:  E(UB3LYP) =  -783.688704728     A.U. after   33 cycles
 SCF Done:  E(UB3LYP) =  -783.688704728     a.u. after    1 cycles

 The electronic state is 2-A.
 Alpha  occ. eigenvalues --  -19.07467 -19.00835 -14.27711 -14.23232 -14.20062
 Alpha  occ. eigenvalues --  -10.20189 -10.15635 -10.13899 -10.13876 -10.12365
 Alpha  occ. eigenvalues --  -10.09486 -10.08864 -10.08751 -10.08222 -10.08180
 Alpha  occ. eigenvalues --  -10.08143 -10.08139  -1.00825  -0.93468  -0.92080
 Alpha  occ. eigenvalues --   -0.82904  -0.79611  -0.77275  -0.69655  -0.68595
 Alpha  occ. eigenvalues --   -0.65120  -0.62447  -0.59477  -0.54211  -0.53344
 Alpha  occ. eigenvalues --   -0.51521  -0.48620  -0.47862  -0.46592  -0.43882
 Alpha  occ. eigenvalues --   -0.41703  -0.40571  -0.40280  -0.39792  -0.39058
 Alpha  occ. eigenvalues --   -0.37894  -0.37084  -0.35953  -0.35173  -0.34464
 Alpha  occ. eigenvalues --   -0.32826  -0.32203  -0.31752  -0.30763  -0.30274
 Alpha  occ. eigenvalues --   -0.28622  -0.28377  -0.27628  -0.27103  -0.26753
 Alpha  occ. eigenvalues --   -0.24594  -0.23297  -0.21584  -0.20381  -0.19538
 Alpha  occ. eigenvalues --   -0.18620  -0.18264  -0.17545  -0.11670   0.03851
 Alpha virt. eigenvalues --    0.05595   0.06395   0.07073   0.07484   0.07786
 Alpha virt. eigenvalues --    0.08557   0.09120   0.09491   0.09816   0.10371
 Alpha virt. eigenvalues --    0.10732   0.11108   0.11248   0.11832   0.11986

  Beta  occ. eigenvalues --  -19.07463 -19.00829 -14.27712 -14.23203 -14.20060
  Beta  occ. eigenvalues --  -10.20186 -10.15622 -10.13897 -10.13860 -10.12338
  Beta  occ. eigenvalues --  -10.09487 -10.08843 -10.08726 -10.08199 -10.08151
  Beta  occ. eigenvalues --  -10.08129 -10.08128  -1.00816  -0.93458  -0.92071
  Beta  occ. eigenvalues --   -0.82876  -0.79594  -0.77238  -0.69615  -0.68570
  Beta  occ. eigenvalues --   -0.65095  -0.62407  -0.59444  -0.54156  -0.53314
  Beta  occ. eigenvalues --   -0.51471  -0.48575  -0.47843  -0.46543  -0.43842
  Beta  occ. eigenvalues --   -0.41676  -0.40526  -0.40232  -0.39755  -0.39032
  Beta  occ. eigenvalues --   -0.37864  -0.37065  -0.35923  -0.35141  -0.34428
  Beta  occ. eigenvalues --   -0.32799  -0.32176  -0.31733  -0.30735  -0.30249
  Beta  occ. eigenvalues --   -0.28583  -0.28340  -0.27606  -0.27066  -0.26696
  Beta  occ. eigenvalues --   -0.24552  -0.23255  -0.21566  -0.20351  -0.19510
  Beta  occ. eigenvalues --   -0.18609  -0.18249  -0.17525  -0.11631
  Beta virt. eigenvalues --    0.06029   0.06491   0.07176   0.07338   0.07799
  Beta virt. eigenvalues --    0.08379   0.09073   0.09347   0.09951   0.09976
  Beta virt. eigenvalues --    0.10643   0.10929   0.11397   0.11549   0.12048

 Mulliken charges and spin densities:
               1          2
     1  C    0.915210  -1.442841
     2  C   -0.901415   0.792521
     3  N   -0.073175   0.047353
     4  C    0.736469  -0.648702
     5  C   -1.005057   0.692963
     6  N    0.107471  -0.025272
     7  C    0.853613  -1.199046
     8  C    0.203517  -0.494667
     9  C   -0.359454   0.035156
    10  C   -0.344660   0.513866
    11  C    0.738317  -1.213388
    12  C    0.265361  -0.813364
    13  N   -0.172838  -0.089406
    14  C   -0.067281   0.116752
    15  O   -0.286125  -0.002303
    16  O   -0.168343   0.010196
    17  C    0.101499  -0.370870
    18  H    0.206457  -0.028139
    19  H   -0.171374   0.350725
    20  H    0.030810   0.133263
    21  H    0.055330   0.105275
    22  H   -0.407952   0.631924
    23  H   -0.757754   0.952593
    24  H   -0.201039   0.350804
    25  H   -0.043646   0.228131
    26  H   -0.063596   0.251342
    27  H   -0.386069   0.616261
    28  H   -0.157154   0.323953
    29  H    0.130904  -0.015604
    30  H    0.326794  -0.141890
    31  H   -0.323877   0.480061
    32  H    0.292020   0.055972
    33  H   -0.071769   0.314888
    34  H    0.097586   0.080282
    35  H    0.106569   0.067927
    36  H   -0.205349   0.333284
 Sum of Mulliken charges =  -1.00000   1.00000

 Dipole moment (field-independent basis, Debye):
    X=              3.8655    Y=             -0.0495    Z=             -2.5292  Tot=              4.6197
 Quadrupole moment (field-independent basis, Debye-Ang):
   XX=           -182.2724   YY=           -156.5174   ZZ=           -140.6048
   XY=             -6.2063   XZ=             18.1147   YZ=              5.8541

 Summary of Natural Population Analysis:

                                       Natural Population
                Natural  -----------------------------------------------
    Atom  No    Charge         Core      Valence    Rydberg      Total
 -----------------------------------------------------------------------
      C    1   -0.30868      0.99963     2.30365    0.00539     3.30868
      C    2    0.19646      0.99962     1.78744    0.01648     2.80354
      N    3   -0.23535      0.99967     2.72730    0.00837     3.73535
      C    4   -0.04520      0.99941     2.03309    0.01269     3.04520
      C    5    0.20111      0.99948     1.78633    0.01308     2.79889
      N    6   -0.22011      0.99959     2.71037    0.01015     3.72011
      C    7   -0.08587      0.99960     2.07449    0.01177     3.08587
      C    8   -0.19254      0.99962     2.18326    0.00967     3.19254
      C    9   -0.19196      0.99961     2.18254    0.00982     3.19196
      C   10   -0.11900      0.99958     2.10745    0.01196     3.11900
      C   11   -0.19398      0.99962     2.18650    0.00786     3.19398
      C   12   -0.21054      0.99961     2.20021    0.01072     3.21054
      N   13   -0.40314      0.99971     2.89453    0.00890     3.90314
      C   14    0.38826      0.99961     1.58846    0.02366     2.61174
      O   15   -0.30428      0.99987     3.29928    0.00513     4.30428
      O   16   -0.29743      0.99987     3.28950    0.00806     4.29743
      C   17   -0.10528      0.99960     2.09596    0.00972     3.10528
      H   18    0.11464      0.00000     0.38443    0.00093     0.38536
      H   19    0.10697      0.00000     0.39192    0.00111     0.39303
      H   20    0.10630      0.00000     0.39252    0.00117     0.39370
      H   21    0.10677      0.00000     0.39117    0.00206     0.39323
      H   22    0.10425      0.00000     0.39404    0.00172     0.39575
      H   23    0.10601      0.00000     0.39105    0.00294     0.39399
      H   24    0.09957      0.00000     0.39878    0.00165     0.40043
      H   25    0.10152      0.00000     0.39738    0.00109     0.39848
      H   26    0.09721      0.00000     0.40101    0.00178     0.40279
      H   27    0.10663      0.00000     0.39053    0.00284     0.39337
      H   28    0.10307      0.00000     0.39604    0.00089     0.39693
      H   29    0.09858      0.00000     0.40050    0.00091     0.40142
      H   30    0.10440      0.00000     0.39419    0.00141     0.39560
      H   31    0.10444      0.00000     0.39372    0.00185     0.39556
      H   32    0.20243      0.00000     0.29527    0.00230     0.29757
      H   33    0.19339      0.00000     0.30396    0.00265     0.30661
      H   34    0.09058      0.00000     0.40846    0.00097     0.40942
      H   35    0.09011      0.00000     0.40897    0.00092     0.40989
      H   36    0.09067      0.00000     0.40832    0.00101     0.40933
 =======================================================================
   * Total *    0.00000     16.99371    46.79265    0.21365    64.00000

 Normal termination of Gaussian 16 at Mon Dec 14 14:32:58 2020.
