 Gaussian 16, Revision A.03,

 -----------------------------------------------------------
 # opt freq B3LYP/6-31G(d) empiricaldispersion=gd3bj scf=xqc
 -----------------------------------------------------------

 ------------------------------
 CID_67611189_JID_3849_neutraal
 ------------------------------
 Symbolic Z-matrix:
 Charge =  0 Multiplicity = 1

 SCF Done:  E(RB3LYP) =  -1347.73989015     A.U. after   16 cycles
 SCF Done:  E(RB3LYP) =  -1347.75655185     A.U. after   14 cycles
 SCF Done:  E(RB3LYP) =  -1347.75859982     A.U. after   14 cycles
 SCF Done:  E(RB3LYP) =  -1347.75779115     A.U. after   13 cycles
 SCF Done:  E(RB3LYP) =  -1347.76060714     A.U. after   14 cycles
 SCF Done:  E(RB3LYP) =  -1347.76335061     A.U. after   15 cycles
 SCF Done:  E(RB3LYP) =  -1347.76472735     A.U. after   13 cycles
 SCF Done:  E(RB3LYP) =  -1347.76561079     A.U. after   13 cycles
 SCF Done:  E(RB3LYP) =  -1347.76599756     A.U. after   13 cycles
 SCF Done:  E(RB3LYP) =  -1347.76608156     A.U. after   11 cycles
 SCF Done:  E(RB3LYP) =  -1347.76610280     A.U. after   11 cycles
 SCF Done:  E(RB3LYP) =  -1347.76610625     A.U. after    9 cycles
 SCF Done:  E(RB3LYP) =  -1347.76610809     A.U. after    9 cycles
 SCF Done:  E(RB3LYP) =  -1347.76610881     A.U. after    9 cycles
 Optimization completed.
    -- Stationary point found.
 Normal termination of Gaussian 16 at Thu Dec 10 02:02:24 2020.

 --------------------------------------------------------------------
 #N Geom=AllCheck Guess=TCheck SCRF=Check GenChk RB3LYP/6-31G(d) Freq
 --------------------------------------------------------------------

 Structure from the checkpoint file:  "JID_3849.chk"
 ------------------------------
 CID_67611189_JID_3849_neutraal
 ------------------------------
 Charge =  0 Multiplicity = 1

 SCF Done:  E(RB3LYP) =  -1347.76610881     A.U. after    1 cycles

  Exact polarizability: 153.289  -8.277 110.552  -2.872  -8.056  89.727
 Approx polarizability: 224.409 -13.539 176.830   2.954 -26.177 159.836

                      1                      2                      3
                      A                      A                      A
 Frequencies --     39.7453                47.4708                57.2816
 Red. masses --     11.0988                 4.9388                 4.4266
 Frc consts  --      0.0103                 0.0066                 0.0086
 IR Inten    --      1.1856                 1.3570                 0.7587

                      4                      5                      6
                      A                      A                      A
 Frequencies --     85.0265               134.6608               142.8536
 Red. masses --      8.3400                 1.1043                 4.7796
 Frc consts  --      0.0355                 0.0118                 0.0575
 IR Inten    --      3.3700                 0.1269                 0.2215

                      7                      8                      9
                      A                      A                      A
 Frequencies --    172.3567               191.2212               231.1911
 Red. masses --      6.7680                 5.3875                 6.0614
 Frc consts  --      0.1185                 0.1161                 0.1909
 IR Inten    --      0.8791                 3.3692                 1.4170

                     10                     11                     12
                      A                      A                      A
 Frequencies --    301.0614               320.0950               360.6418
 Red. masses --      4.4155                 6.2261                 7.2238
 Frc consts  --      0.2358                 0.3759                 0.5536
 IR Inten    --      3.3599                 1.4873                 4.2194

                     13                     14                     15
                      A                      A                      A
 Frequencies --    383.7852               441.0564               467.4984
 Red. masses --      9.1723                 9.3625                 6.9719
 Frc consts  --      0.7960                 1.0731                 0.8978
 IR Inten    --      2.2951                 3.0706                 4.0745

                     16                     17                     18
                      A                      A                      A
 Frequencies --    500.1377               568.7015               579.6886
 Red. masses --      3.4268                 3.2975                 1.7856
 Frc consts  --      0.5050                 0.6283                 0.3535
 IR Inten    --     11.7885                18.6496                41.4934

                     19                     20                     21
                      A                      A                      A
 Frequencies --    614.7256               630.6530               658.2549
 Red. masses --      3.2457                 3.7181                 3.5658
 Frc consts  --      0.7226                 0.8713                 0.9103
 IR Inten    --     17.2740                30.9701                68.9353

                     22                     23                     24
                      A                      A                      A
 Frequencies --    694.2260               718.0367               778.8465
 Red. masses --      6.0957                 4.0464                 1.9221
 Frc consts  --      1.7309                 1.2292                 0.6869
 IR Inten    --      0.8579                24.8160                27.0866

                     25                     26                     27
                      A                      A                      A
 Frequencies --    814.9646               836.4286               887.7800
 Red. masses --      3.3311                 3.1326                 5.6962
 Frc consts  --      1.3035                 1.2913                 2.6451
 IR Inten    --     13.3057                 8.7858                15.6142

                     28                     29                     30
                      A                      A                      A
 Frequencies --    960.1637               991.9453              1009.3868
 Red. masses --      7.3774                 1.1846                 1.3436
 Frc consts  --      4.0072                 0.6867                 0.8065
 IR Inten    --     28.0693                 4.1808                21.0289

                     31                     32                     33
                      A                      A                      A
 Frequencies --   1022.3684              1061.5917              1091.7749
 Red. masses --      3.0303                 4.0369                 4.6658
 Frc consts  --      1.8662                 2.6805                 3.2768
 IR Inten    --     16.1822                11.5950                26.4673

                     34                     35                     36
                      A                      A                      A
 Frequencies --   1130.5441              1151.2407              1218.5729
 Red. masses --      5.6388                 1.6553                 1.6443
 Frc consts  --      4.2463                 1.2926                 1.4385
 IR Inten    --    166.6500                14.7661               109.9137

                     37                     38                     39
                      A                      A                      A
 Frequencies --   1242.4315              1271.4086              1287.2956
 Red. masses --      1.7874                 1.4799                 7.2802
 Frc consts  --      1.6256                 1.4094                 7.1081
 IR Inten    --     42.8022                20.3557               226.0551

                     40                     41                     42
                      A                      A                      A
 Frequencies --   1385.0602              1408.2718              1480.9252
 Red. masses --      1.1552                 3.1471                 1.1074
 Frc consts  --      1.3057                 3.6773                 1.4309
 IR Inten    --      1.6932                48.7166                 8.2650

                     43                     44                     45
                      A                      A                      A
 Frequencies --   1493.3633              1511.0250              1627.1755
 Red. masses --      1.0531                 1.0536                 7.8904
 Frc consts  --      1.3838                 1.4173                12.3088
 IR Inten    --     10.5475                13.7564                20.8460

                     46                     47                     48
                      A                      A                      A
 Frequencies --   1844.4814              1915.1515              3075.3410
 Red. masses --     10.5787                12.9530                 1.0288
 Frc consts  --     21.2047                27.9916                 5.7329
 IR Inten    --    279.2245               574.7361                18.6225

                     49                     50                     51
                      A                      A                      A
 Frequencies --   3117.3615              3168.0116              3170.5552
 Red. masses --      1.0597                 1.1055                 1.1086
 Frc consts  --      6.0673                 6.5372                 6.5661
 IR Inten    --      3.0142                 5.4004                 6.2523

                     52                     53                     54
                      A                      A                      A
 Frequencies --   3177.0948              3270.5166              3685.1723
 Red. masses --      1.1080                 1.0947                 1.0641
 Frc consts  --      6.5893                 6.8986                 8.5141
 IR Inten    --      0.6616                 5.2592                65.0203

 - Thermochemistry -
 -------------------
 Temperature   298.150 Kelvin.  Pressure   1.00000 Atm.
 Atom     1 has atomic number  6 and mass  12.00000

 Molecular mass:   216.98674 amu.
 Principal axes and moments of inertia in atomic units:
                           1         2         3
     Eigenvalues --  1945.840473572.705554637.79883
           X            0.99959  -0.02631  -0.01133
           Y            0.02647   0.99955   0.01393
           Z            0.01096  -0.01422   0.99984
 This molecule is an asymmetric top.
 Rotational symmetry number  1.
 Warning -- assumption of classical behavior for rotation
           may cause significant error
 Rotational temperatures (Kelvin)      0.04451     0.02424     0.01868
 Rotational constants (GHZ):           0.92749     0.50515     0.38914
 Zero-point vibrational energy     361431.5 (Joules/Mol)
                                   86.38419 (Kcal/Mol)
 Warning -- explicit consideration of  19 degrees of freedom as
           vibrations may cause significant error
 Vibrational temperatures:     57.18    68.30    82.42   122.33   193.75
          (Kelvin)            205.53   247.98   275.12   332.63   433.16
                              460.55   518.88   552.18   634.58   672.63
                              719.59   818.23   834.04   884.45   907.37
                              947.08   998.84  1033.09  1120.59  1172.55
                             1203.43  1277.32  1381.46  1427.19  1452.28
                             1470.96  1527.39  1570.82  1626.60  1656.38
                             1753.25  1787.58  1829.27  1852.13  1992.79
                             2026.19  2130.72  2148.62  2174.03  2341.14
                             2653.80  2755.48  4424.73  4485.19  4558.06
                             4561.72  4571.13  4705.54  5302.14

 Zero-point correction=                           0.137662 (Hartree/Particle)
 Thermal correction to Energy=                    0.150646
 Thermal correction to Enthalpy=                  0.151590
 Thermal correction to Gibbs Free Energy=         0.096486
 Sum of electronic and zero-point Energies=          -1347.628447
 Sum of electronic and thermal Energies=             -1347.615463
 Sum of electronic and thermal Enthalpies=           -1347.614519
 Sum of electronic and thermal Free Energies=        -1347.669623

                     E (Thermal)             CV                S
                      KCal/Mol        Cal/Mol-Kelvin    Cal/Mol-Kelvin
 Total                   94.532             46.478            115.976
 Electronic               0.000              0.000              0.000
 Translational            0.889              2.981             42.027
 Rotational               0.889              2.981             31.845
 Vibrational             92.754             40.516             42.105
 Vibration     1          0.594              1.981              5.272
 Vibration     2          0.595              1.979              4.920
 Vibration     3          0.596              1.975              4.549
 Vibration     4          0.601              1.960              3.771
 Vibration     5          0.613              1.919              2.878
 Vibration     6          0.616              1.910              2.765
 Vibration     7          0.626              1.876              2.410
 Vibration     8          0.634              1.852              2.216
 Vibration     9          0.653              1.793              1.870
 Vibration    10          0.693              1.672              1.411
 Vibration    11          0.706              1.635              1.310
 Vibration    12          0.735              1.553              1.119
 Vibration    13          0.753              1.505              1.024
 Vibration    14          0.801              1.381              0.823
 Vibration    15          0.825              1.322              0.745
 Vibration    16          0.856              1.250              0.658
 Vibration    17          0.925              1.099              0.507
 Vibration    18          0.936              1.075              0.486
 Vibration    19          0.974              1.001              0.425

                           ! Non-Optimized Parameters !
 Normal termination of Gaussian 16 at Thu Dec 10 02:20:13 2020.

 ----------------------------------------------------------------------
 # B3LYP/6-311++G(d,p) empiricaldispersion=gd3bj scf=xqc pop=npa geom=c
 heck
 ----------------------------------------------------------------------

 --------------------------------------
 CID_67611189_JID_3849_Energie_neutraal
 --------------------------------------
 Structure from the checkpoint file:  "JID_3849.chk"
 Charge =  0 Multiplicity = 1

 SCF Done:  E(RB3LYP) =  -1347.98614614     A.U. after   16 cycles
 Normal termination of Gaussian 16 at Thu Dec 10 02:31:43 2020.

 ----------------------------------------------------------------------
 # B3LYP/6-311++G(d,p) empiricaldispersion=gd3bj scf=xqc pop=npa geom=c
 heck
 ----------------------------------------------------------------------

 ------------------------------------
 CID_67611189_JID_3849_Energie_kation
 ------------------------------------
 Structure from the checkpoint file:  "JID_3849.chk"
 Charge =  1 Multiplicity = 2

 SCF Done:  E(UB3LYP) =  -1347.68874735     A.U. after   22 cycles
 Normal termination of Gaussian 16 at Thu Dec 10 02:43:53 2020.
 Gaussian 16:  ES64L-G16RevA.03 25-Dec-2016

 ----------------------------------------------------------------------
 # B3LYP/6-311++G(d,p) empiricaldispersion=gd3bj scf=xqc pop=npa geom=c
 heck
 ----------------------------------------------------------------------

 -----------------------------------
 CID_67611189_JID_3849_Energie_anion
 -----------------------------------
 Structure from the checkpoint file:  "JID_3849.chk"
 Charge = -1 Multiplicity = 2

                         Standard orientation:
 ---------------------------------------------------------------------
 Center     Atomic      Atomic             Coordinates (Angstroms)
 Number     Number       Type             X           Y           Z
 ---------------------------------------------------------------------
      1          6           0        3.590163   -0.984562   -0.170704
      2         16           0        3.002730    0.742990    0.032321
      3          6           0        1.265826    0.512619   -0.038357
      4          6           0        0.435182    1.068533   -0.938846
      5          7           0       -0.930217    0.794921   -0.702755
      6          6           0       -1.907672    1.654885   -0.121920
      7          8           0       -2.190598    2.796409   -0.351419
      8          6           0       -2.348701    0.559421    0.871308
      9          6           0       -1.181882   -0.269187    0.284908
     10         16           0        0.410265   -0.421134    1.252215
     11          6           0       -1.549078   -1.630905   -0.273267
     12          8           0       -2.378833   -2.356527    0.225374
     13          8           0       -0.824565   -1.947891   -1.363093
     14          1           0        4.681227   -0.945995   -0.120109
     15          1           0        3.281177   -1.381469   -1.139842
     16          1           0        3.212780   -1.619925    0.633035
     17          1           0        0.727102    1.686250   -1.776750
     18          1           0       -2.225239    0.858501    1.913160
     19          1           0       -3.342870    0.133545    0.718119
     20          1           0       -1.101641   -2.845805   -1.626524
 ---------------------------------------------------------------------

 SCF Done:  E(UB3LYP) =  -1347.99162723     A.U. after   28 cycles

 The electronic state is 2-A.
 Alpha  occ. eigenvalues --  -88.73043 -88.71639 -19.04437 -18.99454 -18.97774
 Alpha  occ. eigenvalues --  -14.22383 -10.15975 -10.15766 -10.12275 -10.08081
 Alpha  occ. eigenvalues --  -10.07554 -10.07060 -10.06553  -7.81558  -7.80239
 Alpha  occ. eigenvalues --   -5.77964  -5.77584  -5.76944  -5.76616  -5.76300
 Alpha  occ. eigenvalues --   -5.75643  -0.98321  -0.94089  -0.89192  -0.85781
 Alpha  occ. eigenvalues --   -0.70769  -0.66473  -0.64284  -0.58275  -0.54649
 Alpha  occ. eigenvalues --   -0.53091  -0.46510  -0.44158  -0.41200  -0.38408
 Alpha  occ. eigenvalues --   -0.36202  -0.35780  -0.34664  -0.32853  -0.32289
 Alpha  occ. eigenvalues --   -0.31502  -0.30861  -0.28773  -0.27899  -0.26568
 Alpha  occ. eigenvalues --   -0.26292  -0.25678  -0.22443  -0.22286  -0.20322
 Alpha  occ. eigenvalues --   -0.19184  -0.16299  -0.15965  -0.14099  -0.11496
 Alpha  occ. eigenvalues --   -0.07694   0.04815
 Alpha virt. eigenvalues --    0.07475   0.08694   0.09907   0.10629   0.10966
 Alpha virt. eigenvalues --    0.11496   0.11830   0.12350   0.12758   0.12873
 Alpha virt. eigenvalues --    0.13876   0.15112   0.15509   0.15845   0.16331

  Beta  occ. eigenvalues --  -88.73036 -88.71569 -19.04392 -18.99418 -18.97556
  Beta  occ. eigenvalues --  -14.22423 -10.15882 -10.15470 -10.12196 -10.07894
  Beta  occ. eigenvalues --  -10.07463 -10.07064 -10.06288  -7.81547  -7.80174
  Beta  occ. eigenvalues --   -5.77962  -5.77578  -5.76928  -5.76410  -5.76249
  Beta  occ. eigenvalues --   -5.75608  -0.98051  -0.93995  -0.88870  -0.85640
  Beta  occ. eigenvalues --   -0.70387  -0.66164  -0.63984  -0.57980  -0.54164
  Beta  occ. eigenvalues --   -0.52852  -0.46302  -0.43907  -0.40906  -0.38044
  Beta  occ. eigenvalues --   -0.35969  -0.35498  -0.34365  -0.32689  -0.31565
  Beta  occ. eigenvalues --   -0.31237  -0.30701  -0.28597  -0.27623  -0.26266
  Beta  occ. eigenvalues --   -0.25953  -0.25482  -0.22102  -0.21772  -0.19392
  Beta  occ. eigenvalues --   -0.18766  -0.16142  -0.15681  -0.13804  -0.11376
  Beta  occ. eigenvalues --   -0.07038
  Beta virt. eigenvalues --    0.07716   0.08757   0.09637   0.10204   0.10930
  Beta virt. eigenvalues --    0.11389   0.11668   0.12385   0.12445   0.12988
  Beta virt. eigenvalues --    0.13547   0.14332   0.15316   0.15476   0.15987

 Mulliken charges and spin densities:
               1          2
     1  C   -0.294210  -0.273224
     2  S   -0.442259   0.043275
     3  C    0.381792   0.131637
     4  C   -0.732172   0.210834
     5  N    0.323436  -0.076353
     6  C    0.195197  -0.019843
     7  O   -0.366611   0.020792
     8  C   -0.038559  -0.321887
     9  C    0.436826   0.289734
    10  S   -0.073121   0.148929
    11  C   -0.633322   0.275826
    12  O   -0.339160   0.075484
    13  O   -0.174219   0.014577
    14  H   -0.138714   0.267046
    15  H    0.085456   0.080775
    16  H    0.148608   0.022350
    17  H    0.159499  -0.017029
    18  H    0.019266   0.148280
    19  H    0.225194  -0.028561
    20  H    0.257074   0.007358
 Sum of Mulliken charges =  -1.00000   1.00000

 Dipole moment (field-independent basis, Debye):
    X=              0.0847    Y=             -1.5180    Z=             -1.1712  Tot=              1.9192
 Quadrupole moment (field-independent basis, Debye-Ang):
   XX=           -130.7212   YY=           -119.0319   ZZ=           -100.4040
   XY=              2.0413   XZ=              0.0068   YZ=              5.0043

 Summary of Natural Population Analysis:

                                       Natural Population
                Natural  -----------------------------------------------
    Atom  No    Charge         Core      Valence    Rydberg      Total
 -----------------------------------------------------------------------
      C    1   -0.34191      0.99962     2.33420    0.00810     3.34191
      S    2    0.11607      4.99947     2.86045    0.02401     7.88393
      C    3   -0.15964      0.99940     2.14813    0.01210     3.15964
      C    4    0.02455      0.99935     1.96284    0.01325     2.97545
      N    5   -0.26463      0.99962     2.75318    0.01183     3.76463
      C    6    0.37547      0.99969     1.59902    0.02582     2.62453
      O    7   -0.29648      0.99986     3.28968    0.00694     4.29648
      C    8   -0.23367      0.99954     2.22531    0.00881     3.23367
      C    9   -0.00537      0.99954     1.98571    0.02012     3.00537
      S   10    0.13421      4.99949     2.84740    0.01890     7.86579
      C   11    0.42957      0.99958     1.54446    0.02639     2.57043
      O   12   -0.30308      0.99987     3.29717    0.00604     4.30308
      O   13   -0.34038      0.99987     3.33374    0.00677     4.34038
      H   14    0.09954      0.00000     0.39850    0.00197     0.40046
      H   15    0.10116      0.00000     0.39725    0.00159     0.39884
      H   16    0.10351      0.00000     0.39491    0.00158     0.39649
      H   17    0.10182      0.00000     0.39714    0.00104     0.39818
      H   18    0.11458      0.00000     0.38323    0.00219     0.38542
      H   19    0.11444      0.00000     0.38441    0.00116     0.38556
      H   20    0.23024      0.00000     0.26514    0.00462     0.26976
 =======================================================================
   * Total *   -0.00000     20.99491    34.80186    0.20323    56.00000

 Normal termination of Gaussian 16 at Thu Dec 10 02:57:06 2020.
