 Gaussian 16, Revision A.03,

 -----------------------------------------------------------
 # opt freq B3LYP/6-31G(d) empiricaldispersion=gd3bj scf=xqc
 -----------------------------------------------------------

 -------------------------------
 CID_113893444_JID_7709_neutraal
 -------------------------------
 Symbolic Z-matrix:
 Charge =  0 Multiplicity = 1

 SCF Done:  E(RB3LYP) =  -1121.23300469     A.U. after   15 cycles
 SCF Done:  E(RB3LYP) =  -1121.23287021     A.U. after   15 cycles
 SCF Done:  E(RB3LYP) =  -1121.24093774     A.U. after   13 cycles
 SCF Done:  E(RB3LYP) =  -1121.24114064     A.U. after   15 cycles
 SCF Done:  E(RB3LYP) =  -1121.24288481     A.U. after   13 cycles
 SCF Done:  E(RB3LYP) =  -1121.24477813     A.U. after   12 cycles
 SCF Done:  E(RB3LYP) =  -1121.24544227     A.U. after   12 cycles
 SCF Done:  E(RB3LYP) =  -1121.24677082     A.U. after   13 cycles
 SCF Done:  E(RB3LYP) =  -1121.24717460     A.U. after   16 cycles
 SCF Done:  E(RB3LYP) =  -1121.24965207     A.U. after   13 cycles
 SCF Done:  E(RB3LYP) =  -1121.25557853     A.U. after    6 cycles
 SCF Done:  E(RB3LYP) =  -1121.25557878     A.U. after    7 cycles
 SCF Done:  E(RB3LYP) =  -1121.25557893     A.U. after    7 cycles
 SCF Done:  E(RB3LYP) =  -1121.25557896     A.U. after    7 cycles
 Optimization completed.
    -- Stationary point found.
 Normal termination of Gaussian 16 at Thu Dec 17 20:37:59 2020.

 --------------------------------------------------------------------
 #N Geom=AllCheck Guess=TCheck SCRF=Check GenChk RB3LYP/6-31G(d) Freq
 --------------------------------------------------------------------

 Structure from the checkpoint file:  "JID_7709.chk"
 -------------------------------
 CID_113893444_JID_7709_neutraal
 -------------------------------
 Charge =  0 Multiplicity = 1

 SCF Done:  E(RB3LYP) =  -1121.25557896     A.U. after    1 cycles

  Exact polarizability: 158.139  -3.969 178.602  16.370   6.031 128.541
 Approx polarizability: 231.422 -11.557 269.368  35.976  16.912 217.074

                      1                      2                      3
                      A                      A                      A
 Frequencies --     27.0477                39.0502                57.2259
 Red. masses --      4.4684                 3.5423                 1.2711
 Frc consts  --      0.0019                 0.0032                 0.0025
 IR Inten    --      0.7923                 0.0040                 0.1865

                      4                      5                      6
                      A                      A                      A
 Frequencies --     63.3636                70.3849                96.3949
 Red. masses --      2.7686                 4.1596                 5.1449
 Frc consts  --      0.0065                 0.0121                 0.0282
 IR Inten    --      0.8130                 7.6756                 0.2139

                      7                      8                      9
                      A                      A                      A
 Frequencies --    107.4261               150.4706               155.6859
 Red. masses --      1.0243                 1.0495                 3.6475
 Frc consts  --      0.0070                 0.0140                 0.0521
 IR Inten    --      0.2656                 0.0713                 1.8829

                     10                     11                     12
                      A                      A                      A
 Frequencies --    173.1936               178.5774               212.2956
 Red. masses --      4.2172                 3.3428                 3.8430
 Frc consts  --      0.0745                 0.0628                 0.1020
 IR Inten    --      0.8341                 0.5102                 3.9772

                     13                     14                     15
                      A                      A                      A
 Frequencies --    230.8784               242.7926               257.4769
 Red. masses --      4.5996                 4.6345                 2.6743
 Frc consts  --      0.1445                 0.1610                 0.1045
 IR Inten    --      0.9106                 3.3038                 0.4309

                     16                     17                     18
                      A                      A                      A
 Frequencies --    269.3507               276.9415               345.4461
 Red. masses --      4.3793                 2.5321                 1.4605
 Frc consts  --      0.1872                 0.1144                 0.1027
 IR Inten    --      1.1694                 5.4046                56.4181

                     19                     20                     21
                      A                      A                      A
 Frequencies --    352.4371               398.2753               409.8528
 Red. masses --      2.6740                 4.6779                 3.8523
 Frc consts  --      0.1957                 0.4372                 0.3813
 IR Inten    --     32.1314                 5.7711                 0.4017

                     22                     23                     24
                      A                      A                      A
 Frequencies --    457.1002               476.6552               513.8104
 Red. masses --      5.8306                 4.9166                 4.8175
 Frc consts  --      0.7178                 0.6581                 0.7493
 IR Inten    --      3.0289                 1.7966                 2.9578

                     25                     26                     27
                      A                      A                      A
 Frequencies --    613.7603               642.4839               643.2888
 Red. masses --      4.1314                 5.1883                 4.7743
 Frc consts  --      0.9170                 1.2618                 1.1641
 IR Inten    --     12.7352                 3.2512                 8.6634

                     28                     29                     30
                      A                      A                      A
 Frequencies --    659.8447               694.2333               698.4164
 Red. masses --      4.8987                 3.5706                 5.1255
 Frc consts  --      1.2566                 1.0139                 1.4730
 IR Inten    --      0.0158                14.3953                25.4124

                     31                     32                     33
                      A                      A                      A
 Frequencies --    729.6828               761.1617               773.5091
 Red. masses --      4.1253                 4.3646                 3.6693
 Frc consts  --      1.2941                 1.4899                 1.2935
 IR Inten    --     14.1496                 9.1242                 2.4489

                     34                     35                     36
                      A                      A                      A
 Frequencies --    796.2448               886.4922               917.8237
 Red. masses --      1.6845                 1.2725                 1.3183
 Frc consts  --      0.6293                 0.5892                 0.6543
 IR Inten    --     10.3184               102.2622                20.0017

                     37                     38                     39
                      A                      A                      A
 Frequencies --    933.0724               977.0499              1004.5516
 Red. masses --      2.7967                 3.4895                 3.5201
 Frc consts  --      1.4346                 1.9627                 2.0929
 IR Inten    --      4.6637                 6.4876                23.0452

                     40                     41                     42
                      A                      A                      A
 Frequencies --   1007.2235              1014.5993              1034.0051
 Red. masses --      2.2563                 2.2127                 2.0808
 Frc consts  --      1.3486                 1.3420                 1.3108
 IR Inten    --      4.2078                 0.3694                15.3869

                     43                     44                     45
                      A                      A                      A
 Frequencies --   1055.8491              1078.0194              1083.6232
 Red. masses --      2.8876                 1.4297                 1.5524
 Frc consts  --      1.8967                 0.9789                 1.0740
 IR Inten    --     17.0370                 5.8793                 3.6156

                     46                     47                     48
                      A                      A                      A
 Frequencies --   1085.2467              1123.9844              1134.5332
 Red. masses --      1.5651                 5.5667                 2.2890
 Frc consts  --      1.0860                 4.1435                 1.7360
 IR Inten    --      6.1286                36.8007                13.5693

                     49                     50                     51
                      A                      A                      A
 Frequencies --   1158.7448              1168.3539              1196.0073
 Red. masses --      1.3305                 1.1312                 1.5046
 Frc consts  --      1.0526                 0.9097                 1.2680
 IR Inten    --      8.9805                 2.0635                14.8298

                     52                     53                     54
                      A                      A                      A
 Frequencies --   1214.2196              1216.8499              1257.1447
 Red. masses --      2.6190                 1.9175                 1.6645
 Frc consts  --      2.2750                 1.6729                 1.5499
 IR Inten    --      9.3559                23.5660                20.7734

                     55                     56                     57
                      A                      A                      A
 Frequencies --   1277.4613              1294.2352              1336.0117
 Red. masses --      3.3416                 1.3222                 2.8477
 Frc consts  --      3.2130                 1.3049                 2.9948
 IR Inten    --     21.3948                12.5126                 4.4077

                     58                     59                     60
                      A                      A                      A
 Frequencies --   1372.9469              1374.0097              1415.8389
 Red. masses --      2.5512                 1.9686                 5.0374
 Frc consts  --      2.8334                 2.1898                 5.9496
 IR Inten    --      4.7119                 2.0454                 3.8332

                     61                     62                     63
                      A                      A                      A
 Frequencies --   1429.9077              1446.7624              1449.6063
 Red. masses --      3.2231                 1.3689                 1.4770
 Frc consts  --      3.8827                 1.6881                 1.8286
 IR Inten    --     26.7756                 1.2473                 4.5952

                     64                     65                     66
                      A                      A                      A
 Frequencies --   1452.3273              1472.7478              1497.9657
 Red. masses --      1.4432                 1.4690                 2.1304
 Frc consts  --      1.7935                 1.8773                 2.8165
 IR Inten    --      3.4440                18.0142                11.5484

                     67                     68                     69
                      A                      A                      A
 Frequencies --   1502.7658              1506.6286              1508.2317
 Red. masses --      1.0542                 1.0448                 1.0663
 Frc consts  --      1.4027                 1.3973                 1.4292
 IR Inten    --      2.2738                 7.4235                 6.0942

                     70                     71                     72
                      A                      A                      A
 Frequencies --   1518.3975              1520.4915              1529.9893
 Red. masses --      1.3200                 1.0975                 1.8096
 Frc consts  --      1.7930                 1.4949                 2.4959
 IR Inten    --     15.3738                 2.9366                 6.9986

                     73                     74                     75
                      A                      A                      A
 Frequencies --   1534.8182              1548.4954              1604.7021
 Red. masses --      1.5057                 1.2570                 4.9967
 Frc consts  --      2.0898                 1.7759                 7.5810
 IR Inten    --     17.9573                 8.0170                25.2583

                     76                     77                     78
                      A                      A                      A
 Frequencies --   1686.7508              1713.7037              2966.3063
 Red. masses --      7.3422                 1.0843                 1.0717
 Frc consts  --     12.3077                 1.8762                 5.5561
 IR Inten    --     30.6353                39.2286                86.2831

                     79                     80                     81
                      A                      A                      A
 Frequencies --   3045.3033              3049.7165              3053.4023
 Red. masses --      1.0899                 1.0373                 1.0366
 Frc consts  --      5.9554                 5.6843                 5.6943
 IR Inten    --     38.9138                23.8139                28.3879

                     82                     83                     84
                      A                      A                      A
 Frequencies --   3064.7299              3078.3814              3106.4084
 Red. masses --      1.0367                 1.0853                 1.1020
 Frc consts  --      5.7373                 6.0597                 6.2652
 IR Inten    --     57.7115                20.4719                 9.8221

                     85                     86                     87
                      A                      A                      A
 Frequencies --   3108.5055              3134.4045              3136.0534
 Red. masses --      1.1017                 1.1013                 1.0999
 Frc consts  --      6.2720                 6.3750                 6.3731
 IR Inten    --     16.4079                16.0583                15.9130

                     88                     89                     90
                      A                      A                      A
 Frequencies --   3144.7295              3166.9973              3267.6226
 Red. masses --      1.0994                 1.1056                 1.0975
 Frc consts  --      6.4057                 6.5333                 6.9043
 IR Inten    --     13.2453                 8.6434                 0.7928

                     91                     92                     93
                      A                      A                      A
 Frequencies --   3298.1844              3465.5442              3555.7532
 Red. masses --      1.0971                 1.0510                 1.0926
 Frc consts  --      7.0316                 7.4368                 8.1392
 IR Inten    --      2.0174                26.0217                10.3267

 - Thermochemistry -
 -------------------
 Temperature   298.150 Kelvin.  Pressure   1.00000 Atm.
 Atom     1 has atomic number  6 and mass  12.00000

 Molecular mass:   252.10448 amu.
 Principal axes and moments of inertia in atomic units:
                           1         2         3
     Eigenvalues --  3696.805074028.789945877.06607
           X            0.99819   0.04946   0.03423
           Y           -0.04869   0.99855  -0.02305
           Z           -0.03532   0.02134   0.99915
 This molecule is an asymmetric top.
 Rotational symmetry number  1.
 Warning -- assumption of classical behavior for rotation
           may cause significant error
 Rotational temperatures (Kelvin)      0.02343     0.02150     0.01474
 Rotational constants (GHZ):           0.48819     0.44796     0.30708
 Zero-point vibrational energy     710336.5 (Joules/Mol)
                                  169.77450 (Kcal/Mol)
 Warning -- explicit consideration of  25 degrees of freedom as
           vibrations may cause significant error
 Vibrational temperatures:     38.92    56.18    82.34    91.17   101.27
          (Kelvin)            138.69   154.56   216.49   224.00   249.19
                              256.93   305.45   332.18   349.32   370.45
                              387.54   398.46   497.02   507.08   573.03
                              589.69   657.67   685.80   739.26   883.06
                              924.39   925.55   949.37   998.85  1004.87
                             1049.85  1095.14  1112.91  1145.62  1275.46
                             1320.54  1342.48  1405.76  1445.33  1449.17
                             1459.78  1487.70  1519.13  1551.03  1559.09
                             1561.43  1617.16  1632.34  1667.18  1681.00
                             1720.79  1746.99  1750.78  1808.75  1837.98
                             1862.12  1922.22  1975.36  1976.89  2037.08
                             2057.32  2081.57  2085.66  2089.58  2118.96
                             2155.24  2162.14  2167.70  2170.01  2184.64
                             2187.65  2201.31  2208.26  2227.94  2308.81
                             2426.86  2465.64  4267.85  4381.51  4387.86
                             4393.16  4409.46  4429.10  4469.43  4472.45
                             4509.71  4512.08  4524.56  4556.60  4701.38
                             4745.35  4986.15  5115.94

 Zero-point correction=                           0.270553 (Hartree/Particle)
 Thermal correction to Energy=                    0.288341
 Thermal correction to Enthalpy=                  0.289285
 Thermal correction to Gibbs Free Energy=         0.223549
 Sum of electronic and zero-point Energies=          -1120.985026
 Sum of electronic and thermal Energies=             -1120.967238
 Sum of electronic and thermal Enthalpies=           -1120.966294
 Sum of electronic and thermal Free Energies=        -1121.032030

                     E (Thermal)             CV                S
                      KCal/Mol        Cal/Mol-Kelvin    Cal/Mol-Kelvin
 Total                  180.937             64.344            138.353
 Electronic               0.000              0.000              0.000
 Translational            0.889              2.981             42.474
 Rotational               0.889              2.981             32.837
 Vibrational            179.159             58.382             63.042
 Vibration     1          0.593              1.984              6.035
 Vibration     2          0.594              1.981              5.307
 Vibration     3          0.596              1.975              4.551
 Vibration     4          0.597              1.972              4.350
 Vibration     5          0.598              1.968              4.143
 Vibration     6          0.603              1.952              3.526
 Vibration     7          0.606              1.943              3.315
 Vibration     8          0.618              1.902              2.666
 Vibration     9          0.620              1.896              2.602
 Vibration    10          0.627              1.875              2.401
 Vibration    11          0.629              1.869              2.343
 Vibration    12          0.643              1.822              2.024
 Vibration    13          0.653              1.794              1.872
 Vibration    14          0.659              1.775              1.782
 Vibration    15          0.667              1.750              1.679
 Vibration    16          0.674              1.730              1.600
 Vibration    17          0.678              1.716              1.552
 Vibration    18          0.724              1.585              1.187
 Vibration    19          0.729              1.570              1.155
 Vibration    20          0.765              1.474              0.969
 Vibration    21          0.774              1.449              0.927
 Vibration    22          0.815              1.345              0.775
 Vibration    23          0.833              1.302              0.719
 Vibration    24          0.869              1.219              0.624
 Vibration    25          0.973              1.003              0.427

                           ! Non-Optimized Parameters !
 Normal termination of Gaussian 16 at Thu Dec 17 20:51:11 2020.

 ----------------------------------------------------------------------
 # B3LYP/6-311++G(d,p) empiricaldispersion=gd3bj scf=xqc pop=npa geom=c
 heck
 ----------------------------------------------------------------------

 ---------------------------------------
 CID_113893444_JID_7709_Energie_neutraal
 ---------------------------------------
 Structure from the checkpoint file:  "JID_7709.chk"
 Charge =  0 Multiplicity = 1

 SCF Done:  E(RB3LYP) =  -1121.48269565     A.U. after   16 cycles
 Normal termination of Gaussian 16 at Thu Dec 17 20:57:01 2020.

 ----------------------------------------------------------------------
 # B3LYP/6-311++G(d,p) empiricaldispersion=gd3bj scf=xqc pop=npa geom=c
 heck
 ----------------------------------------------------------------------

 -------------------------------------
 CID_113893444_JID_7709_Energie_kation
 -------------------------------------
 Structure from the checkpoint file:  "JID_7709.chk"
 Charge =  1 Multiplicity = 2

 SCF Done:  E(UB3LYP) =  -1121.19538023     A.U. after   33 cycles
 SCF Done:  E(UB3LYP) =  -1121.19538023     a.u. after    1 cycles
 Normal termination of Gaussian 16 at Thu Dec 17 21:12:49 2020.
 Gaussian 16:  ES64L-G16RevA.03 25-Dec-2016

 ----------------------------------------------------------------------
 # B3LYP/6-311++G(d,p) empiricaldispersion=gd3bj scf=xqc pop=npa geom=c
 heck
 ----------------------------------------------------------------------

 ------------------------------------
 CID_113893444_JID_7709_Energie_anion
 ------------------------------------
 Structure from the checkpoint file:  "JID_7709.chk"
 Charge = -1 Multiplicity = 2

                         Standard orientation:
 ---------------------------------------------------------------------
 Center     Atomic      Atomic             Coordinates (Angstroms)
 Number     Number       Type             X           Y           Z
 ---------------------------------------------------------------------
      1          6           0        3.454862    1.349175    1.222813
      2          6           0        2.410291    0.926803    0.243776
      3          6           0        1.508937    1.679006   -0.453054
      4          8           0        0.756818    0.821202   -1.217820
      5          6           0        1.226736   -0.427406   -0.923413
      6          7           0        2.211433   -0.414987   -0.072429
      7         16           0        0.404014   -1.809838   -1.613102
      8          6           0       -0.962608   -2.060202   -0.303172
      9          6           0       -0.492456   -3.044579    0.773878
     10          7           0        0.550328   -2.494394    1.634762
     11          6           0       -1.490997   -0.752766    0.178978
     12          6           0       -2.446551    0.025348   -0.458660
     13          7           0       -2.539331    1.189635    0.229008
     14          7           0       -1.702601    1.224760    1.296248
     15          6           0       -1.063115    0.055032    1.265616
     16          6           0       -3.458852    2.285063    0.007326
     17          6           0        1.145610    3.117225   -0.494257
     18          1           0        3.265704    0.906653    2.207540
     19          1           0        3.474475    2.436965    1.336611
     20          1           0        4.449161    1.019360    0.900949
     21          1           0       -1.726670   -2.567964   -0.901307
     22          1           0       -1.365304   -3.275062    1.400560
     23          1           0       -0.208558   -3.979099    0.259232
     24          1           0        0.856409   -3.206896    2.293607
     25          1           0        1.364873   -2.222684    1.083959
     26          1           0       -3.031484   -0.156658   -1.349376
     27          1           0       -0.312555   -0.192155    2.000593
     28          1           0       -4.308634    2.231575    0.696501
     29          1           0       -2.931052    3.227299    0.168383
     30          1           0       -3.823435    2.242953   -1.021440
     31          1           0        1.117841    3.496009   -1.522283
     32          1           0        0.157190    3.270626   -0.044166
     33          1           0        1.873320    3.705561    0.070724
 ---------------------------------------------------------------------

 SCF Done:  E(UB3LYP) =  -1121.47055529     A.U. after   33 cycles
 SCF Done:  E(UB3LYP) =  -1121.47055529     a.u. after    1 cycles

 The electronic state is 2-A.
 Alpha  occ. eigenvalues --  -88.75033 -19.08803 -14.28731 -14.22240 -14.20724
 Alpha  occ. eigenvalues --  -14.19610 -10.16734 -10.12799 -10.11910 -10.10904
 Alpha  occ. eigenvalues --  -10.10541 -10.10212 -10.10041 -10.07917 -10.07887
 Alpha  occ. eigenvalues --  -10.07817 -10.07052  -7.83645  -5.80048  -5.79679
 Alpha  occ. eigenvalues --   -5.78993  -1.02576  -0.94527  -0.82114  -0.79507
 Alpha  occ. eigenvalues --   -0.74006  -0.72381  -0.70102  -0.66530  -0.63883
 Alpha  occ. eigenvalues --   -0.62474  -0.59194  -0.56006  -0.52593  -0.50171
 Alpha  occ. eigenvalues --   -0.47735  -0.46910  -0.46049  -0.42089  -0.40383
 Alpha  occ. eigenvalues --   -0.38765  -0.38306  -0.37464  -0.37023  -0.34065
 Alpha  occ. eigenvalues --   -0.33726  -0.32847  -0.32530  -0.32191  -0.31754
 Alpha  occ. eigenvalues --   -0.31196  -0.30446  -0.30203  -0.29987  -0.28746
 Alpha  occ. eigenvalues --   -0.28000  -0.27041  -0.27004  -0.24534  -0.21176
 Alpha  occ. eigenvalues --   -0.19451  -0.18940  -0.15790  -0.15188  -0.14671
 Alpha  occ. eigenvalues --   -0.13409  -0.12796   0.04360
 Alpha virt. eigenvalues --    0.06050   0.06391   0.06484   0.08100   0.08258
 Alpha virt. eigenvalues --    0.08743   0.09485   0.09735   0.10114   0.10652
 Alpha virt. eigenvalues --    0.11132   0.11503   0.11775   0.12413   0.12629

  Beta  occ. eigenvalues --  -88.75021 -19.08736 -14.28727 -14.22236 -14.20665
  Beta  occ. eigenvalues --  -14.19599 -10.16667 -10.12766 -10.11816 -10.10906
  Beta  occ. eigenvalues --  -10.10481 -10.10185 -10.10057 -10.07911 -10.07868
  Beta  occ. eigenvalues --  -10.07789 -10.07051  -7.83630  -5.80033  -5.79668
  Beta  occ. eigenvalues --   -5.78982  -1.02468  -0.94515  -0.82008  -0.79476
  Beta  occ. eigenvalues --   -0.73974  -0.72284  -0.70037  -0.66453  -0.63841
  Beta  occ. eigenvalues --   -0.62377  -0.59126  -0.55943  -0.52534  -0.50116
  Beta  occ. eigenvalues --   -0.47673  -0.46849  -0.45979  -0.42022  -0.40335
  Beta  occ. eigenvalues --   -0.38619  -0.38206  -0.37428  -0.36934  -0.34009
  Beta  occ. eigenvalues --   -0.33640  -0.32794  -0.32472  -0.32146  -0.31704
  Beta  occ. eigenvalues --   -0.31103  -0.30393  -0.30151  -0.29947  -0.28696
  Beta  occ. eigenvalues --   -0.27951  -0.26966  -0.26948  -0.24358  -0.20876
  Beta  occ. eigenvalues --   -0.19369  -0.18920  -0.15746  -0.15146  -0.14638
  Beta  occ. eigenvalues --   -0.13280  -0.12640
  Beta virt. eigenvalues --    0.06264   0.06676   0.07012   0.07388   0.08443
  Beta virt. eigenvalues --    0.08635   0.09353   0.09613   0.09854   0.10227
  Beta virt. eigenvalues --    0.11043   0.11398   0.11746   0.12051   0.12496

 Mulliken charges and spin densities:
               1          2
     1  C    0.364900  -0.923872
     2  C    0.248541   0.189717
     3  C   -1.025486   1.049498
     4  O    0.277512   0.016227
     5  C   -0.515720   0.053321
     6  N    0.164631   0.072957
     7  S   -0.130639  -0.046263
     8  C    0.500627   0.171513
     9  C   -0.699767  -0.179247
    10  N   -0.436164  -0.022055
    11  C   -0.623258   0.038082
    12  C    0.413429  -0.170246
    13  N   -0.023193   0.140742
    14  N   -0.242528   0.208683
    15  C   -0.312915  -0.346747
    16  C    1.656440  -1.918448
    17  C    0.440232  -1.270018
    18  H    0.028820   0.129072
    19  H   -0.038329   0.173069
    20  H    0.040068   0.110186
    21  H    0.260485   0.002414
    22  H    0.014122   0.153530
    23  H    0.114795   0.019160
    24  H    0.168632   0.076314
    25  H    0.247003   0.004691
    26  H   -0.452140   0.619715
    27  H    0.239721  -0.004297
    28  H   -0.422920   0.600360
    29  H   -0.326338   0.499083
    30  H   -0.637522   0.797866
    31  H   -0.052102   0.209412
    32  H    0.012655   0.156366
    33  H   -0.253593   0.389217
 Sum of Mulliken charges =  -1.00000   1.00000

 Dipole moment (field-independent basis, Debye):
    X=              4.5473    Y=             -6.3706    Z=              0.7222  Tot=              7.8603
 Quadrupole moment (field-independent basis, Debye-Ang):
   XX=           -177.7173   YY=           -156.8833   ZZ=           -142.7858
   XY=             17.0107   XZ=             -1.9806   YZ=              0.3478

 Summary of Natural Population Analysis:

                                       Natural Population
                Natural  -----------------------------------------------
    Atom  No    Charge         Core      Valence    Rydberg      Total
 -----------------------------------------------------------------------
      C    1   -0.29291      0.99963     2.28859    0.00469     3.29291
      C    2    0.03144      0.99946     1.95464    0.01447     2.96856
      C    3    0.14737      0.99939     1.83831    0.01493     2.85263
      O    4   -0.23190      0.99985     3.22321    0.00884     4.23190
      C    5    0.18046      0.99957     1.79457    0.02540     2.81954
      N    6   -0.25551      0.99964     2.74551    0.01035     3.75551
      S    7    0.09610      4.99952     2.88742    0.01696     7.90390
      C    8   -0.13725      0.99950     2.12303    0.01472     3.13725
      C    9   -0.08807      0.99960     2.07793    0.01054     3.08807
      N   10   -0.43179      0.99977     2.92155    0.01048     3.93179
      C   11   -0.09620      0.99950     2.08357    0.01313     3.09620
      C   12    0.01185      0.99949     1.97719    0.01147     2.98815
      N   13   -0.10348      0.99967     2.59043    0.01338     3.60348
      N   14   -0.15666      0.99973     2.64496    0.01197     3.65666
      C   15   -0.00545      0.99957     1.99165    0.01423     3.00545
      C   16   -0.17058      0.99963     2.16233    0.00862     3.17058
      C   17   -0.30778      0.99963     2.30226    0.00590     3.30778
      H   18    0.10519      0.00000     0.39361    0.00119     0.39481
      H   19    0.10414      0.00000     0.39494    0.00092     0.39586
      H   20    0.10313      0.00000     0.39562    0.00125     0.39687
      H   21    0.10614      0.00000     0.39273    0.00113     0.39386
      H   22    0.09320      0.00000     0.40535    0.00144     0.40680
      H   23    0.07920      0.00000     0.41922    0.00158     0.42080
      H   24    0.17188      0.00000     0.32671    0.00141     0.32812
      H   25    0.18977      0.00000     0.30788    0.00235     0.31023
      H   26    0.10524      0.00000     0.39354    0.00122     0.39476
      H   27    0.11292      0.00000     0.38555    0.00153     0.38708
      H   28    0.09947      0.00000     0.39837    0.00216     0.40053
      H   29    0.10581      0.00000     0.39216    0.00202     0.39419
      H   30    0.10304      0.00000     0.39396    0.00300     0.39696
      H   31    0.10691      0.00000     0.39201    0.00108     0.39309
      H   32    0.11701      0.00000     0.38139    0.00160     0.38299
      H   33    0.10728      0.00000     0.39162    0.00109     0.39272
 =======================================================================
   * Total *   -0.00000     20.99313    45.77182    0.23505    67.00000

 Normal termination of Gaussian 16 at Thu Dec 17 21:28:27 2020.
