 Gaussian 16, Revision A.03,

 -----------------------------------------------------------
 # opt freq B3LYP/6-31G(d) empiricaldispersion=gd3bj scf=xqc
 -----------------------------------------------------------

 -----------------------------
 CID_90043942_JID_826_neutraal
 -----------------------------
 Symbolic Z-matrix:
 Charge =  0 Multiplicity = 1

 SCF Done:  E(RB3LYP) =  -547.752464583     A.U. after   15 cycles
 SCF Done:  E(RB3LYP) =  -547.760790854     A.U. after   13 cycles
 SCF Done:  E(RB3LYP) =  -547.761453938     A.U. after   12 cycles
 SCF Done:  E(RB3LYP) =  -547.761276386     A.U. after   12 cycles
 SCF Done:  E(RB3LYP) =  -547.761800661     A.U. after   11 cycles
 SCF Done:  E(RB3LYP) =  -547.762067277     A.U. after   11 cycles
 SCF Done:  E(RB3LYP) =  -547.762082624     A.U. after   10 cycles
 SCF Done:  E(RB3LYP) =  -547.762088312     A.U. after   10 cycles
 SCF Done:  E(RB3LYP) =  -547.762089343     A.U. after    8 cycles
 SCF Done:  E(RB3LYP) =  -547.762089651     A.U. after    8 cycles
 SCF Done:  E(RB3LYP) =  -547.762089699     A.U. after    7 cycles
 SCF Done:  E(RB3LYP) =  -547.762089741     A.U. after    7 cycles
 SCF Done:  E(RB3LYP) =  -547.762089770     A.U. after    7 cycles
 SCF Done:  E(RB3LYP) =  -547.762089786     A.U. after    7 cycles
 Optimization completed.
    -- Stationary point found.
 Normal termination of Gaussian 16 at Tue Dec  8 13:09:03 2020.

 --------------------------------------------------------------------
 #N Geom=AllCheck Guess=TCheck SCRF=Check GenChk RB3LYP/6-31G(d) Freq
 --------------------------------------------------------------------

 Structure from the checkpoint file:  "JID_826.chk"
 -----------------------------
 CID_90043942_JID_826_neutraal
 -----------------------------
 Charge =  0 Multiplicity = 1

 SCF Done:  E(RB3LYP) =  -547.762089786     A.U. after    1 cycles

  Exact polarizability: 112.652  -1.191  68.554  -3.552   0.386  45.423
 Approx polarizability: 132.321  -6.795 111.462  -5.759   1.493  62.747

                      1                      2                      3
                      A                      A                      A
 Frequencies --     19.6770                58.8145                84.8569
 Red. masses --      4.7487                 4.1246                 4.6318
 Frc consts  --      0.0011                 0.0084                 0.0197
 IR Inten    --      3.1142                 1.7522                 0.7135

                      4                      5                      6
                      A                      A                      A
 Frequencies --    114.9313               129.5302               227.3460
 Red. masses --      5.0161                 3.1667                 1.3010
 Frc consts  --      0.0390                 0.0313                 0.0396
 IR Inten    --      1.4738                 1.9948                 4.1284

                      7                      8                      9
                      A                      A                      A
 Frequencies --    288.1573               301.2393               323.3307
 Red. masses --      3.8813                 3.4524                 3.3669
 Frc consts  --      0.1899                 0.1846                 0.2074
 IR Inten    --      3.5854                 5.7160                15.3293

                     10                     11                     12
                      A                      A                      A
 Frequencies --    360.1565               379.6815               439.0621
 Red. masses --      2.7146                 1.3531                 1.4815
 Frc consts  --      0.2075                 0.1149                 0.1683
 IR Inten    --      1.6766                23.8996                55.4052

                     13                     14                     15
                      A                      A                      A
 Frequencies --    454.9814               510.9755               585.8209
 Red. masses --      1.9578                 2.9815                 2.0148
 Frc consts  --      0.2388                 0.4587                 0.4074
 IR Inten    --     20.5769                 2.7009               120.9729

                     16                     17                     18
                      A                      A                      A
 Frequencies --    627.9558               715.3160               735.1829
 Red. masses --      4.5950                 1.9999                 3.3631
 Frc consts  --      1.0676                 0.6029                 1.0710
 IR Inten    --     33.7079               221.1920                24.6262

                     19                     20                     21
                      A                      A                      A
 Frequencies --    763.1034               810.9727               822.4318
 Red. masses --     12.0333                 1.5823                 1.2640
 Frc consts  --      4.1286                 0.6131                 0.5037
 IR Inten    --     21.6726               336.3338                 6.4554

                     22                     23                     24
                      A                      A                      A
 Frequencies --    882.9485               961.3382               976.5575
 Red. masses --      3.4549                 6.7047                 3.6948
 Frc consts  --      1.5869                 3.6507                 2.0761
 IR Inten    --     46.3311                61.6557                 2.7897

                     25                     26                     27
                      A                      A                      A
 Frequencies --   1025.2467              1110.2044              1143.6027
 Red. masses --      3.6241                 3.3329                 2.4960
 Frc consts  --      2.2444                 2.4203                 1.9233
 IR Inten    --     70.2195                 6.5939                50.6135

                     28                     29                     30
                      A                      A                      A
 Frequencies --   1151.2732              1209.9559              1217.4245
 Red. masses --      1.3963                 1.6561                 1.8528
 Frc consts  --      1.0904                 1.4285                 1.6179
 IR Inten    --     11.5427                58.3584                 9.0083

                     31                     32                     33
                      A                      A                      A
 Frequencies --   1288.2545              1345.9056              1420.1841
 Red. masses --      5.9363                 1.1198                 1.2746
 Frc consts  --      5.8045                 1.1951                 1.5147
 IR Inten    --   1088.0769                21.3334                29.9974

                     34                     35                     36
                      A                      A                      A
 Frequencies --   1445.6729              1480.5634              1515.4919
 Red. masses --      1.3288                 3.7492                 1.0495
 Frc consts  --      1.6363                 4.8422                 1.4202
 IR Inten    --      9.6893               104.3124                10.4683

                     37                     38                     39
                      A                      A                      A
 Frequencies --   1520.4721              1539.1314              1647.9036
 Red. masses --      1.0798                 1.0579                 1.2806
 Frc consts  --      1.4708                 1.4766                 2.0489
 IR Inten    --     10.3551                 9.5260                16.3551

                     40                     41                     42
                      A                      A                      A
 Frequencies --   1668.4691              1752.4537              1864.6617
 Red. masses --      1.2194                 3.8633                11.6981
 Frc consts  --      2.0001                 6.9904                23.9644
 IR Inten    --    168.0494               306.5602               256.8129

                     43                     44                     45
                      A                      A                      A
 Frequencies --   3061.3021              3093.8362              3127.4312
 Red. masses --      1.0363                 1.0591                 1.1014
 Frc consts  --      5.7222                 5.9729                 6.3470
 IR Inten    --     17.0823                28.3875                27.1415

                     46                     47                     48
                      A                      A                      A
 Frequencies --   3139.7863              3159.8507              3519.2094
 Red. masses --      1.1048                 1.1071                 1.0488
 Frc consts  --      6.4171                 6.5130                 7.6530
 IR Inten    --      7.3777                29.5776                15.3293

                     49                     50                     51
                      A                      A                      A
 Frequencies --   3564.0263              3622.2467              3668.9168
 Red. masses --      1.0470                 1.0958                 1.0992
 Frc consts  --      7.8360                 8.4709                 8.7180
 IR Inten    --     23.5673                19.0079                35.8162

 - Thermochemistry -
 -------------------
 Temperature   298.150 Kelvin.  Pressure   1.00000 Atm.
 Atom     1 has atomic number  6 and mass  12.00000

 Molecular mass:   147.06439 amu.
 Principal axes and moments of inertia in atomic units:
                           1         2         3
     Eigenvalues --   444.096413217.258243479.77664
           X            0.99999   0.00075   0.00464
           Y           -0.00068   0.99989  -0.01513
           Z           -0.00465   0.01513   0.99987
 This molecule is an asymmetric top.
 Rotational symmetry number  1.
 Warning -- assumption of classical behavior for rotation
           may cause significant error
 Rotational temperatures (Kelvin)      0.19503     0.02692     0.02489
 Rotational constants (GHZ):           4.06385     0.56096     0.51864
 Zero-point vibrational energy     400018.3 (Joules/Mol)
                                   95.60668 (Kcal/Mol)
 Warning -- explicit consideration of  15 degrees of freedom as
           vibrations may cause significant error
 Vibrational temperatures:     28.31    84.62   122.09   165.36   186.37
          (Kelvin)            327.10   414.59   433.42   465.20   518.18
                              546.28   631.71   654.62   735.18   842.87
                              903.49  1029.18  1057.76  1097.94  1166.81
                             1183.30  1270.37  1383.15  1405.05  1475.10
                             1597.34  1645.39  1656.43  1740.86  1751.60
                             1853.51  1936.46  2043.33  2080.00  2130.20
                             2180.45  2187.62  2214.47  2370.97  2400.55
                             2521.39  2682.83  4404.53  4451.34  4499.68
                             4517.45  4546.32  5063.36  5127.84  5211.61
                             5278.75

 Zero-point correction=                           0.152359 (Hartree/Particle)
 Thermal correction to Energy=                    0.163340
 Thermal correction to Enthalpy=                  0.164284
 Thermal correction to Gibbs Free Energy=         0.114245
 Sum of electronic and zero-point Energies=           -547.609731
 Sum of electronic and thermal Energies=              -547.598750
 Sum of electronic and thermal Enthalpies=            -547.597806
 Sum of electronic and thermal Free Energies=         -547.647845

                     E (Thermal)             CV                S
                      KCal/Mol        Cal/Mol-Kelvin    Cal/Mol-Kelvin
 Total                  102.497             38.864            105.316
 Electronic               0.000              0.000              0.000
 Translational            0.889              2.981             40.868
 Rotational               0.889              2.981             29.987
 Vibrational            100.720             32.902             34.461
 Vibration     1          0.593              1.986              6.667
 Vibration     2          0.596              1.974              4.497
 Vibration     3          0.601              1.960              3.775
 Vibration     4          0.608              1.937              3.184
 Vibration     5          0.612              1.924              2.953
 Vibration     6          0.651              1.799              1.900
 Vibration     7          0.685              1.696              1.485
 Vibration     8          0.693              1.671              1.410
 Vibration     9          0.708              1.629              1.293
 Vibration    10          0.735              1.554              1.121
 Vibration    11          0.750              1.513              1.040
 Vibration    12          0.799              1.385              0.830
 Vibration    13          0.813              1.350              0.781
 Vibration    14          0.866              1.226              0.631
 Vibration    15          0.943              1.062              0.475

 Optimization completed.
    -- Stationary point found.
 Normal termination of Gaussian 16 at Tue Dec  8 13:12:13 2020.

 ----------------------------------------------------------------------
 # B3LYP/6-311++G(d,p) empiricaldispersion=gd3bj scf=xqc pop=npa geom=c
 heck
 ----------------------------------------------------------------------

 -------------------------------------
 CID_90043942_JID_826_Energie_neutraal
 -------------------------------------
 Structure from the checkpoint file:  "JID_826.chk"
 Charge =  0 Multiplicity = 1

 SCF Done:  E(RB3LYP) =  -547.942289909     A.U. after   13 cycles
 Normal termination of Gaussian 16 at Tue Dec  8 13:17:05 2020.

 ----------------------------------------------------------------------
 # B3LYP/6-311++G(d,p) empiricaldispersion=gd3bj scf=xqc pop=npa geom=c
 heck
 ----------------------------------------------------------------------

 -----------------------------------
 CID_90043942_JID_826_Energie_kation
 -----------------------------------
 Structure from the checkpoint file:  "JID_826.chk"
 Charge =  1 Multiplicity = 2

 SCF Done:  E(UB3LYP) =  -547.621762110     A.U. after   20 cycles
 Normal termination of Gaussian 16 at Tue Dec  8 13:23:48 2020.
 Gaussian 16:  ES64L-G16RevA.03 25-Dec-2016

 ----------------------------------------------------------------------
 # B3LYP/6-311++G(d,p) empiricaldispersion=gd3bj scf=xqc pop=npa geom=c
 heck
 ----------------------------------------------------------------------

 ----------------------------------
 CID_90043942_JID_826_Energie_anion
 ----------------------------------
 Structure from the checkpoint file:  "JID_826.chk"
 Charge = -1 Multiplicity = 2

                         Standard orientation:
 ---------------------------------------------------------------------
 Center     Atomic      Atomic             Coordinates (Angstroms)
 Number     Number       Type             X           Y           Z
 ---------------------------------------------------------------------
      1          6           0        3.687114    0.051726    0.906430
      2          6           0        3.105182    0.312418   -0.473031
      3          8           0        1.722165    0.725899   -0.392108
      4          6           0        0.837404   -0.279848   -0.243745
      5          8           0        1.084331   -1.457726   -0.204012
      6          8           0       -0.373003    0.315850   -0.154857
      7          7           0       -1.440631   -0.639309    0.010533
      8          6           0       -2.545566    0.033232    0.090101
      9          7           0       -2.682355    1.398617    0.205473
     10          7           0       -3.738583   -0.683833    0.071389
     11          1           0        3.581072    0.934905    1.544655
     12          1           0        4.753043   -0.188636    0.822081
     13          1           0        3.179529   -0.793063    1.379390
     14          1           0        3.602580    1.149025   -0.969129
     15          1           0        3.171409   -0.576273   -1.105531
     16          1           0       -3.485017    1.780988   -0.278660
     17          1           0       -1.822212    1.905227    0.037875
     18          1           0       -3.561700   -1.683219    0.051643
     19          1           0       -4.360470   -0.434647    0.835188
 ---------------------------------------------------------------------

 SCF Done:  E(UB3LYP) =  -547.930155622     A.U. after   29 cycles

 The electronic state is 2-A.
 Alpha  occ. eigenvalues --  -19.08931 -19.07244 -19.01031 -14.23566 -14.22505
 Alpha  occ. eigenvalues --  -14.22108 -10.24342 -10.17223 -10.13744 -10.07455
 Alpha  occ. eigenvalues --   -1.05002  -0.97460  -0.92899  -0.87216  -0.77875
 Alpha  occ. eigenvalues --   -0.74318  -0.67534  -0.57322  -0.51013  -0.47680
 Alpha  occ. eigenvalues --   -0.45208  -0.43622  -0.41031  -0.39858  -0.38794
 Alpha  occ. eigenvalues --   -0.36657  -0.35849  -0.34611  -0.33317  -0.31261
 Alpha  occ. eigenvalues --   -0.29577  -0.28740  -0.25863  -0.24318  -0.21344
 Alpha  occ. eigenvalues --   -0.19616  -0.19393  -0.17973  -0.13068   0.04421
 Alpha virt. eigenvalues --    0.05728   0.07824   0.08474   0.09201   0.10245
 Alpha virt. eigenvalues --    0.10854   0.11779   0.12541   0.12904   0.14128
 Alpha virt. eigenvalues --    0.14488   0.15107   0.15959   0.16254   0.17019

  Beta  occ. eigenvalues --  -19.08924 -19.07242 -19.01027 -14.23559 -14.22433
  Beta  occ. eigenvalues --  -14.22030 -10.24340 -10.17217 -10.13726 -10.07428
  Beta  occ. eigenvalues --   -1.04993  -0.97452  -0.92890  -0.87152  -0.77752
  Beta  occ. eigenvalues --   -0.74266  -0.67498  -0.57274  -0.50924  -0.47617
  Beta  occ. eigenvalues --   -0.45159  -0.43562  -0.40970  -0.39824  -0.38750
  Beta  occ. eigenvalues --   -0.36603  -0.35809  -0.34560  -0.33281  -0.31233
  Beta  occ. eigenvalues --   -0.29532  -0.28706  -0.25841  -0.24289  -0.21332
  Beta  occ. eigenvalues --   -0.19597  -0.19383  -0.17892  -0.13041
  Beta virt. eigenvalues --    0.06644   0.07747   0.08676   0.09050   0.09734
  Beta virt. eigenvalues --    0.10740   0.11464   0.12295   0.12779   0.13037
  Beta virt. eigenvalues --    0.14168   0.14669   0.15214   0.15830   0.16383

 Mulliken charges and spin densities:
               1          2
     1  C    0.264345  -0.620407
     2  C    0.139680  -0.330446
     3  O   -0.122786   0.030008
     4  C    0.274787  -0.175294
     5  O   -0.233094  -0.006961
     6  O   -0.038030  -0.014811
     7  N   -0.284334  -0.093911
     8  C    1.231910  -1.151672
     9  N   -0.329419  -0.062811
    10  N   -0.403693   0.088268
    11  H    0.016098   0.126374
    12  H   -0.413205   0.549748
    13  H    0.059157   0.102137
    14  H   -0.350646   0.513204
    15  H    0.187264  -0.019070
    16  H   -0.530884   0.803368
    17  H    0.068447   0.205354
    18  H    0.106624   0.144034
    19  H   -0.642221   0.912888
 Sum of Mulliken charges =  -1.00000   1.00000

 Dipole moment (field-independent basis, Debye):
    X=              5.1843    Y=             -1.1971    Z=             -1.0583  Tot=              5.4249
 Quadrupole moment (field-independent basis, Debye-Ang):
   XX=           -155.9192   YY=            -90.4982   ZZ=            -79.0284
   XY=              4.9537   XZ=              4.2492   YZ=              1.3323

 Summary of Natural Population Analysis:

                                       Natural Population
                Natural  -----------------------------------------------
    Atom  No    Charge         Core      Valence    Rydberg      Total
 -----------------------------------------------------------------------
      C    1   -0.30151      0.99966     2.29662    0.00523     3.30151
      C    2   -0.01543      0.99958     2.00373    0.01212     3.01543
      O    3   -0.28110      0.99986     3.27279    0.00846     4.28110
      C    4    0.51695      0.99975     1.45575    0.02755     2.48305
      O    5   -0.31265      0.99986     3.30768    0.00511     4.31265
      O    6   -0.22295      0.99985     3.21444    0.00866     4.22295
      N    7   -0.14545      0.99962     2.63349    0.01234     3.64545
      C    8    0.28779      0.99968     1.69407    0.01845     2.71221
      N    9   -0.40490      0.99970     2.89480    0.01039     3.90490
      N   10   -0.40161      0.99972     2.89172    0.01017     3.90161
      H   11    0.10080      0.00000     0.39817    0.00103     0.39920
      H   12    0.10299      0.00000     0.39551    0.00150     0.39701
      H   13    0.10642      0.00000     0.39261    0.00097     0.39358
      H   14    0.09120      0.00000     0.40725    0.00155     0.40880
      H   15    0.09346      0.00000     0.40543    0.00110     0.40654
      H   16    0.19901      0.00000     0.29026    0.01072     0.30099
      H   17    0.19992      0.00000     0.29756    0.00251     0.30008
      H   18    0.19196      0.00000     0.30570    0.00234     0.30804
      H   19    0.19509      0.00000     0.29088    0.01403     0.30491
 =======================================================================
   * Total *   -0.00000      9.99729    28.84848    0.15423    39.00000

 Normal termination of Gaussian 16 at Tue Dec  8 13:27:37 2020.
