 Gaussian 16, Revision A.03,

 -----------------------------------------------------------
 # opt freq B3LYP/6-31G(d) empiricaldispersion=gd3bj scf=xqc
 -----------------------------------------------------------

 -------------------------------
 CID_141865641_JID_3015_neutraal
 -------------------------------
 Symbolic Z-matrix:
 Charge =  0 Multiplicity = 1

 SCF Done:  E(RB3LYP) =  -986.177656188     A.U. after   15 cycles
 SCF Done:  E(RB3LYP) =  -986.188520975     A.U. after   13 cycles
 SCF Done:  E(RB3LYP) =  -986.191834972     A.U. after   13 cycles
 SCF Done:  E(RB3LYP) =  -986.194908097     A.U. after   13 cycles
 SCF Done:  E(RB3LYP) =  -986.196752117     A.U. after   13 cycles
 SCF Done:  E(RB3LYP) =  -986.197873550     A.U. after   12 cycles
 SCF Done:  E(RB3LYP) =  -986.198409465     A.U. after   12 cycles
 SCF Done:  E(RB3LYP) =  -986.198619594     A.U. after   12 cycles
 SCF Done:  E(RB3LYP) =  -986.198703301     A.U. after   11 cycles
 SCF Done:  E(RB3LYP) =  -986.198765315     A.U. after   11 cycles
 SCF Done:  E(RB3LYP) =  -986.198925167     A.U. after    9 cycles
 SCF Done:  E(RB3LYP) =  -986.198926429     A.U. after    9 cycles
 SCF Done:  E(RB3LYP) =  -986.198927133     A.U. after    8 cycles
 SCF Done:  E(RB3LYP) =  -986.198927320     A.U. after    8 cycles
 SCF Done:  E(RB3LYP) =  -986.198927383     A.U. after    7 cycles
 Optimization completed.
    -- Stationary point found.
 Normal termination of Gaussian 16 at Wed Dec  9 22:25:28 2020.

 --------------------------------------------------------------------
 #N Geom=AllCheck Guess=TCheck SCRF=Check GenChk RB3LYP/6-31G(d) Freq
 --------------------------------------------------------------------

 Structure from the checkpoint file:  "JID_3015.chk"
 -------------------------------
 CID_141865641_JID_3015_neutraal
 -------------------------------
 Charge =  0 Multiplicity = 1

 SCF Done:  E(RB3LYP) =  -986.198927383     A.U. after    1 cycles

  Exact polarizability: 147.193   2.413 119.075   8.052  -3.467  79.150
 Approx polarizability: 197.130   0.557 189.074  18.445  -9.088 120.283

                      1                      2                      3
                      A                      A                      A
 Frequencies --     30.2332                50.2684                66.9217
 Red. masses --      6.3812                 3.1997                 3.0179
 Frc consts  --      0.0034                 0.0048                 0.0080
 IR Inten    --      0.3560                 0.0894                 0.0991

                      4                      5                      6
                      A                      A                      A
 Frequencies --     91.1721               123.6255               131.5211
 Red. masses --      2.5964                 1.6484                 3.1870
 Frc consts  --      0.0127                 0.0148                 0.0325
 IR Inten    --      4.5307                 0.6020                 4.0772

                      7                      8                      9
                      A                      A                      A
 Frequencies --    150.7810               173.3768               193.1872
 Red. masses --      3.6370                 4.2578                 6.0376
 Frc consts  --      0.0487                 0.0754                 0.1328
 IR Inten    --      3.5894                 2.6734                 4.8037

                     10                     11                     12
                      A                      A                      A
 Frequencies --    216.0411               245.4475               282.4007
 Red. masses --      1.3779                 2.8139                 3.2655
 Frc consts  --      0.0379                 0.0999                 0.1534
 IR Inten    --     51.4103                25.0155                 3.0202

                     13                     14                     15
                      A                      A                      A
 Frequencies --    312.9162               331.2163               364.3115
 Red. masses --      9.4234                 5.0440                 2.2089
 Frc consts  --      0.5436                 0.3260                 0.1727
 IR Inten    --      4.7205                26.4103                 0.1188

                     16                     17                     18
                      A                      A                      A
 Frequencies --    413.5380               459.8432               591.2088
 Red. masses --      3.5254                11.3181                 6.2005
 Frc consts  --      0.3552                 1.4101                 1.2769
 IR Inten    --      1.6336                 4.5336                26.5849

                     19                     20                     21
                      A                      A                      A
 Frequencies --    629.9310               656.4689               695.8073
 Red. masses --     10.4733                 7.3184                 4.1131
 Frc consts  --      2.4486                 1.8582                 1.1733
 IR Inten    --      2.5182                 6.1015                14.5579

                     22                     23                     24
                      A                      A                      A
 Frequencies --    705.2159               783.7169               797.7388
 Red. masses --     11.9201                 1.1275                 5.0661
 Frc consts  --      3.4928                 0.4080                 1.8995
 IR Inten    --     15.5972                 0.9708                 0.9119

                     25                     26                     27
                      A                      A                      A
 Frequencies --    806.9729               850.4619               892.8131
 Red. masses --      2.5095                 1.4501                 1.5908
 Frc consts  --      0.9628                 0.6180                 0.7471
 IR Inten    --      9.0956                11.3057                 3.6245

                     28                     29                     30
                      A                      A                      A
 Frequencies --    910.6622               945.8439               993.9418
 Red. masses --      7.2071                 2.7691                 2.4942
 Frc consts  --      3.5215                 1.4596                 1.4518
 IR Inten    --      7.4250                12.5759                17.6759

                     31                     32                     33
                      A                      A                      A
 Frequencies --   1039.9986              1063.6371              1064.8980
 Red. masses --      2.4477                 1.6483                 3.6800
 Frc consts  --      1.5598                 1.0987                 2.4587
 IR Inten    --      2.8681                17.5329                27.8075

                     34                     35                     36
                      A                      A                      A
 Frequencies --   1083.5376              1140.5043              1161.8223
 Red. masses --      1.3702                 1.2297                 1.2577
 Frc consts  --      0.9478                 0.9424                 1.0003
 IR Inten    --      1.7242                 0.2987                 1.4436

                     37                     38                     39
                      A                      A                      A
 Frequencies --   1168.3479              1211.5754              1235.7414
 Red. masses --      1.2793                 1.4125                 1.7458
 Frc consts  --      1.0289                 1.2216                 1.5707
 IR Inten    --      0.3234                 0.8936                 0.2506

                     40                     41                     42
                      A                      A                      A
 Frequencies --   1265.3778              1274.0593              1289.9361
 Red. masses --      3.6340                 1.4266                 5.6531
 Frc consts  --      3.4283                 1.3643                 5.5421
 IR Inten    --     60.3304                12.9655                76.7197

                     43                     44                     45
                      A                      A                      A
 Frequencies --   1304.4894              1372.1686              1423.8942
 Red. masses --      1.2757                 2.1520                 1.5513
 Frc consts  --      1.2790                 2.3873                 1.8531
 IR Inten    --     20.3667                57.0262                 3.7202

                     46                     47                     48
                      A                      A                      A
 Frequencies --   1431.3121              1466.5559              1483.3790
 Red. masses --      6.7543                 1.1797                 1.1368
 Frc consts  --      8.1526                 1.4949                 1.4738
 IR Inten    --     63.2147                10.2058                12.0796

                     49                     50                     51
                      A                      A                      A
 Frequencies --   1497.8604              1511.4804              1518.8318
 Red. masses --      1.0895                 1.0438                 2.0232
 Frc consts  --      1.4402                 1.4049                 2.7499
 IR Inten    --      1.0964                 8.5242                57.9134

                     52                     53                     54
                      A                      A                      A
 Frequencies --   1537.2355              1542.6702              1563.0783
 Red. masses --      1.3572                 1.0742                10.4424
 Frc consts  --      1.8896                 1.5062                15.0318
 IR Inten    --      1.0784                 8.5130                85.3238

                     55                     56                     57
                      A                      A                      A
 Frequencies --   1849.3637              3062.3363              3081.5607
 Red. masses --     11.9981                 1.0333                 1.0604
 Frc consts  --     24.1772                 5.7094                 5.9328
 IR Inten    --    583.1902                51.9811                10.8388

                     58                     59                     60
                      A                      A                      A
 Frequencies --   3124.0478              3140.1070              3144.0505
 Red. masses --      1.1067                 1.1042                 1.0513
 Frc consts  --      6.3635                 6.4150                 6.1229
 IR Inten    --     21.9751                 2.3034                19.7027

                     61                     62                     63
                      A                      A                      A
 Frequencies --   3148.5007              3173.2847              3197.2921
 Red. masses --      1.0600                 1.1022                 1.0907
 Frc consts  --      6.1909                 6.5390                 6.5693
 IR Inten    --     13.4149                 1.7703                 1.2296

                     64                     65                     66
                      A                      A                      A
 Frequencies --   3219.2917              3233.9802              3673.2812
 Red. masses --      1.1189                 1.1146                 1.0681
 Frc consts  --      6.8325                 6.8680                 8.4915
 IR Inten    --      0.4277                21.7474                49.5733

 - Thermochemistry -
 -------------------
 Temperature   298.150 Kelvin.  Pressure   1.00000 Atm.
 Atom     1 has atomic number  6 and mass  12.00000

 Molecular mass:   201.05720 amu.
 Principal axes and moments of inertia in atomic units:
                           1         2         3
     Eigenvalues --  1422.493874388.605895366.99210
           X            0.99998   0.00366  -0.00451
           Y           -0.00372   0.99992  -0.01225
           Z            0.00446   0.01227   0.99991
 This molecule is an asymmetric top.
 Rotational symmetry number  1.
 Warning -- assumption of classical behavior for rotation
           may cause significant error
 Rotational temperatures (Kelvin)      0.06089     0.01974     0.01614
 Rotational constants (GHZ):           1.26872     0.41123     0.33627
 Zero-point vibrational energy     494040.2 (Joules/Mol)
                                  118.07844 (Kcal/Mol)
 Warning -- explicit consideration of  18 degrees of freedom as
           vibrations may cause significant error
 Vibrational temperatures:     43.50    72.32    96.29   131.18   177.87
          (Kelvin)            189.23   216.94   249.45   277.95   310.83
                              353.14   406.31   450.22   476.55   524.16
                              594.99   661.61   850.62   906.33   944.51
                             1001.11  1014.65  1127.59  1147.77  1161.05
                             1223.63  1284.56  1310.24  1360.86  1430.06
                             1496.33  1530.34  1532.15  1558.97  1640.93
                             1671.60  1680.99  1743.19  1777.96  1820.60
                             1833.09  1855.93  1876.87  1974.24  2048.67
                             2059.34  2110.05  2134.25  2155.09  2174.68
                             2185.26  2211.74  2219.56  2248.92  2660.82
                             4406.02  4433.68  4494.81  4517.91  4523.59
                             4529.99  4565.65  4600.19  4631.84  4652.98
                             5285.03

 Zero-point correction=                           0.188170 (Hartree/Particle)
 Thermal correction to Energy=                    0.202078
 Thermal correction to Enthalpy=                  0.203022
 Thermal correction to Gibbs Free Energy=         0.146021
 Sum of electronic and zero-point Energies=           -986.010757
 Sum of electronic and thermal Energies=              -985.996849
 Sum of electronic and thermal Enthalpies=            -985.995905
 Sum of electronic and thermal Free Energies=         -986.052906

                     E (Thermal)             CV                S
                      KCal/Mol        Cal/Mol-Kelvin    Cal/Mol-Kelvin
 Total                  126.806             49.027            119.970
 Electronic               0.000              0.000              0.000
 Translational            0.889              2.981             41.800
 Rotational               0.889              2.981             31.883
 Vibrational            125.029             43.066             46.287
 Vibration     1          0.594              1.984              5.814
 Vibration     2          0.595              1.977              4.807
 Vibration     3          0.598              1.970              4.242
 Vibration     4          0.602              1.955              3.635
 Vibration     5          0.610              1.929              3.043
 Vibration     6          0.612              1.922              2.924
 Vibration     7          0.618              1.902              2.662
 Vibration     8          0.627              1.875              2.399
 Vibration     9          0.635              1.849              2.197
 Vibration    10          0.645              1.817              1.992
 Vibration    11          0.660              1.770              1.763
 Vibration    12          0.681              1.706              1.519
 Vibration    13          0.701              1.649              1.347
 Vibration    14          0.714              1.613              1.254
 Vibration    15          0.738              1.546              1.104
 Vibration    16          0.777              1.441              0.914
 Vibration    17          0.818              1.339              0.767
 Vibration    18          0.949              1.051              0.465

                           ! Non-Optimized Parameters !
 Normal termination of Gaussian 16 at Wed Dec  9 22:30:35 2020.

 ----------------------------------------------------------------------
 # B3LYP/6-311++G(d,p) empiricaldispersion=gd3bj scf=xqc pop=npa geom=c
 heck
 ----------------------------------------------------------------------

 ---------------------------------------
 CID_141865641_JID_3015_Energie_neutraal
 ---------------------------------------
 Structure from the checkpoint file:  "JID_3015.chk"
 Charge =  0 Multiplicity = 1

 SCF Done:  E(RB3LYP) =  -986.400419079     A.U. after   14 cycles
 Normal termination of Gaussian 16 at Wed Dec  9 22:32:28 2020.

 ----------------------------------------------------------------------
 # B3LYP/6-311++G(d,p) empiricaldispersion=gd3bj scf=xqc pop=npa geom=c
 heck
 ----------------------------------------------------------------------

 -------------------------------------
 CID_141865641_JID_3015_Energie_kation
 -------------------------------------
 Structure from the checkpoint file:  "JID_3015.chk"
 Charge =  1 Multiplicity = 2

 SCF Done:  E(UB3LYP) =  -986.109720883     A.U. after   21 cycles
 Normal termination of Gaussian 16 at Wed Dec  9 22:36:11 2020.
 Gaussian 16:  ES64L-G16RevA.03 25-Dec-2016

 ----------------------------------------------------------------------
 # B3LYP/6-311++G(d,p) empiricaldispersion=gd3bj scf=xqc pop=npa geom=c
 heck
 ----------------------------------------------------------------------

 ------------------------------------
 CID_141865641_JID_3015_Energie_anion
 ------------------------------------
 Structure from the checkpoint file:  "JID_3015.chk"
 Charge = -1 Multiplicity = 2

                         Standard orientation:
 ---------------------------------------------------------------------
 Center     Atomic      Atomic             Coordinates (Angstroms)
 Number     Number       Type             X           Y           Z
 ---------------------------------------------------------------------
      1          6           0        2.257817    2.572300   -0.235928
      2          7           0        1.807291    1.207593   -0.118855
      3          6           0        2.588868    0.136532    0.241297
      4          8           0        3.763561    0.071507    0.557949
      5          7           0        1.639753   -0.905947    0.206907
      6          6           0        0.433206   -0.425618   -0.241295
      7          7           0        0.493121    0.864340   -0.428173
      8         16           0       -0.940589   -1.485598   -0.483454
      9          6           0       -2.193766   -0.204717   -0.937412
     10          6           0       -2.678738    0.619488    0.225136
     11          6           0       -4.096352    1.144581    0.205150
     12          6           0       -3.703689    0.054375    1.171632
     13          8           0        1.975702   -2.240122    0.246332
     14          1           0        1.694574    3.222087    0.441357
     15          1           0        2.135911    2.929469   -1.263451
     16          1           0        3.314899    2.584137    0.035699
     17          1           0       -1.750519    0.417805   -1.718584
     18          1           0       -3.008352   -0.787804   -1.378841
     19          1           0       -1.920412    1.271659    0.646969
     20          1           0       -4.276726    2.144071    0.590065
     21          1           0       -4.728016    0.874081   -0.637409
     22          1           0       -4.068407   -0.951824    0.979261
     23          1           0       -3.619436    0.300017    2.226035
     24          1           0        2.136574   -2.428756    1.189283
 ---------------------------------------------------------------------

 SCF Done:  E(UB3LYP) =  -986.388631495     A.U. after   33 cycles
 SCF Done:  E(UB3LYP) =  -986.388631495     a.u. after    1 cycles

 The electronic state is 2-A.
 Alpha  occ. eigenvalues --  -88.77274 -19.09213 -18.99500 -14.31927 -14.28700
 Alpha  occ. eigenvalues --  -14.24482 -10.20392 -10.17644 -10.11840 -10.11529
 Alpha  occ. eigenvalues --  -10.08967 -10.08356 -10.08032  -7.85882  -5.82294
 Alpha  occ. eigenvalues --   -5.81871  -5.81259  -1.03960  -0.97027  -0.92547
 Alpha  occ. eigenvalues --   -0.80410  -0.77737  -0.74816  -0.70076  -0.63523
 Alpha  occ. eigenvalues --   -0.59008  -0.53089  -0.52287  -0.51234  -0.48452
 Alpha  occ. eigenvalues --   -0.47312  -0.41940  -0.40754  -0.39618  -0.38021
 Alpha  occ. eigenvalues --   -0.36729  -0.35914  -0.34379  -0.32003  -0.31668
 Alpha  occ. eigenvalues --   -0.31159  -0.28877  -0.27731  -0.27364  -0.26280
 Alpha  occ. eigenvalues --   -0.25702  -0.23554  -0.20854  -0.20560  -0.19623
 Alpha  occ. eigenvalues --   -0.17755  -0.16588  -0.11896   0.04291
 Alpha virt. eigenvalues --    0.05884   0.06420   0.07356   0.08397   0.09187
 Alpha virt. eigenvalues --    0.09462   0.10428   0.10626   0.11144   0.11716
 Alpha virt. eigenvalues --    0.12038   0.12386   0.13196   0.13541   0.14238

  Beta  occ. eigenvalues --  -88.77266 -19.09110 -18.99492 -14.31909 -14.28698
  Beta  occ. eigenvalues --  -14.24466 -10.20387 -10.17639 -10.11825 -10.11493
  Beta  occ. eigenvalues --  -10.08961 -10.08336 -10.08009  -7.85873  -5.82282
  Beta  occ. eigenvalues --   -5.81862  -5.81253  -1.03814  -0.96938  -0.92531
  Beta  occ. eigenvalues --   -0.80341  -0.77715  -0.74766  -0.70049  -0.63478
  Beta  occ. eigenvalues --   -0.58961  -0.53009  -0.52256  -0.51165  -0.48396
  Beta  occ. eigenvalues --   -0.47233  -0.41884  -0.40718  -0.39582  -0.37972
  Beta  occ. eigenvalues --   -0.36656  -0.35885  -0.34363  -0.31956  -0.31615
  Beta  occ. eigenvalues --   -0.31121  -0.28847  -0.27703  -0.27344  -0.26234
  Beta  occ. eigenvalues --   -0.25619  -0.23488  -0.20824  -0.20511  -0.19597
  Beta  occ. eigenvalues --   -0.17726  -0.16545  -0.11877
  Beta virt. eigenvalues --    0.06439   0.07017   0.07645   0.07884   0.08869
  Beta virt. eigenvalues --    0.09430   0.09792   0.10582   0.10969   0.11397
  Beta virt. eigenvalues --    0.11975   0.12346   0.12570   0.13372   0.13591

 Mulliken charges and spin densities:
               1          2
     1  C    0.865936  -1.140821
     2  N    0.056378  -0.043148
     3  C    0.082218   0.316541
     4  O   -0.396575   0.005650
     5  N   -0.008307  -0.269728
     6  C   -0.339090   0.031694
     7  N   -0.360610   0.143786
     8  S    0.452167  -0.322442
     9  C    0.921916  -1.438348
    10  C   -1.386524   1.692612
    11  C    0.161568  -0.465874
    12  C    0.729961  -1.365407
    13  O   -0.104535   0.110892
    14  H   -0.280183   0.450705
    15  H   -0.217598   0.383106
    16  H    0.012331   0.162379
    17  H    0.196555   0.004540
    18  H   -0.217621   0.460210
    19  H   -0.218118   0.463907
    20  H   -0.095516   0.238953
    21  H   -0.195617   0.325180
    22  H   -0.155280   0.282731
    23  H   -0.169097   0.325188
    24  H   -0.334359   0.647694
 Sum of Mulliken charges =  -1.00000   1.00000

 Dipole moment (field-independent basis, Debye):
    X=             -1.3298    Y=              0.6692    Z=             -2.8511  Tot=              3.2164
 Quadrupole moment (field-independent basis, Debye-Ang):
   XX=           -160.0583   YY=           -129.3655   ZZ=           -112.4086
   XY=              5.9349   XZ=             -1.1560   YZ=              1.8648

 Summary of Natural Population Analysis:

                                       Natural Population
                Natural  -----------------------------------------------
    Atom  No    Charge         Core      Valence    Rydberg      Total
 -----------------------------------------------------------------------
      C    1   -0.17289      0.99964     2.16558    0.00767     3.17289
      N    2   -0.15416      0.99965     2.64198    0.01253     3.65416
      C    3    0.38307      0.99961     1.59279    0.02453     2.61693
      O    4   -0.32858      0.99988     3.32288    0.00582     4.32858
      N    5   -0.09277      0.99949     2.57816    0.01512     3.59277
      C    6    0.11336      0.99956     1.86596    0.02112     2.88664
      N    7   -0.18032      0.99964     2.66882    0.01186     3.68032
      S    8    0.14351      4.99954     2.83795    0.01900     7.85649
      C    9   -0.23963      0.99955     2.22923    0.01086     3.23963
      C   10   -0.12761      0.99957     2.11710    0.01094     3.12761
      C   11   -0.19384      0.99962     2.18755    0.00666     3.19384
      C   12   -0.19408      0.99962     2.18591    0.00856     3.19408
      O   13   -0.25308      0.99990     3.24460    0.00859     4.25308
      H   14    0.09966      0.00000     0.39817    0.00218     0.40034
      H   15    0.09692      0.00000     0.40120    0.00188     0.40308
      H   16    0.11082      0.00000     0.38802    0.00116     0.38918
      H   17    0.11379      0.00000     0.38451    0.00170     0.38621
      H   18    0.10711      0.00000     0.39131    0.00158     0.39289
      H   19    0.11502      0.00000     0.38313    0.00184     0.38498
      H   20    0.10329      0.00000     0.39539    0.00132     0.39671
      H   21    0.09952      0.00000     0.39901    0.00147     0.40048
      H   22    0.10126      0.00000     0.39713    0.00161     0.39874
      H   23    0.10450      0.00000     0.39405    0.00145     0.39550
      H   24    0.24516      0.00000     0.23103    0.02381     0.25484
 =======================================================================
   * Total *    0.00000     16.99527    35.80146    0.20327    53.00000

 Normal termination of Gaussian 16 at Wed Dec  9 22:42:03 2020.
