 Gaussian 16, Revision A.03,

 -----------------------------------------------------------
 # opt freq B3LYP/6-31G(d) empiricaldispersion=gd3bj scf=xqc
 -----------------------------------------------------------

 -------------------------------
 CID_103986751_JID_3188_neutraal
 -------------------------------
 Symbolic Z-matrix:
 Charge =  0 Multiplicity = 1

 SCF Done:  E(RB3LYP) =  -561.824871326     A.U. after   13 cycles
 SCF Done:  E(RB3LYP) =  -561.828301100     A.U. after   11 cycles
 SCF Done:  E(RB3LYP) =  -561.827448377     A.U. after   11 cycles
 SCF Done:  E(RB3LYP) =  -561.828579075     A.U. after   10 cycles
 SCF Done:  E(RB3LYP) =  -561.828594747     A.U. after   10 cycles
 SCF Done:  E(RB3LYP) =  -561.828714256     A.U. after   10 cycles
 SCF Done:  E(RB3LYP) =  -561.828737842     A.U. after    9 cycles
 SCF Done:  E(RB3LYP) =  -561.828750853     A.U. after    9 cycles
 SCF Done:  E(RB3LYP) =  -561.828761926     A.U. after    9 cycles
 SCF Done:  E(RB3LYP) =  -561.828776514     A.U. after    9 cycles
 SCF Done:  E(RB3LYP) =  -561.828838377     A.U. after    9 cycles
 SCF Done:  E(RB3LYP) =  -561.828837985     A.U. after    9 cycles
 SCF Done:  E(RB3LYP) =  -561.828838546     A.U. after    9 cycles
 SCF Done:  E(RB3LYP) =  -561.828838734     A.U. after    7 cycles
 SCF Done:  E(RB3LYP) =  -561.828838333     A.U. after    9 cycles
 SCF Done:  E(RB3LYP) =  -561.828838825     A.U. after    9 cycles
 Optimization completed.
    -- Stationary point found.
 Normal termination of Gaussian 16 at Wed Dec  9 23:08:26 2020.

 --------------------------------------------------------------------
 #N Geom=AllCheck Guess=TCheck SCRF=Check GenChk RB3LYP/6-31G(d) Freq
 --------------------------------------------------------------------

 Structure from the checkpoint file:  "JID_3188.chk"
 -------------------------------
 CID_103986751_JID_3188_neutraal
 -------------------------------
 Charge =  0 Multiplicity = 1

 SCF Done:  E(RB3LYP) =  -561.828838825     A.U. after    1 cycles

  Exact polarizability: 135.102  -3.850 120.390  -1.709  -1.312 104.117
 Approx polarizability: 162.775  -2.396 168.027  -1.201  -0.702 165.200

                      1                      2                      3
                      A                      A                      A
 Frequencies --     14.2827                37.3544                76.9612
 Red. masses --      2.2595                 3.6929                 2.5870
 Frc consts  --      0.0003                 0.0030                 0.0090
 IR Inten    --      0.1717                 0.7582                 0.8210

                      4                      5                      6
                      A                      A                      A
 Frequencies --     88.8014               104.5770               150.3333
 Red. masses --      3.3972                 2.8652                 3.1993
 Frc consts  --      0.0158                 0.0185                 0.0426
 IR Inten    --      5.6043                 0.3112                 1.6631

                      7                      8                      9
                      A                      A                      A
 Frequencies --    186.3070               205.8398               245.0452
 Red. masses --      2.9164                 3.0728                 1.8266
 Frc consts  --      0.0596                 0.0767                 0.0646
 IR Inten    --      0.3723                 3.1934                 1.3953

                     10                     11                     12
                      A                      A                      A
 Frequencies --    280.8850               294.2552               351.1135
 Red. masses --      1.5618                 1.7241                 2.1713
 Frc consts  --      0.0726                 0.0880                 0.1577
 IR Inten    --     15.4008                21.5022                 4.8837

                     13                     14                     15
                      A                      A                      A
 Frequencies --    359.1037               417.9327               445.0082
 Red. masses --      2.1968                 1.8049                 3.1013
 Frc consts  --      0.1669                 0.1857                 0.3619
 IR Inten    --      1.7440                 1.8515                 2.7457

                     16                     17                     18
                      A                      A                      A
 Frequencies --    554.1085               583.9812               647.7448
 Red. masses --      1.9798                 2.7201                 2.5800
 Frc consts  --      0.3581                 0.5465                 0.6378
 IR Inten    --      2.7275                 5.7363                 3.2443

                     19                     20                     21
                      A                      A                      A
 Frequencies --    679.3098               726.0324               772.1540
 Red. masses --      2.7282                 3.3126                 1.7263
 Frc consts  --      0.7417                 1.0288                 0.6064
 IR Inten    --      4.7003                11.6112                 0.0868

                     22                     23                     24
                      A                      A                      A
 Frequencies --    825.7250               844.8885               868.4533
 Red. masses --      1.9587                 1.7430                 2.0286
 Frc consts  --      0.7868                 0.7331                 0.9015
 IR Inten    --      0.7002                 7.9538                 4.9784

                     25                     26                     27
                      A                      A                      A
 Frequencies --    881.3225               885.5077               903.4014
 Red. masses --      2.1618                 2.3576                 1.8337
 Frc consts  --      0.9893                 1.0892                 0.8818
 IR Inten    --     12.7927                78.1258                83.9683

                     28                     29                     30
                      A                      A                      A
 Frequencies --    916.3477               925.3589               934.5243
 Red. masses --      2.5075                 2.4164                 2.5142
 Frc consts  --      1.2405                 1.2191                 1.2937
 IR Inten    --      2.0869                12.0273                 5.5911

                     31                     32                     33
                      A                      A                      A
 Frequencies --    944.0584               972.0727               982.9552
 Red. masses --      1.8131                 1.9033                 2.0466
 Frc consts  --      0.9521                 1.0596                 1.1651
 IR Inten    --      0.8863                12.2642                22.5067

                     34                     35                     36
                      A                      A                      A
 Frequencies --    996.3366              1016.4865              1040.8177
 Red. masses --      1.7811                 1.9491                 1.4496
 Frc consts  --      1.0417                 1.1866                 0.9253
 IR Inten    --      4.0433                 7.0743                 0.6955

                     37                     38                     39
                      A                      A                      A
 Frequencies --   1050.9060              1068.0759              1082.1076
 Red. masses --      1.7961                 1.6505                 1.8846
 Frc consts  --      1.1687                 1.1093                 1.3002
 IR Inten    --     10.1052                 2.7210                 8.4525

                     40                     41                     42
                      A                      A                      A
 Frequencies --   1097.1387              1118.8498              1129.5170
 Red. masses --      2.5843                 3.0480                 2.0615
 Frc consts  --      1.8328                 2.2481                 1.5496
 IR Inten    --     12.5481                45.7974                30.5380

                     43                     44                     45
                      A                      A                      A
 Frequencies --   1138.0948              1181.2496              1204.6424
 Red. masses --      1.3766                 2.0550                 1.4527
 Frc consts  --      1.0505                 1.6895                 1.2421
 IR Inten    --      1.4094                22.4841                 2.2394

                     46                     47                     48
                      A                      A                      A
 Frequencies --   1216.5554              1220.1707              1248.9002
 Red. masses --      1.4343                 1.2621                 1.2211
 Frc consts  --      1.2507                 1.1071                 1.1222
 IR Inten    --      4.9150                 2.0906                12.9325

                     49                     50                     51
                      A                      A                      A
 Frequencies --   1251.0225              1259.1995              1267.4377
 Red. masses --      1.4088                 1.3182                 1.3411
 Frc consts  --      1.2991                 1.2314                 1.2693
 IR Inten    --      0.5589                 1.9030                 1.2601

                     52                     53                     54
                      A                      A                      A
 Frequencies --   1284.0838              1299.8654              1322.7763
 Red. masses --      1.3905                 1.3902                 1.3544
 Frc consts  --      1.3509                 1.3840                 1.3963
 IR Inten    --      0.8658                 5.2559                 0.3924

                     55                     56                     57
                      A                      A                      A
 Frequencies --   1329.0069              1340.6511              1347.4436
 Red. masses --      1.3165                 1.3067                 1.2390
 Frc consts  --      1.3700                 1.3837                 1.3254
 IR Inten    --      0.6563                 1.6694                 0.4319

                     58                     59                     60
                      A                      A                      A
 Frequencies --   1358.0193              1365.5725              1368.2922
 Red. masses --      1.3526                 1.2995                 1.3464
 Frc consts  --      1.4698                 1.4278                 1.4852
 IR Inten    --      0.4619                 1.7059                 0.5244

                     61                     62                     63
                      A                      A                      A
 Frequencies --   1376.6856              1382.0981              1397.9788
 Red. masses --      1.3521                 1.3205                 1.3755
 Frc consts  --      1.5098                 1.4862                 1.5838
 IR Inten    --      0.6802                11.1558                 4.7128

                     64                     65                     66
                      A                      A                      A
 Frequencies --   1420.3367              1432.4211              1443.6212
 Red. masses --      1.4332                 1.3797                 1.5103
 Frc consts  --      1.7035                 1.6679                 1.8544
 IR Inten    --      7.6539                 0.4671                 8.8846

                     67                     68                     69
                      A                      A                      A
 Frequencies --   1513.0818              1519.0457              1520.3684
 Red. masses --      1.0887                 1.0906                 1.0788
 Frc consts  --      1.4686                 1.4827                 1.4692
 IR Inten    --      6.9341                 1.5889                 2.6663

                     70                     71                     72
                      A                      A                      A
 Frequencies --   1523.6720              1529.1545              1545.6183
 Red. masses --      1.0927                 1.0916                 1.1047
 Frc consts  --      1.4946                 1.5039                 1.5549
 IR Inten    --      1.6824                 2.3479                 0.7871

                     73                     74                     75
                      A                      A                      A
 Frequencies --   1548.5538              1565.4065              1692.6650
 Red. masses --      1.0888                 1.0962                 1.0913
 Frc consts  --      1.5384                 1.5828                 1.8422
 IR Inten    --      1.1589                 1.9158                21.2210

                     76                     77                     78
                      A                      A                      A
 Frequencies --   2983.0555              3001.4222              3020.7765
 Red. masses --      1.0723                 1.0802                 1.0789
 Frc consts  --      5.6221                 5.7331                 5.8004
 IR Inten    --     98.3475                 7.2620                29.6038

                     79                     80                     81
                      A                      A                      A
 Frequencies --   3024.7195              3031.6217              3032.9604
 Red. masses --      1.0729                 1.0591                 1.0737
 Frc consts  --      5.7831                 5.7353                 5.8193
 IR Inten    --     35.3542                49.2007                40.8627

                     82                     83                     84
                      A                      A                      A
 Frequencies --   3039.9484              3048.7101              3053.3526
 Red. masses --      1.0672                 1.0641                 1.0905
 Frc consts  --      5.8107                 5.8273                 5.9901
 IR Inten    --     46.0191                38.8868                10.7351

                     85                     86                     87
                      A                      A                      A
 Frequencies --   3061.0519              3076.1729              3076.6165
 Red. masses --      1.0941                 1.0678                 1.0833
 Frc consts  --      6.0402                 5.9535                 6.0417
 IR Inten    --     24.8801                24.3263                42.6667

                     88                     89                     90
                      A                      A                      A
 Frequencies --   3082.4383              3095.6670              3096.6911
 Red. masses --      1.0902                 1.0922                 1.0925
 Frc consts  --      6.1029                 6.1669                 6.1724
 IR Inten    --     80.1891                50.6678                32.4228

                     91                     92                     93
                      A                      A                      A
 Frequencies --   3098.1844              3102.2096              3121.2394
 Red. masses --      1.0952                 1.1003                 1.1043
 Frc consts  --      6.1939                 6.2389                 6.3384
 IR Inten    --     53.7594                38.2045                48.4048

                     94                     95                     96
                      A                      A                      A
 Frequencies --   3163.0625              3454.5295              3542.0518
 Red. masses --      1.0925                 1.0488                 1.0924
 Frc consts  --      6.4398                 7.3745                 8.0747
 IR Inten    --     19.8939                 3.9785                 1.0909

 - Thermochemistry -
 -------------------
 Temperature   298.150 Kelvin.  Pressure   1.00000 Atm.
 Atom     1 has atomic number  6 and mass  12.00000

 Molecular mass:   183.16231 amu.
 Principal axes and moments of inertia in atomic units:
                           1         2         3
     Eigenvalues --  1276.234774030.302424834.94804
           X            0.99991  -0.01228  -0.00508
           Y            0.01224   0.99990  -0.00659
           Z            0.00516   0.00652   0.99997
 This molecule is an asymmetric top.
 Rotational symmetry number  1.
 Warning -- assumption of classical behavior for rotation
           may cause significant error
 Rotational temperatures (Kelvin)      0.06787     0.02149     0.01791
 Rotational constants (GHZ):           1.41411     0.44779     0.37327
 Zero-point vibrational energy     827374.1 (Joules/Mol)
                                  197.74717 (Kcal/Mol)
 Warning -- explicit consideration of  17 degrees of freedom as
           vibrations may cause significant error
 Vibrational temperatures:     20.55    53.74   110.73   127.77   150.46
          (Kelvin)            216.30   268.05   296.16   352.57   404.13
                              423.37   505.17   516.67   601.31   640.27
                              797.24   840.22   931.96   977.38  1044.60
                             1110.96  1188.03  1215.61  1249.51  1268.03
                             1274.05  1299.79  1318.42  1331.39  1344.57
                             1358.29  1398.60  1414.25  1433.51  1462.50
                             1497.50  1512.02  1536.72  1556.91  1578.54
                             1609.78  1625.12  1637.46  1699.55  1733.21
                             1750.35  1755.55  1796.89  1799.94  1811.71
                             1823.56  1847.51  1870.22  1903.18  1912.14
                             1928.90  1938.67  1953.89  1964.75  1968.67
                             1980.74  1988.53  2011.38  2043.55  2060.93
                             2077.05  2176.99  2185.57  2187.47  2192.22
                             2200.11  2223.80  2228.02  2252.27  2435.37
                             4291.95  4318.38  4346.22  4351.90  4361.83
                             4363.75  4373.81  4386.41  4393.09  4404.17
                             4425.93  4426.56  4434.94  4453.97  4455.45
                             4457.60  4463.39  4490.77  4550.94  4970.30
                             5096.22

 Zero-point correction=                           0.315130 (Hartree/Particle)
 Thermal correction to Energy=                    0.328422
 Thermal correction to Enthalpy=                  0.329366
 Thermal correction to Gibbs Free Energy=         0.273364
 Sum of electronic and zero-point Energies=           -561.513709
 Sum of electronic and thermal Energies=              -561.500417
 Sum of electronic and thermal Enthalpies=            -561.499473
 Sum of electronic and thermal Free Energies=         -561.555475

                     E (Thermal)             CV                S
                      KCal/Mol        Cal/Mol-Kelvin    Cal/Mol-Kelvin
 Total                  206.088             50.812            117.867
 Electronic               0.000              0.000              0.000
 Translational            0.889              2.981             41.522
 Rotational               0.889              2.981             31.587
 Vibrational            204.310             44.851             44.759
 Vibration     1          0.593              1.986              7.303
 Vibration     2          0.594              1.982              5.395
 Vibration     3          0.599              1.965              3.967
 Vibration     4          0.602              1.957              3.686
 Vibration     5          0.605              1.946              3.367
 Vibration     6          0.618              1.902              2.668
 Vibration     7          0.632              1.859              2.264
 Vibration     8          0.640              1.832              2.080
 Vibration     9          0.660              1.771              1.766
 Vibration    10          0.681              1.709              1.528
 Vibration    11          0.689              1.684              1.449
 Vibration    12          0.728              1.573              1.161
 Vibration    13          0.734              1.557              1.126
 Vibration    14          0.781              1.431              0.899
 Vibration    15          0.804              1.372              0.811
 Vibration    16          0.910              1.131              0.536
 Vibration    17          0.941              1.066              0.478

                           ! Non-Optimized Parameters !
 Normal termination of Gaussian 16 at Wed Dec  9 23:19:23 2020.

 ----------------------------------------------------------------------
 # B3LYP/6-311++G(d,p) empiricaldispersion=gd3bj scf=xqc pop=npa geom=c
 heck
 ----------------------------------------------------------------------

 ---------------------------------------
 CID_103986751_JID_3188_Energie_neutraal
 ---------------------------------------
 Structure from the checkpoint file:  "JID_3188.chk"
 Charge =  0 Multiplicity = 1

 SCF Done:  E(RB3LYP) =  -561.992196593     A.U. after   13 cycles
 Normal termination of Gaussian 16 at Wed Dec  9 23:24:20 2020.

 ----------------------------------------------------------------------
 # B3LYP/6-311++G(d,p) empiricaldispersion=gd3bj scf=xqc pop=npa geom=c
 heck
 ----------------------------------------------------------------------

 -------------------------------------
 CID_103986751_JID_3188_Energie_kation
 -------------------------------------
 Structure from the checkpoint file:  "JID_3188.chk"
 Charge =  1 Multiplicity = 2

 SCF Done:  E(UB3LYP) =  -561.677158662     A.U. after   23 cycles
 Normal termination of Gaussian 16 at Wed Dec  9 23:36:39 2020.
 Gaussian 16:  ES64L-G16RevA.03 25-Dec-2016

 ----------------------------------------------------------------------
 # B3LYP/6-311++G(d,p) empiricaldispersion=gd3bj scf=xqc pop=npa geom=c
 heck
 ----------------------------------------------------------------------

 ------------------------------------
 CID_103986751_JID_3188_Energie_anion
 ------------------------------------
 Structure from the checkpoint file:  "JID_3188.chk"
 Charge = -1 Multiplicity = 2

                         Standard orientation:
 ---------------------------------------------------------------------
 Center     Atomic      Atomic             Coordinates (Angstroms)
 Number     Number       Type             X           Y           Z
 ---------------------------------------------------------------------
      1          6           0        2.850689   -1.763402   -0.054499
      2          6           0        3.802425   -0.556407   -0.079572
      3          6           0        2.936464    0.639642    0.389024
      4          6           0        1.448958    0.196455    0.227721
      5          6           0        1.518703   -1.157150   -0.512422
      6          6           0        0.584507    1.253213   -0.472267
      7          6           0       -0.858416    0.809259   -0.821562
      8          6           0       -1.848847    0.642814    0.344479
      9          6           0       -1.754493   -0.699421    1.100905
     10          6           0       -2.584483   -1.647949    0.216955
     11          8           0       -3.463474   -0.825608   -0.559413
     12          6           0       -3.295444    0.532561   -0.159020
     13          7           0        0.659256    2.505944    0.294764
     14          1           0        2.750138   -2.145428    0.970665
     15          1           0        3.187207   -2.595225   -0.682797
     16          1           0        4.695791   -0.702543    0.536510
     17          1           0        4.146952   -0.390525   -1.108134
     18          1           0        3.135118    1.544002   -0.192798
     19          1           0        3.146431    0.896671    1.431848
     20          1           0        1.034793    0.020649    1.230394
     21          1           0        1.549032   -0.981852   -1.597441
     22          1           0        0.657933   -1.804993   -0.316979
     23          1           0        1.075276    1.459873   -1.435513
     24          1           0       -1.265527    1.581508   -1.490323
     25          1           0       -0.830751   -0.110355   -1.418637
     26          1           0       -1.749639    1.493332    1.029507
     27          1           0       -2.219092   -0.595984    2.088109
     28          1           0       -0.735956   -1.057989    1.250421
     29          1           0       -1.952742   -2.221794   -0.474013
     30          1           0       -3.169839   -2.361813    0.810846
     31          1           0       -4.006667    0.790724    0.643573
     32          1           0       -3.509721    1.166453   -1.025560
     33          1           0        0.077845    3.219060   -0.144557
     34          1           0        0.276041    2.361786    1.228379
 ---------------------------------------------------------------------

 SCF Done:  E(UB3LYP) =  -561.978462155     A.U. after   27 cycles

 The electronic state is 2-A.
 Alpha  occ. eigenvalues --  -19.01692 -14.18600 -10.11195 -10.10819 -10.09513
 Alpha  occ. eigenvalues --  -10.07309 -10.06807 -10.06626 -10.06604 -10.06518
 Alpha  occ. eigenvalues --  -10.06514 -10.06213 -10.05758  -0.93364  -0.78807
 Alpha  occ. eigenvalues --   -0.73275  -0.69842  -0.64305  -0.63222  -0.60836
 Alpha  occ. eigenvalues --   -0.59072  -0.51571  -0.49148  -0.47909  -0.46535
 Alpha  occ. eigenvalues --   -0.45024  -0.40109  -0.39904  -0.38264  -0.37941
 Alpha  occ. eigenvalues --   -0.35265  -0.34438  -0.33633  -0.33070  -0.31622
 Alpha  occ. eigenvalues --   -0.30984  -0.29823  -0.28837  -0.27247  -0.25067
 Alpha  occ. eigenvalues --   -0.24338  -0.23968  -0.23513  -0.23105  -0.22670
 Alpha  occ. eigenvalues --   -0.22225  -0.22133  -0.21018  -0.20284  -0.15101
 Alpha  occ. eigenvalues --   -0.13958   0.04460
 Alpha virt. eigenvalues --    0.06454   0.07074   0.07625   0.08657   0.08825
 Alpha virt. eigenvalues --    0.09115   0.09826   0.10174   0.11018   0.11329
 Alpha virt. eigenvalues --    0.11650   0.12119   0.12643   0.13183   0.13668

  Beta  occ. eigenvalues --  -19.01693 -14.18564 -10.11179 -10.10796 -10.09503
  Beta  occ. eigenvalues --  -10.07292 -10.06797 -10.06601 -10.06586 -10.06507
  Beta  occ. eigenvalues --  -10.06503 -10.06202 -10.05748  -0.93355  -0.78750
  Beta  occ. eigenvalues --   -0.73245  -0.69803  -0.64263  -0.63180  -0.60805
  Beta  occ. eigenvalues --   -0.59035  -0.51521  -0.49094  -0.47858  -0.46489
  Beta  occ. eigenvalues --   -0.44984  -0.40050  -0.39864  -0.38234  -0.37914
  Beta  occ. eigenvalues --   -0.35219  -0.34398  -0.33597  -0.33036  -0.31602
  Beta  occ. eigenvalues --   -0.30958  -0.29787  -0.28812  -0.27210  -0.25034
  Beta  occ. eigenvalues --   -0.24304  -0.23939  -0.23481  -0.23077  -0.22638
  Beta  occ. eigenvalues --   -0.22201  -0.22109  -0.20990  -0.20253  -0.15082
  Beta  occ. eigenvalues --   -0.13918
  Beta virt. eigenvalues --    0.06533   0.07401   0.07761   0.08057   0.09101
  Beta virt. eigenvalues --    0.09237   0.09616   0.10256   0.10446   0.11269
  Beta virt. eigenvalues --    0.11654   0.12045   0.12357   0.12719   0.13577

 Mulliken charges and spin densities:
               1          2
     1  C    0.301219  -0.736531
     2  C   -0.199940  -0.240254
     3  C    0.479298  -0.944350
     4  C   -0.139638   0.682977
     5  C   -0.406873  -0.001030
     6  C    0.873965  -1.276650
     7  C    0.260814  -0.817079
     8  C   -0.834042   1.082734
     9  C    0.769476  -0.886728
    10  C    0.035898  -0.469627
    11  O   -0.133284   0.015563
    12  C   -0.027958  -0.671077
    13  N   -0.182483  -0.046870
    14  H   -0.065985   0.204575
    15  H   -0.257986   0.418651
    16  H   -0.036565   0.184573
    17  H    0.069177   0.047166
    18  H    0.112437   0.088506
    19  H   -0.106507   0.248599
    20  H   -0.086666   0.272685
    21  H    0.089123   0.075373
    22  H    0.265292  -0.172705
    23  H   -0.053307   0.244081
    24  H   -0.066396   0.248908
    25  H    0.072469   0.101351
    26  H   -0.491270   0.686941
    27  H   -0.428363   0.628568
    28  H   -0.121445   0.234243
    29  H   -0.072624   0.249265
    30  H   -0.054493   0.192655
    31  H   -0.285554   0.439371
    32  H   -0.183682   0.348213
    33  H   -0.135438   0.374932
    34  H    0.041331   0.192973
 Sum of Mulliken charges =  -1.00000   1.00000

 Dipole moment (field-independent basis, Debye):
    X=              2.2508    Y=             -1.9550    Z=             -2.8970  Tot=              4.1570
 Quadrupole moment (field-independent basis, Debye-Ang):
   XX=           -151.8559   YY=           -131.5635   ZZ=           -119.0640
   XY=              3.9957   XZ=              1.2788   YZ=             -1.6980

 Summary of Natural Population Analysis:

                                       Natural Population
                Natural  -----------------------------------------------
    Atom  No    Charge         Core      Valence    Rydberg      Total
 -----------------------------------------------------------------------
      C    1   -0.19001      0.99964     2.18255    0.00783     3.19001
      C    2   -0.19149      0.99964     2.18500    0.00685     3.19149
      C    3   -0.18733      0.99963     2.18020    0.00750     3.18733
      C    4   -0.11265      0.99957     2.10193    0.01115     3.11265
      C    5   -0.19195      0.99962     2.18351    0.00882     3.19195
      C    6   -0.00498      0.99956     1.99177    0.01365     3.00498
      C    7   -0.19599      0.99959     2.18549    0.01091     3.19599
      C    8   -0.12867      0.99959     2.11604    0.01305     3.12867
      C    9   -0.20723      0.99962     2.19860    0.00901     3.20723
      C   10   -0.00987      0.99960     1.99827    0.01200     3.00987
      O   11   -0.30682      0.99990     3.29842    0.00851     4.30682
      C   12   -0.00392      0.99957     1.99048    0.01387     3.00392
      N   13   -0.42183      0.99977     2.91197    0.01009     3.92183
      H   14    0.09437      0.00000     0.40427    0.00136     0.40563
      H   15    0.09738      0.00000     0.40160    0.00102     0.40262
      H   16    0.09737      0.00000     0.40149    0.00115     0.40263
      H   17    0.09105      0.00000     0.40760    0.00136     0.40895
      H   18    0.10349      0.00000     0.39521    0.00130     0.39651
      H   19    0.09899      0.00000     0.39994    0.00106     0.40101
      H   20    0.09540      0.00000     0.40242    0.00218     0.40460
      H   21    0.09263      0.00000     0.40610    0.00126     0.40737
      H   22    0.10149      0.00000     0.39744    0.00107     0.39851
      H   23    0.08602      0.00000     0.41231    0.00167     0.41398
      H   24    0.09809      0.00000     0.40057    0.00134     0.40191
      H   25    0.10043      0.00000     0.39785    0.00172     0.39957
      H   26    0.10534      0.00000     0.39129    0.00337     0.39466
      H   27    0.10236      0.00000     0.39564    0.00200     0.39764
      H   28    0.10598      0.00000     0.39245    0.00157     0.39402
      H   29    0.08078      0.00000     0.41768    0.00154     0.41922
      H   30    0.08368      0.00000     0.41497    0.00135     0.41632
      H   31    0.07985      0.00000     0.41853    0.00162     0.42015
      H   32    0.08934      0.00000     0.40913    0.00153     0.41066
      H   33    0.17561      0.00000     0.32229    0.00210     0.32439
      H   34    0.17311      0.00000     0.32433    0.00256     0.32689
 =======================================================================
   * Total *    0.00000     12.99530    37.83732    0.16738    51.00000

 Normal termination of Gaussian 16 at Wed Dec  9 23:50:53 2020.
