 Gaussian 16, Revision A.03,

 -----------------------------------------------------------
 # opt freq B3LYP/6-31G(d) empiricaldispersion=gd3bj scf=xqc
 -----------------------------------------------------------

 -----------------------------
 CID_69479130_JID_482_neutraal
 -----------------------------
 Symbolic Z-matrix:
 Charge =  0 Multiplicity = 1

 SCF Done:  E(RB3LYP) =  -498.446118278     A.U. after   14 cycles
 SCF Done:  E(RB3LYP) =  -498.448846915     A.U. after   12 cycles
 SCF Done:  E(RB3LYP) =  -498.448781881     A.U. after   11 cycles
 SCF Done:  E(RB3LYP) =  -498.449052849     A.U. after   11 cycles
 SCF Done:  E(RB3LYP) =  -498.449118247     A.U. after   10 cycles
 SCF Done:  E(RB3LYP) =  -498.449136333     A.U. after   10 cycles
 SCF Done:  E(RB3LYP) =  -498.449151160     A.U. after   10 cycles
 SCF Done:  E(RB3LYP) =  -498.449160125     A.U. after   10 cycles
 SCF Done:  E(RB3LYP) =  -498.449168500     A.U. after   10 cycles
 SCF Done:  E(RB3LYP) =  -498.449174363     A.U. after   10 cycles
 SCF Done:  E(RB3LYP) =  -498.449180924     A.U. after   10 cycles
 SCF Done:  E(RB3LYP) =  -498.449186284     A.U. after   10 cycles
 SCF Done:  E(RB3LYP) =  -498.449188102     A.U. after    9 cycles
 Optimization completed.
    -- Stationary point found.

 1\1\GINC-NODE359\FOpt\RB3LYP\6-31G(d)\C7H10O3\VSC10255\08-Dec-2020\0\\
 # opt freq B3LYP/6-31G(d) empiricaldispersion=gd3bj scf=xqc\\CID_69479
 130_JID_482_neutraal\\0,1\C,0.9556341533,0.0495716517,-0.0062211311\C,
 0.2843191678,0.5157606779,1.2805783055\C,0.5748119829,1.9717178084,1.6
 718267477\C,-0.1506000467,2.8612277137,0.6666979158\O,-1.546010531,2.5
 26721407,0.574708059\C,-2.0054172205,1.2631097098,0.742936384\O,-3.163
 7320628,1.0068682423,0.5604449677\O,-1.1462319849,0.3087692951,1.17160
 1874\C,0.1541277894,2.2632540884,3.0891007187\C,0.9902413719,2.6571581

 Normal termination of Gaussian 16 at Tue Dec  8 10:46:19 2020.

 --------------------------------------------------------------------
 #N Geom=AllCheck Guess=TCheck SCRF=Check GenChk RB3LYP/6-31G(d) Freq
 --------------------------------------------------------------------

 Structure from the checkpoint file:  "JID_482.chk"
 -----------------------------
 CID_69479130_JID_482_neutraal
 -----------------------------
 Charge =  0 Multiplicity = 1

 SCF Done:  E(RB3LYP) =  -498.449188102     A.U. after    1 cycles

  Exact polarizability:  97.273   1.690  73.636   1.058   4.448  63.802
 Approx polarizability: 138.293  10.544 100.418   5.383   5.883  94.480

                      1                      2                      3
                      A                      A                      A
 Frequencies --     41.4108                67.9494                77.8763
 Red. masses --      4.5640                 2.5176                 6.7684
 Frc consts  --      0.0046                 0.0068                 0.0242
 IR Inten    --      0.0792                 0.2754                 1.8049

                      4                      5                      6
                      A                      A                      A
 Frequencies --    160.8739               220.3089               236.7665
 Red. masses --      4.1204                 1.4659                 1.4372
 Frc consts  --      0.0628                 0.0419                 0.0475
 IR Inten    --      2.3547                 0.0897                 0.0944

                      7                      8                      9
                      A                      A                      A
 Frequencies --    315.0756               350.6263               385.1781
 Red. masses --      2.3818                 2.7917                 2.5456
 Frc consts  --      0.1393                 0.2022                 0.2225
 IR Inten    --      2.2988                 0.3348                 1.7541

                     10                     11                     12
                      A                      A                      A
 Frequencies --    439.8977               488.5960               571.4266
 Red. masses --      4.2503                 4.3577                 4.3100
 Frc consts  --      0.4846                 0.6129                 0.8292
 IR Inten    --      0.5026                 3.0973                 3.3201

                     13                     14                     15
                      A                      A                      A
 Frequencies --    592.0431               690.9998               745.9561
 Red. masses --      6.1586                 1.9269                10.2588
 Frc consts  --      1.2719                 0.5421                 3.3634
 IR Inten    --      2.2362                 7.5900                26.4134

                     16                     17                     18
                      A                      A                      A
 Frequencies --    763.0702               826.4251               887.3829
 Red. masses --      4.4276                 3.0746                 2.4979
 Frc consts  --      1.5190                 1.2372                 1.1589
 IR Inten    --      7.2251                 2.3192                 0.1493

                     19                     20                     21
                      A                      A                      A
 Frequencies --    898.6960               953.6565               968.5828
 Red. masses --      2.1101                 1.3531                 2.4673
 Frc consts  --      1.0041                 0.7251                 1.3638
 IR Inten    --      3.0974                31.8798                 3.3274

                     22                     23                     24
                      A                      A                      A
 Frequencies --   1001.8186              1025.1148              1034.8636
 Red. masses --      1.8998                 1.3479                 1.3850
 Frc consts  --      1.1234                 0.8345                 0.8739
 IR Inten    --      4.4685                 6.2459                 6.4581

                     25                     26                     27
                      A                      A                      A
 Frequencies --   1072.8772              1122.4081              1150.4123
 Red. masses --      1.8942                 2.4900                 2.1828
 Frc consts  --      1.2846                 1.8482                 1.7021
 IR Inten    --     24.7195                27.5329                17.8849

                     28                     29                     30
                      A                      A                      A
 Frequencies --   1169.4376              1188.2520              1202.5427
 Red. masses --      4.1300                 3.4078                 2.0373
 Frc consts  --      3.3278                 2.8349                 1.7358
 IR Inten    --    265.9222               172.4192                10.3493

                     31                     32                     33
                      A                      A                      A
 Frequencies --   1278.0003              1316.2572              1327.9063
 Red. masses --      1.1785                 1.6180                 1.4570
 Frc consts  --      1.1340                 1.6517                 1.5137
 IR Inten    --     28.2595                50.0249                12.9333

                     34                     35                     36
                      A                      A                      A
 Frequencies --   1348.5009              1400.4136              1411.3232
 Red. masses --      1.2523                 1.4234                 1.3204
 Frc consts  --      1.3418                 1.6447                 1.5495
 IR Inten    --      3.0607                10.9615                22.3909

                     37                     38                     39
                      A                      A                      A
 Frequencies --   1439.9199              1445.1957              1483.8391
 Red. masses --      1.3251                 1.4108                 1.2206
 Frc consts  --      1.6187                 1.7361                 1.5834
 IR Inten    --     12.6340                46.9304                 7.0346

                     40                     41                     42
                      A                      A                      A
 Frequencies --   1516.5518              1525.4995              1552.0251
 Red. masses --      1.0552                 1.0545                 1.0827
 Frc consts  --      1.4299                 1.4459                 1.5366
 IR Inten    --      1.6004                 1.2738                13.8999

                     43                     44                     45
                      A                      A                      A
 Frequencies --   1735.3860              1885.7532              3060.7624
 Red. masses --      4.5314                12.8841                 1.0397
 Frc consts  --      8.0404                26.9945                 5.7388
 IR Inten    --      4.0196               620.7135                 2.3053

                     46                     47                     48
                      A                      A                      A
 Frequencies --   3062.3446              3074.7572              3096.6930
 Red. masses --      1.0767                 1.0703                 1.0882
 Frc consts  --      5.9490                 5.9619                 6.1481
 IR Inten    --      6.8116                54.8288                10.0974

                     49                     50                     51
                      A                      A                      A
 Frequencies --   3133.0387              3137.9904              3146.1043
 Red. masses --      1.1007                 1.1021                 1.1025
 Frc consts  --      6.3660                 6.3937                 6.4294
 IR Inten    --     29.0026                24.0526                13.3667

                     52                     53                     54
                      A                      A                      A
 Frequencies --   3157.0572              3173.3062              3241.5821
 Red. masses --      1.0598                 1.0917                 1.1150
 Frc consts  --      6.2234                 6.4773                 6.9028
 IR Inten    --     10.3792                 3.1813                14.4007

 - Thermochemistry -
 -------------------
 Temperature   298.150 Kelvin.  Pressure   1.00000 Atm.
 Atom     1 has atomic number  6 and mass  12.00000

 Molecular mass:   142.06299 amu.
 Principal axes and moments of inertia in atomic units:
                           1         2         3
     Eigenvalues --   955.559371620.027421957.90913
           X            0.99867  -0.04977  -0.01358
           Y            0.05017   0.99825   0.03119
           Z            0.01200  -0.03183   0.99942
 This molecule is an asymmetric top.
 Rotational symmetry number  1.
 Warning -- assumption of classical behavior for rotation
           may cause significant error
 Rotational temperatures (Kelvin)      0.09064     0.05346     0.04424
 Rotational constants (GHZ):           1.88868     1.11402     0.92177
 Zero-point vibrational energy     434248.8 (Joules/Mol)
                                  103.78796 (Kcal/Mol)
 Warning -- explicit consideration of  13 degrees of freedom as
           vibrations may cause significant error
 Vibrational temperatures:     59.58    97.76   112.05   231.46   316.98
          (Kelvin)            340.65   453.32   504.47   554.19   632.91
                              702.98   822.16   851.82   994.19  1073.26
                             1097.89  1189.04  1276.75  1293.02  1372.10
                             1393.57  1441.39  1474.91  1488.94  1543.63
                             1614.89  1655.19  1682.56  1709.63  1730.19
                             1838.76  1893.80  1910.56  1940.19  2014.88
                             2030.58  2071.72  2079.31  2134.91  2181.98
                             2194.85  2233.02  2496.83  2713.18  4403.75
                             4406.03  4423.89  4455.45  4507.74  4514.87
                             4526.54  4542.30  4565.68  4663.91

 Zero-point correction=                           0.165397 (Hartree/Particle)
 Thermal correction to Energy=                    0.175135
 Thermal correction to Enthalpy=                  0.176079
 Thermal correction to Gibbs Free Energy=         0.129414
 Sum of electronic and zero-point Energies=           -498.283791
 Sum of electronic and thermal Energies=              -498.274053
 Sum of electronic and thermal Enthalpies=            -498.273109
 Sum of electronic and thermal Free Energies=         -498.319774

                     E (Thermal)             CV                S
                      KCal/Mol        Cal/Mol-Kelvin    Cal/Mol-Kelvin
 Total                  109.899             35.453             98.216
 Electronic               0.000              0.000              0.000
 Translational            0.889              2.981             40.765
 Rotational               0.889              2.981             29.495
 Vibrational            108.121             29.491             27.956
 Vibration     1          0.594              1.981              5.190
 Vibration     2          0.598              1.969              4.212
 Vibration     3          0.599              1.964              3.944
 Vibration     4          0.622              1.890              2.539
 Vibration     5          0.647              1.810              1.957
 Vibration     6          0.656              1.784              1.827
 Vibration     7          0.702              1.645              1.336
 Vibration     8          0.728              1.574              1.163
 Vibration     9          0.754              1.502              1.019
 Vibration    10          0.800              1.383              0.827
 Vibration    11          0.844              1.275              0.687
 Vibration    12          0.928              1.093              0.502
 Vibration    13          0.950              1.049              0.464

                           ! Non-Optimized Parameters !

 1\1\GINC-NODE359\Freq\RB3LYP\6-31G(d)\C7H10O3\VSC10255\08-Dec-2020\0\\
 #N Geom=AllCheck Guess=TCheck SCRF=Check GenChk RB3LYP/6-31G(d) Freq\\
 CID_69479130_JID_482_neutraal\\0,1\C,0.9556341533,0.0495716517,-0.0062
 211311\C,0.2843191678,0.5157606779,1.2805783055\C,0.5748119829,1.97171
 78084,1.6718267477\C,-0.1506000467,2.8612277137,0.6666979158\O,-1.5460
 10531,2.526721407,0.574708059\C,-2.0054172205,1.2631097098,0.742936384
 \O,-3.1637320628,1.0068682423,0.5604449677\O,-1.1462319849,0.308769295
 1,1.171601874\C,0.1541277894,2.2632540884,3.0891007187\C,0.9902413719,

 Normal termination of Gaussian 16 at Tue Dec  8 10:50:24 2020.

 ----------------------------------------------------------------------
 # B3LYP/6-311++G(d,p) empiricaldispersion=gd3bj scf=xqc pop=npa geom=c
 heck
 ----------------------------------------------------------------------

 -------------------------------------
 CID_69479130_JID_482_Energie_neutraal
 -------------------------------------
 Structure from the checkpoint file:  "JID_482.chk"
 Charge =  0 Multiplicity = 1

 SCF Done:  E(RB3LYP) =  -498.596612629     A.U. after   14 cycles
 Normal termination of Gaussian 16 at Tue Dec  8 10:51:57 2020.

 ----------------------------------------------------------------------
 # B3LYP/6-311++G(d,p) empiricaldispersion=gd3bj scf=xqc pop=npa geom=c
 heck
 ----------------------------------------------------------------------

 -----------------------------------
 CID_69479130_JID_482_Energie_kation
 -----------------------------------
 Structure from the checkpoint file:  "JID_482.chk"
 Charge =  1 Multiplicity = 2

 SCF Done:  E(UB3LYP) =  -498.235870351     A.U. after   33 cycles
 SCF Done:  E(UB3LYP) =  -498.235870378     a.u. after    2 cycles
 Normal termination of Gaussian 16 at Tue Dec  8 11:02:47 2020.
 Gaussian 16:  ES64L-G16RevA.03 25-Dec-2016

 ----------------------------------
 CID_69479130_JID_482_Energie_anion
 ----------------------------------
 Structure from the checkpoint file:  "JID_482.chk"
 Charge = -1 Multiplicity = 2

                         Standard orientation:
 ---------------------------------------------------------------------
 Center     Atomic      Atomic             Coordinates (Angstroms)
 Number     Number       Type             X           Y           Z
 ---------------------------------------------------------------------
      1          6           0       -0.437123    2.412969    0.154675
      2          6           0        0.110872    1.149787   -0.499483
      3          6           0        1.049482    0.317194    0.385430
      4          6           0        0.194653   -0.311294    1.481789
      5          8           0       -0.920099   -1.035485    0.933698
      6          6           0       -1.540818   -0.661082   -0.211117
      7          8           0       -2.528820   -1.232204   -0.583041
      8          8           0       -0.996314    0.331611   -0.953272
      9          6           0        1.794441   -0.720935   -0.413293
     10          6           0        3.121313   -0.768605   -0.518937
     11          1           0       -0.996164    2.189611    1.068894
     12          1           0       -1.115021    2.920156   -0.537267
     13          1           0        0.380959    3.097109    0.405604
     14          1           0        0.629477    1.416509   -1.424349
     15          1           0        1.771117    0.994059    0.858876
     16          1           0       -0.191119    0.448918    2.170238
     17          1           0        0.758794   -1.046090    2.059529
     18          1           0        1.184775   -1.462844   -0.926699
     19          1           0        3.619708   -1.533235   -1.107574
     20          1           0        3.762412   -0.043770   -0.020713
 ---------------------------------------------------------------------

 SCF Done:  E(UB3LYP) =  -498.587277878     A.U. after   32 cycles

 The electronic state is 2-A.
 Alpha  occ. eigenvalues --  -19.07347 -19.07040 -19.00353 -10.24827 -10.14465
 Alpha  occ. eigenvalues --  -10.13690 -10.09446 -10.08361 -10.07175 -10.06542
 Alpha  occ. eigenvalues --   -1.04152  -0.95325  -0.92898  -0.73853  -0.67323
 Alpha  occ. eigenvalues --   -0.64200  -0.58286  -0.56138  -0.48613  -0.45056
 Alpha  occ. eigenvalues --   -0.42819  -0.41281  -0.40403  -0.36159  -0.35595
 Alpha  occ. eigenvalues --   -0.34771  -0.34032  -0.32846  -0.30264  -0.29703
 Alpha  occ. eigenvalues --   -0.27944  -0.26382  -0.24915  -0.23046  -0.22098
 Alpha  occ. eigenvalues --   -0.19625  -0.19502  -0.17171   0.04513
 Alpha virt. eigenvalues --    0.07436   0.08084   0.08560   0.08974   0.09771
 Alpha virt. eigenvalues --    0.10982   0.11155   0.11517   0.12526   0.12681
 Alpha virt. eigenvalues --    0.14123   0.14560   0.15688   0.16441   0.17383

  Beta  occ. eigenvalues --  -19.07346 -19.07033 -19.00352 -10.24828 -10.14454
  Beta  occ. eigenvalues --  -10.13647 -10.09422 -10.08349 -10.07128 -10.06480
  Beta  occ. eigenvalues --   -1.04143  -0.95314  -0.92893  -0.73801  -0.67272
  Beta  occ. eigenvalues --   -0.64134  -0.58217  -0.56081  -0.48513  -0.45008
  Beta  occ. eigenvalues --   -0.42766  -0.41211  -0.40364  -0.36107  -0.35564
  Beta  occ. eigenvalues --   -0.34725  -0.33993  -0.32807  -0.30195  -0.29644
  Beta  occ. eigenvalues --   -0.27894  -0.26331  -0.24870  -0.23013  -0.22061
  Beta  occ. eigenvalues --   -0.19607  -0.19493  -0.17064
  Beta virt. eigenvalues --    0.07331   0.08059   0.08851   0.09240   0.09740
  Beta virt. eigenvalues --    0.10384   0.11601   0.11986   0.12153   0.12693
  Beta virt. eigenvalues --    0.13336   0.14351   0.15098   0.15803   0.16530

 Mulliken charges and spin densities:
               1          2
     1  C    2.882484  -3.291280
     2  C   -2.134313   1.644684
     3  C    0.565730  -0.337708
     4  C    1.843605  -2.413210
     5  O   -0.156760   0.051942
     6  C    0.250482   0.003197
     7  O   -0.317186  -0.003623
     8  O   -0.065217  -0.021307
     9  C   -1.211360   1.361257
    10  C    0.469613  -0.977821
    11  H   -0.308670   0.465614
    12  H   -0.022587   0.185096
    13  H   -0.783837   0.951442
    14  H   -0.272689   0.509431
    15  H   -0.503961   0.782933
    16  H   -0.445079   0.645295
    17  H   -0.133765   0.341079
    18  H    0.021244   0.175285
    19  H   -0.103382   0.220663
    20  H   -0.574350   0.707032
 Sum of Mulliken charges =  -1.00000   1.00000

 Dipole moment (field-independent basis, Debye):
    X=             -2.1056    Y=             -4.4271    Z=             -2.3345  Tot=              5.4298
 Quadrupole moment (field-independent basis, Debye-Ang):
   XX=           -113.0798   YY=           -105.3238   ZZ=            -94.4827
   XY=            -13.4224   XZ=             -4.1927   YZ=             -5.1980

 Summary of Natural Population Analysis:

                                       Natural Population
                Natural  -----------------------------------------------
    Atom  No    Charge         Core      Valence    Rydberg      Total
 -----------------------------------------------------------------------
      C    1   -0.29582      0.99964     2.28991    0.00628     3.29582
      C    2    0.06999      0.99953     1.91542    0.01507     2.93001
      C    3   -0.16089      0.99954     2.14596    0.01538     3.16089
      C    4   -0.00671      0.99954     1.99351    0.01366     3.00671
      O    5   -0.28382      0.99986     3.27641    0.00755     4.28382
      C    6    0.51428      0.99973     1.45880    0.02719     2.48572
      O    7   -0.30563      0.99986     3.30010    0.00568     4.30563
      O    8   -0.28715      0.99985     3.27926    0.00804     4.28715
      C    9   -0.08841      0.99954     2.07710    0.01178     3.08841
      C   10   -0.17651      0.99956     2.16960    0.00735     3.17651
      H   11    0.10082      0.00000     0.39747    0.00171     0.39918
      H   12    0.10589      0.00000     0.39305    0.00106     0.39411
      H   13    0.11265      0.00000     0.38310    0.00424     0.38735
      H   14    0.09910      0.00000     0.39941    0.00148     0.40090
      H   15    0.12277      0.00000     0.36882    0.00841     0.37723
      H   16    0.09621      0.00000     0.40140    0.00239     0.40379
      H   17    0.09897      0.00000     0.39962    0.00141     0.40103
      H   18    0.09572      0.00000     0.40275    0.00153     0.40428
      H   19    0.09248      0.00000     0.40664    0.00088     0.40752
      H   20    0.09605      0.00000     0.40208    0.00187     0.40395
 =======================================================================
   * Total *   -0.00000      9.99664    27.86041    0.14295    38.00000

 Normal termination of Gaussian 16 at Tue Dec  8 11:08:46 2020.
