 Gaussian 16, Revision A.03,

 -----------------------------------------------------------
 # opt freq B3LYP/6-31G(d) empiricaldispersion=gd3bj scf=xqc
 -----------------------------------------------------------

 -------------------------------
 CID_124467743_JID_1488_neutraal
 -------------------------------
 Symbolic Z-matrix:
 Charge =  0 Multiplicity = 1

 SCF Done:  E(RB3LYP) =  -877.930527969     A.U. after   13 cycles
 SCF Done:  E(RB3LYP) =  -877.935444859     A.U. after   12 cycles
 SCF Done:  E(RB3LYP) =  -877.936095127     A.U. after   11 cycles
 SCF Done:  E(RB3LYP) =  -877.936218279     A.U. after   11 cycles
 SCF Done:  E(RB3LYP) =  -877.936268411     A.U. after   11 cycles
 SCF Done:  E(RB3LYP) =  -877.936304889     A.U. after   11 cycles
 SCF Done:  E(RB3LYP) =  -877.936338819     A.U. after   10 cycles
 SCF Done:  E(RB3LYP) =  -877.936352091     A.U. after   10 cycles
 SCF Done:  E(RB3LYP) =  -877.936359052     A.U. after   10 cycles
 SCF Done:  E(RB3LYP) =  -877.936374985     A.U. after   10 cycles
 SCF Done:  E(RB3LYP) =  -877.936381256     A.U. after   10 cycles
 SCF Done:  E(RB3LYP) =  -877.936383275     A.U. after    9 cycles
 SCF Done:  E(RB3LYP) =  -877.936383326     A.U. after    7 cycles
 Optimization completed.
    -- Stationary point found.
 Normal termination of Gaussian 16 at Tue Dec  8 20:11:34 2020.

 --------------------------------------------------------------------
 #N Geom=AllCheck Guess=TCheck SCRF=Check GenChk RB3LYP/6-31G(d) Freq
 --------------------------------------------------------------------

 Structure from the checkpoint file:  "JID_1488.chk"
 -------------------------------
 CID_124467743_JID_1488_neutraal
 -------------------------------
 Charge =  0 Multiplicity = 1

 SCF Done:  E(RB3LYP) =  -877.936383326     A.U. after    1 cycles

  Exact polarizability: 109.153  -2.271  91.057   0.200   1.146  85.772
 Approx polarizability: 143.973  -3.029 147.912  -4.749   4.110 131.671

                      1                      2                      3
                      A                      A                      A
 Frequencies --     39.4639                60.8059               145.5834
 Red. masses --      2.4925                 5.1413                 3.6472
 Frc consts  --      0.0023                 0.0112                 0.0455
 IR Inten    --      1.1693                 4.9909                 0.2885

                      4                      5                      6
                      A                      A                      A
 Frequencies --    202.8395               262.4756               292.4029
 Red. masses --      3.3326                 4.4888                 4.1458
 Frc consts  --      0.0808                 0.1822                 0.2088
 IR Inten    --      2.5038                 1.9916                 0.2600

                      7                      8                      9
                      A                      A                      A
 Frequencies --    326.9406               346.4255               377.0770
 Red. masses --      2.3447                 2.9465                 2.2364
 Frc consts  --      0.1477                 0.2083                 0.1874
 IR Inten    --      2.4096                 5.7298                 3.3713

                     10                     11                     12
                      A                      A                      A
 Frequencies --    419.6264               431.0408               473.9860
 Red. masses --      3.9488                 1.9666                 4.2526
 Frc consts  --      0.4097                 0.2153                 0.5629
 IR Inten    --     15.2479                 0.1202                25.4679

                     13                     14                     15
                      A                      A                      A
 Frequencies --    560.7229               586.8223               640.4610
 Red. masses --      6.1505                 2.2123                 3.5749
 Frc consts  --      1.1394                 0.4489                 0.8640
 IR Inten    --     23.0997                35.3470                19.2299

                     16                     17                     18
                      A                      A                      A
 Frequencies --    665.5628               746.5613               768.6789
 Red. masses --      3.8620                 2.5841                 2.8821
 Frc consts  --      1.0080                 0.8486                 1.0034
 IR Inten    --      6.0080                 9.4848                34.3492

                     19                     20                     21
                      A                      A                      A
 Frequencies --    830.6566               851.3162               901.1445
 Red. masses --      1.8095                 1.8626                 2.0367
 Frc consts  --      0.7356                 0.7954                 0.9744
 IR Inten    --     17.5054                34.5643                36.4992

                     22                     23                     24
                      A                      A                      A
 Frequencies --    927.1275               953.4762               961.3959
 Red. masses --      2.1486                 1.8799                 2.3215
 Frc consts  --      1.0881                 1.0069                 1.2642
 IR Inten    --     10.5672                 2.2729                 1.8505

                     25                     26                     27
                      A                      A                      A
 Frequencies --    984.9015              1002.9095              1025.2643
 Red. masses --      1.8886                 1.9527                 1.6056
 Frc consts  --      1.0794                 1.1572                 0.9944
 IR Inten    --      0.6991                 1.4020                 2.3381

                     28                     29                     30
                      A                      A                      A
 Frequencies --   1045.6292              1073.3185              1092.1313
 Red. masses --      1.5967                 1.6963                 2.0509
 Frc consts  --      1.0285                 1.1514                 1.4413
 IR Inten    --      4.6688                22.0055                12.3066

                     31                     32                     33
                      A                      A                      A
 Frequencies --   1101.6232              1118.5575              1139.0575
 Red. masses --      3.0546                 1.6609                 2.0094
 Frc consts  --      2.1841                 1.2244                 1.5361
 IR Inten    --     83.9007                53.5559                12.1574

                     34                     35                     36
                      A                      A                      A
 Frequencies --   1161.1342              1207.5342              1215.9668
 Red. masses --      1.5010                 1.6126                 1.3375
 Frc consts  --      1.1924                 1.3854                 1.1652
 IR Inten    --      4.3248                28.5496                 2.3820

                     37                     38                     39
                      A                      A                      A
 Frequencies --   1253.3681              1259.4703              1272.6402
 Red. masses --      1.5308                 1.5526                 1.4100
 Frc consts  --      1.4168                 1.4511                 1.3455
 IR Inten    --      4.9826                 9.0916                 6.4269

                     40                     41                     42
                      A                      A                      A
 Frequencies --   1308.6786              1312.7689              1321.4822
 Red. masses --      1.5416                 1.8649                 2.4914
 Frc consts  --      1.5556                 1.8936                 2.5634
 IR Inten    --      2.1588               121.2919                43.2779

                     43                     44                     45
                      A                      A                      A
 Frequencies --   1323.7705              1360.6453              1365.0194
 Red. masses --      1.6588                 1.3210                 1.4700
 Frc consts  --      1.7127                 1.4410                 1.6138
 IR Inten    --     35.7354                 6.1524                 0.1200

                     46                     47                     48
                      A                      A                      A
 Frequencies --   1422.9880              1455.0498              1488.1651
 Red. masses --      1.4555                 1.3828                 1.0944
 Frc consts  --      1.7365                 1.7248                 1.4280
 IR Inten    --      3.5015                 4.1083                 5.7156

                     49                     50                     51
                      A                      A                      A
 Frequencies --   1491.4060              1519.8336              1533.0759
 Red. masses --      1.0881                 1.0886                 1.0898
 Frc consts  --      1.4260                 1.4816                 1.5092
 IR Inten    --     10.4731                 3.8191                 1.2880

                     52                     53                     54
                      A                      A                      A
 Frequencies --   1538.4241              1555.1070              2934.6701
 Red. masses --      1.0897                 1.1033                 1.0737
 Frc consts  --      1.5196                 1.5720                 5.4481
 IR Inten    --      2.4183                 2.0181                55.7047

                     55                     56                     57
                      A                      A                      A
 Frequencies --   2947.9176              3062.1328              3082.3756
 Red. masses --      1.0740                 1.0658                 1.0672
 Frc consts  --      5.4988                 5.8881                 5.9739
 IR Inten    --    102.4164                13.0748                15.4691

                     58                     59                     60
                      A                      A                      A
 Frequencies --   3087.5262              3095.4034              3103.0423
 Red. masses --      1.0874                 1.0594                 1.0871
 Frc consts  --      6.1075                 5.9806                 6.1670
 IR Inten    --     38.1858                 5.6627                35.6141

                     61                     62                     63
                      A                      A                      A
 Frequencies --   3110.8086              3125.5614              3136.6644
 Red. masses --      1.0606                 1.0977                 1.1030
 Frc consts  --      6.0469                 6.3182                 6.3936
 IR Inten    --      2.7030                 9.5476                14.6408

                     64                     65                     66
                      A                      A                      A
 Frequencies --   3164.9512              3176.8471              3512.5463
 Red. masses --      1.1076                 1.1095                 1.0750
 Frc consts  --      6.5368                 6.5971                 7.8144
 IR Inten    --      1.9649                 2.2933                 0.8394

 - Thermochemistry -
 -------------------
 Temperature   298.150 Kelvin.  Pressure   1.00000 Atm.
 Atom     1 has atomic number  6 and mass  12.00000

 Molecular mass:   175.06670 amu.
 Principal axes and moments of inertia in atomic units:
                           1         2         3
     Eigenvalues --   817.550632822.288472973.05016
           X            0.99986  -0.01100   0.01226
           Y            0.01113   0.99988  -0.01068
           Z           -0.01214   0.01081   0.99987
 This molecule is an asymmetric top.
 Rotational symmetry number  1.
 Warning -- assumption of classical behavior for rotation
           may cause significant error
 Rotational temperatures (Kelvin)      0.10594     0.03069     0.02913
 Rotational constants (GHZ):           2.20750     0.63946     0.60703
 Zero-point vibrational energy     539892.4 (Joules/Mol)
                                  129.03738 (Kcal/Mol)
 Warning -- explicit consideration of  14 degrees of freedom as
           vibrations may cause significant error
 Vibrational temperatures:     56.78    87.49   209.46   291.84   377.64
          (Kelvin)            420.70   470.39   498.43   542.53   603.75
                              620.17   681.96   806.76   844.31   921.48
                              957.60  1074.14  1105.96  1195.13  1224.85
                             1296.55  1333.93  1371.84  1383.23  1417.05
                             1442.96  1475.13  1504.43  1544.27  1571.33
                             1584.99  1609.35  1638.85  1670.61  1737.37
                             1749.50  1803.32  1812.10  1831.05  1882.90
                             1888.78  1901.32  1904.61  1957.67  1963.96
                             2047.36  2093.49  2141.14  2145.80  2186.70
                             2205.75  2213.45  2237.45  4222.34  4241.40
                             4405.73  4434.85  4442.26  4453.60  4464.59
                             4475.76  4496.99  4512.96  4553.66  4570.77
                             5053.77

 Zero-point correction=                           0.205634 (Hartree/Particle)
 Thermal correction to Energy=                    0.215719
 Thermal correction to Enthalpy=                  0.216663
 Thermal correction to Gibbs Free Energy=         0.169379
 Sum of electronic and zero-point Energies=           -877.730749
 Sum of electronic and thermal Energies=              -877.720664
 Sum of electronic and thermal Enthalpies=            -877.719720
 Sum of electronic and thermal Free Energies=         -877.767005

                     E (Thermal)             CV                S
                      KCal/Mol        Cal/Mol-Kelvin    Cal/Mol-Kelvin
 Total                  135.366             39.769             99.519
 Electronic               0.000              0.000              0.000
 Translational            0.889              2.981             41.387
 Rotational               0.889              2.981             30.307
 Vibrational            133.588             33.808             27.825
 Vibration     1          0.594              1.981              5.286
 Vibration     2          0.597              1.973              4.431
 Vibration     3          0.617              1.907              2.729
 Vibration     4          0.639              1.836              2.107
 Vibration     5          0.670              1.742              1.645
 Vibration     6          0.688              1.688              1.460
 Vibration     7          0.711              1.622              1.275
 Vibration     8          0.724              1.583              1.182
 Vibration     9          0.748              1.519              1.051
 Vibration    10          0.782              1.428              0.893
 Vibration    11          0.792              1.403              0.855
 Vibration    12          0.831              1.308              0.726
 Vibration    13          0.916              1.116              0.522
 Vibration    14          0.944              1.060              0.473

 Optimization completed.
    -- Stationary point found.
 Normal termination of Gaussian 16 at Tue Dec  8 20:16:56 2020.

 ----------------------------------------------------------------------
 # B3LYP/6-311++G(d,p) empiricaldispersion=gd3bj scf=xqc pop=npa geom=c
 heck
 ----------------------------------------------------------------------

 ---------------------------------------
 CID_124467743_JID_1488_Energie_neutraal
 ---------------------------------------
 Structure from the checkpoint file:  "JID_1488.chk"
 Charge =  0 Multiplicity = 1

 SCF Done:  E(RB3LYP) =  -878.104249075     A.U. after   14 cycles
 Normal termination of Gaussian 16 at Tue Dec  8 20:19:17 2020.

 ----------------------------------------------------------------------
 # B3LYP/6-311++G(d,p) empiricaldispersion=gd3bj scf=xqc pop=npa geom=c
 heck
 ----------------------------------------------------------------------

 -------------------------------------
 CID_124467743_JID_1488_Energie_kation
 -------------------------------------
 Structure from the checkpoint file:  "JID_1488.chk"
 Charge =  1 Multiplicity = 2

 SCF Done:  E(UB3LYP) =  -877.773686095     A.U. after   29 cycles
 Normal termination of Gaussian 16 at Tue Dec  8 20:24:53 2020.
 Gaussian 16:  ES64L-G16RevA.03 25-Dec-2016

 ----------------------------------------------------------------------
 # B3LYP/6-311++G(d,p) empiricaldispersion=gd3bj scf=xqc pop=npa geom=c
 heck
 ----------------------------------------------------------------------

 ------------------------------------
 CID_124467743_JID_1488_Energie_anion
 ------------------------------------
 Structure from the checkpoint file:  "JID_1488.chk"
 Charge = -1 Multiplicity = 2

                         Standard orientation:
 ---------------------------------------------------------------------
 Center     Atomic      Atomic             Coordinates (Angstroms)
 Number     Number       Type             X           Y           Z
 ---------------------------------------------------------------------
      1          6           0       -1.318711    1.060488    0.436810
      2          6           0       -2.811655    1.073187    0.067696
      3          7           0       -3.135568   -0.355271    0.027965
      4          6           0       -2.047646   -0.946531   -0.747044
      5          6           0       -0.787312   -0.300472   -0.126415
      6          6           0       -0.175274   -1.171708    0.998494
      7          6           0        1.151634   -0.531778    1.416295
      8         16           0        1.851337    0.161150   -0.139016
      9          8           0        2.947825   -0.692895   -0.623539
     10          8           0        2.044463    1.612850    0.023270
     11          6           0        0.345590   -0.129724   -1.143174
     12          1           0       -0.777158    1.919216    0.033415
     13          1           0       -1.203117    1.087571    1.524331
     14          1           0       -2.952896    1.572373   -0.909183
     15          1           0       -3.430024    1.594898    0.804501
     16          1           0       -4.044045   -0.532796   -0.394556
     17          1           0       -2.043451   -2.038358   -0.658967
     18          1           0       -2.096467   -0.693902   -1.823683
     19          1           0       -0.867832   -1.256843    1.840448
     20          1           0        0.010689   -2.181826    0.614436
     21          1           0        1.882596   -1.231565    1.824310
     22          1           0        1.023525    0.313156    2.096127
     23          1           0        0.522133   -1.043397   -1.718036
     24          1           0        0.225572    0.719562   -1.818457
 ---------------------------------------------------------------------

 SCF Done:  E(UB3LYP) =  -878.094543161     A.U. after   25 cycles

 The electronic state is 2-A.
 Alpha  occ. eigenvalues --  -88.94357 -19.01877 -19.01776 -14.19396 -10.11432
 Alpha  occ. eigenvalues --  -10.10964 -10.10511 -10.09258 -10.09086 -10.08795
 Alpha  occ. eigenvalues --  -10.07038  -8.00915  -5.97179  -5.97046  -5.97011
 Alpha  occ. eigenvalues --   -1.00790  -0.90616  -0.82406  -0.75752  -0.66872
 Alpha  occ. eigenvalues --   -0.64213  -0.62763  -0.55870  -0.50202  -0.49425
 Alpha  occ. eigenvalues --   -0.46186  -0.42236  -0.39784  -0.39438  -0.38830
 Alpha  occ. eigenvalues --   -0.36208  -0.35317  -0.33888  -0.33408  -0.32100
 Alpha  occ. eigenvalues --   -0.30289  -0.27966  -0.27592  -0.26997  -0.25843
 Alpha  occ. eigenvalues --   -0.23842  -0.23424  -0.22479  -0.21846  -0.20832
 Alpha  occ. eigenvalues --   -0.18638  -0.12913   0.04343
 Alpha virt. eigenvalues --    0.06874   0.07532   0.08365   0.09310   0.09674
 Alpha virt. eigenvalues --    0.10192   0.11029   0.11353   0.12577   0.13015
 Alpha virt. eigenvalues --    0.13368   0.13444   0.14023   0.14646   0.15288

  Beta  occ. eigenvalues --  -88.94356 -19.01873 -19.01775 -14.19360 -10.11414
  Beta  occ. eigenvalues --  -10.10942 -10.10514 -10.09218 -10.09057 -10.08760
  Beta  occ. eigenvalues --  -10.07021  -8.00914  -5.97178  -5.97044  -5.97011
  Beta  occ. eigenvalues --   -1.00785  -0.90611  -0.82363  -0.75724  -0.66833
  Beta  occ. eigenvalues --   -0.64162  -0.62706  -0.55795  -0.50121  -0.49369
  Beta  occ. eigenvalues --   -0.46128  -0.42150  -0.39751  -0.39403  -0.38796
  Beta  occ. eigenvalues --   -0.36184  -0.35290  -0.33862  -0.33345  -0.32054
  Beta  occ. eigenvalues --   -0.30249  -0.27926  -0.27540  -0.26943  -0.25800
  Beta  occ. eigenvalues --   -0.23809  -0.23395  -0.22452  -0.21832  -0.20824
  Beta  occ. eigenvalues --   -0.18614  -0.12830
  Beta virt. eigenvalues --    0.06898   0.07938   0.08400   0.09116   0.09976
  Beta virt. eigenvalues --    0.10304   0.10700   0.11517   0.11706   0.13079
  Beta virt. eigenvalues --    0.13467   0.13636   0.13859   0.14372   0.14802

 Mulliken charges and spin densities:
               1          2
     1  C   -0.361984  -0.018811
     2  C    1.580888  -2.012170
     3  N   -0.413051   0.325511
     4  C    1.684304  -2.041383
     5  C   -1.708550   2.485335
     6  C    0.947255  -1.333500
     7  C   -0.877005   0.088481
     8  S    0.706562  -0.116461
     9  O   -0.140285  -0.001134
    10  O   -0.239497   0.014368
    11  C    0.009164  -1.195484
    12  H    0.113527   0.088011
    13  H   -0.013598   0.184854
    14  H   -0.443425   0.576080
    15  H   -0.293396   0.466695
    16  H   -0.269295   0.543129
    17  H   -0.421370   0.598453
    18  H   -0.671521   0.830356
    19  H   -0.250649   0.465108
    20  H   -0.077574   0.249355
    21  H   -0.066422   0.300842
    22  H    0.085209   0.122977
    23  H    0.079505   0.166489
    24  H    0.041207   0.212898
 Sum of Mulliken charges =  -1.00000   1.00000

 Dipole moment (field-independent basis, Debye):
    X=              5.0247    Y=              0.6780    Z=              2.0248  Tot=              5.4596
 Quadrupole moment (field-independent basis, Debye-Ang):
   XX=           -148.9822   YY=           -112.8054   ZZ=           -109.1112
   XY=             -3.7957   XZ=             -2.9883   YZ=             -0.3191

 Summary of Natural Population Analysis:

                                       Natural Population
                Natural  -----------------------------------------------
    Atom  No    Charge         Core      Valence    Rydberg      Total
 -----------------------------------------------------------------------
      C    1   -0.19345      0.99959     2.18445    0.00941     3.19345
      C    2   -0.08616      0.99963     2.07496    0.01156     3.08616
      N    3   -0.34022      0.99975     2.82812    0.01236     3.84022
      C    4   -0.08224      0.99957     2.06910    0.01357     3.08224
      C    5   -0.05367      0.99956     2.03735    0.01676     3.05367
      C    6   -0.19546      0.99958     2.18510    0.01078     3.19546
      C    7   -0.28511      0.99959     2.27490    0.01061     3.28511
      S    8    1.00906      4.99931     1.89867    0.09296     6.99094
      O    9   -0.46882      0.99991     3.46336    0.00555     4.46882
      O   10   -0.46907      0.99991     3.46361    0.00555     4.46907
      C   11   -0.28103      0.99952     2.26723    0.01428     3.28103
      H   12    0.10769      0.00000     0.39102    0.00129     0.39231
      H   13    0.09967      0.00000     0.39880    0.00153     0.40033
      H   14    0.08081      0.00000     0.41653    0.00266     0.41919
      H   15    0.09664      0.00000     0.40192    0.00145     0.40336
      H   16    0.18256      0.00000     0.31138    0.00606     0.31744
      H   17    0.10052      0.00000     0.39695    0.00253     0.39948
      H   18    0.08526      0.00000     0.41075    0.00399     0.41474
      H   19    0.11687      0.00000     0.38131    0.00182     0.38313
      H   20    0.10364      0.00000     0.39481    0.00155     0.39636
      H   21    0.11738      0.00000     0.38150    0.00112     0.38262
      H   22    0.11544      0.00000     0.38328    0.00128     0.38456
      H   23    0.11780      0.00000     0.38101    0.00120     0.38220
      H   24    0.12189      0.00000     0.37670    0.00141     0.37811
 =======================================================================
   * Total *    0.00000     14.99592    31.77279    0.23129    47.00000

 Normal termination of Gaussian 16 at Tue Dec  8 20:31:51 2020.
