 Gaussian 16, Revision A.03,

 -----------------------------------------------------------
 # opt freq B3LYP/6-31G(d) empiricaldispersion=gd3bj scf=xqc
 -----------------------------------------------------------

 ------------------------------
 CID_69341045_JID_1600_neutraal
 ------------------------------
 Symbolic Z-matrix:
 Charge =  0 Multiplicity = 1

 SCF Done:  E(RB3LYP) =  -530.094083133     A.U. after   14 cycles
 SCF Done:  E(RB3LYP) =  -530.098708813     A.U. after   12 cycles
 SCF Done:  E(RB3LYP) =  -530.099567112     A.U. after   11 cycles
 SCF Done:  E(RB3LYP) =  -530.099888840     A.U. after   12 cycles
 SCF Done:  E(RB3LYP) =  -530.100051182     A.U. after   11 cycles
 SCF Done:  E(RB3LYP) =  -530.100145806     A.U. after   11 cycles
 SCF Done:  E(RB3LYP) =  -530.100263883     A.U. after   11 cycles
 SCF Done:  E(RB3LYP) =  -530.100313677     A.U. after   11 cycles
 SCF Done:  E(RB3LYP) =  -530.100326293     A.U. after    9 cycles
 SCF Done:  E(RB3LYP) =  -530.100334627     A.U. after    9 cycles
 SCF Done:  E(RB3LYP) =  -530.100354420     A.U. after    7 cycles
 SCF Done:  E(RB3LYP) =  -530.100354466     A.U. after    6 cycles
 SCF Done:  E(RB3LYP) =  -530.100354508     A.U. after    7 cycles
 SCF Done:  E(RB3LYP) =  -530.100354559     A.U. after    7 cycles
 SCF Done:  E(RB3LYP) =  -530.100354595     A.U. after    7 cycles
 SCF Done:  E(RB3LYP) =  -530.100354617     A.U. after    7 cycles
 Optimization completed.
    -- Stationary point found.
 Normal termination of Gaussian 16 at Tue Dec  8 20:39:21 2020.

 --------------------------------------------------------------------
 #N Geom=AllCheck Guess=TCheck SCRF=Check GenChk RB3LYP/6-31G(d) Freq
 --------------------------------------------------------------------

 Structure from the checkpoint file:  "JID_1600.chk"
 ------------------------------
 CID_69341045_JID_1600_neutraal
 ------------------------------
 Charge =  0 Multiplicity = 1

 SCF Done:  E(RB3LYP) =  -530.100354617     A.U. after    1 cycles

  Exact polarizability: 119.979   1.646  92.179   1.340   5.151  61.088
 Approx polarizability: 155.213  -1.023 141.064   3.345  15.820  91.326

                      1                      2                      3
                      A                      A                      A
 Frequencies --     34.0616                57.4379                64.1992
 Red. masses --      2.5693                 5.3946                 3.9104
 Frc consts  --      0.0018                 0.0105                 0.0095
 IR Inten    --      0.2396                 3.7151                 4.4122

                      4                      5                      6
                      A                      A                      A
 Frequencies --     84.0954               168.1954               203.6172
 Red. masses --      2.6637                 2.1849                 3.0660
 Frc consts  --      0.0111                 0.0364                 0.0749
 IR Inten    --      1.4083                 1.5785                 7.5906

                      7                      8                      9
                      A                      A                      A
 Frequencies --    229.9329               256.5275               281.3894
 Red. masses --      1.0632                 1.2270                 1.3387
 Frc consts  --      0.0331                 0.0476                 0.0625
 IR Inten    --      0.3735                18.3803                22.0375

                     10                     11                     12
                      A                      A                      A
 Frequencies --    317.5928               335.3618               356.4838
 Red. masses --      3.1946                 4.2475                 2.5657
 Frc consts  --      0.1898                 0.2815                 0.1921
 IR Inten    --      5.9053                 8.9456                 0.9372

                     13                     14                     15
                      A                      A                      A
 Frequencies --    384.1414               465.8585               565.2237
 Red. masses --      2.5244                 3.7155                 3.4342
 Frc consts  --      0.2195                 0.4751                 0.6464
 IR Inten    --      1.4741                17.1267                 3.6088

                     16                     17                     18
                      A                      A                      A
 Frequencies --    603.6345               649.7023               701.4098
 Red. masses --      3.3298                 5.1870                 3.9218
 Frc consts  --      0.7149                 1.2900                 1.1368
 IR Inten    --      0.7398                35.6845                67.9317

                     19                     20                     21
                      A                      A                      A
 Frequencies --    736.0989               777.7775               794.9943
 Red. masses --      7.2356                 1.9266                 1.1884
 Frc consts  --      2.3099                 0.6867                 0.4425
 IR Inten    --     32.5992               209.1131                 3.5815

                     22                     23                     24
                      A                      A                      A
 Frequencies --    800.0814               902.4748               947.6194
 Red. masses --      1.1947                 2.6806                 2.2872
 Frc consts  --      0.4506                 1.2863                 1.2101
 IR Inten    --     10.1651                 1.2844                 6.2522

                     25                     26                     27
                      A                      A                      A
 Frequencies --    970.2328               987.8102              1025.3418
 Red. masses --      7.6580                 6.7953                 3.9752
 Frc consts  --      4.2473                 3.9067                 2.4623
 IR Inten    --     10.4062                42.2527                 2.2825

                     28                     29                     30
                      A                      A                      A
 Frequencies --   1063.3564              1108.5296              1118.9944
 Red. masses --      3.3556                 1.9426                 1.7775
 Frc consts  --      2.2355                 1.4065                 1.3114
 IR Inten    --      7.6742                15.0487                 9.9951

                     31                     32                     33
                      A                      A                      A
 Frequencies --   1131.2463              1170.1411              1213.3403
 Red. masses --      1.6998                 1.9327                 2.4331
 Frc consts  --      1.2816                 1.5592                 2.1104
 IR Inten    --     22.5702                 3.2925                17.0612

                     34                     35                     36
                      A                      A                      A
 Frequencies --   1255.9895              1320.1236              1357.1432
 Red. masses --      2.7387                 1.7358                 1.3106
 Frc consts  --      2.5455                 1.7823                 1.4223
 IR Inten    --     35.9638                89.8439                38.9521

                     37                     38                     39
                      A                      A                      A
 Frequencies --   1399.7311              1402.6415              1423.9195
 Red. masses --      1.2714                 1.8750                 1.3521
 Frc consts  --      1.4677                 2.1734                 1.6152
 IR Inten    --     15.0463                 9.0043                36.8652

                     40                     41                     42
                      A                      A                      A
 Frequencies --   1439.0086              1439.6593              1475.3657
 Red. masses --      1.3016                 1.2789                 3.6988
 Frc consts  --      1.5880                 1.5618                 4.7436
 IR Inten    --     27.6593                30.8129                16.1137

                     43                     44                     45
                      A                      A                      A
 Frequencies --   1505.5532              1518.9970              1520.8584
 Red. masses --      1.0723                 1.0898                 1.0695
 Frc consts  --      1.4321                 1.4816                 1.4575
 IR Inten    --      4.1823                14.9357                 5.0468

                     46                     47                     48
                      A                      A                      A
 Frequencies --   1523.7589              1534.9493              1536.5635
 Red. masses --      1.0551                 1.0885                 1.0584
 Frc consts  --      1.4434                 1.5110                 1.4723
 IR Inten    --      0.6701                 9.7314                 5.9467

                     49                     50                     51
                      A                      A                      A
 Frequencies --   1633.8337              1674.5504              1738.4745
 Red. masses --      2.0364                 2.0762                 6.4176
 Frc consts  --      3.2029                 3.4302                11.4277
 IR Inten    --    162.0271               507.4253               152.9079

                     52                     53                     54
                      A                      A                      A
 Frequencies --   3053.0649              3053.4969              3059.8835
 Red. masses --      1.0374                 1.0356                 1.0624
 Frc consts  --      5.6975                 5.6887                 5.8605
 IR Inten    --     16.7538                19.1346                38.0230

                     55                     56                     57
                      A                      A                      A
 Frequencies --   3069.2257              3106.5352              3111.5235
 Red. masses --      1.0635                 1.1032                 1.1018
 Frc consts  --      5.9026                 6.2726                 6.2847
 IR Inten    --     32.3007                 2.4137                14.0701

                     58                     59                     60
                      A                      A                      A
 Frequencies --   3123.7609              3127.7635              3137.9876
 Red. masses --      1.1015                 1.1010                 1.1044
 Frc consts  --      6.3330                 6.3459                 6.4074
 IR Inten    --     41.0217                25.9148                30.6999

                     61                     62                     63
                      A                      A                      A
 Frequencies --   3149.0430              3530.7264              3636.1002
 Red. masses --      1.1030                 1.0490                 1.0960
 Frc consts  --      6.4446                 7.7044                 8.5374
 IR Inten    --     21.5199                18.6240                30.7142

 - Thermochemistry -
 -------------------
 Temperature   298.150 Kelvin.  Pressure   1.00000 Atm.
 Atom     1 has atomic number  6 and mass  12.00000

 Molecular mass:   156.10111 amu.
 Principal axes and moments of inertia in atomic units:
                           1         2         3
     Eigenvalues --  1043.025192277.429333094.01620
           X            0.99983   0.01793  -0.00317
           Y           -0.01798   0.99968  -0.01790
           Z            0.00285   0.01796   0.99983
 This molecule is an asymmetric top.
 Rotational symmetry number  1.
 Warning -- assumption of classical behavior for rotation
           may cause significant error
 Rotational temperatures (Kelvin)      0.08304     0.03803     0.02799
 Rotational constants (GHZ):           1.73029     0.79245     0.58330
 Zero-point vibrational energy     510608.9 (Joules/Mol)
                                  122.03845 (Kcal/Mol)
 Warning -- explicit consideration of  16 degrees of freedom as
           vibrations may cause significant error
 Vibrational temperatures:     49.01    82.64    92.37   120.99   242.00
          (Kelvin)            292.96   330.82   369.09   404.86   456.95
                              482.51   512.90   552.69   670.27   813.23
                              868.50   934.78  1009.17  1059.08  1119.05
                             1143.82  1151.14  1298.46  1363.41  1395.95
                             1421.24  1475.24  1529.93  1594.93  1609.98
                             1627.61  1683.57  1745.73  1807.09  1899.36
                             1952.63  2013.90  2018.09  2048.70  2070.41
                             2071.35  2122.72  2166.16  2185.50  2188.18
                             2192.35  2208.45  2210.77  2350.72  2409.30
                             2501.28  4392.68  4393.30  4402.49  4415.93
                             4469.61  4476.79  4494.40  4500.15  4514.86
                             4530.77  5079.93  5231.54

 Zero-point correction=                           0.194481 (Hartree/Particle)
 Thermal correction to Energy=                    0.206260
 Thermal correction to Enthalpy=                  0.207204
 Thermal correction to Gibbs Free Energy=         0.155680
 Sum of electronic and zero-point Energies=           -529.905874
 Sum of electronic and thermal Energies=              -529.894094
 Sum of electronic and thermal Enthalpies=            -529.893150
 Sum of electronic and thermal Free Energies=         -529.944675

                     E (Thermal)             CV                S
                      KCal/Mol        Cal/Mol-Kelvin    Cal/Mol-Kelvin
 Total                  129.430             42.257            108.443
 Electronic               0.000              0.000              0.000
 Translational            0.889              2.981             41.045
 Rotational               0.889              2.981             30.375
 Vibrational            127.653             36.295             37.022
 Vibration     1          0.594              1.983              5.578
 Vibration     2          0.596              1.975              4.543
 Vibration     3          0.597              1.971              4.324
 Vibration     4          0.601              1.960              3.793
 Vibration     5          0.625              1.882              2.456
 Vibration     6          0.639              1.835              2.100
 Vibration     7          0.652              1.795              1.879
 Vibration     8          0.666              1.752              1.685
 Vibration     9          0.681              1.708              1.525
 Vibration    10          0.704              1.640              1.322
 Vibration    11          0.716              1.605              1.234
 Vibration    12          0.732              1.562              1.137
 Vibration    13          0.753              1.504              1.023
 Vibration    14          0.823              1.326              0.749
 Vibration    15          0.921              1.106              0.514
 Vibration    16          0.962              1.024              0.443

 Optimization completed.
    -- Stationary point found.
 Normal termination of Gaussian 16 at Tue Dec  8 20:45:10 2020.

 ----------------------------------------------------------------------
 # B3LYP/6-311++G(d,p) empiricaldispersion=gd3bj scf=xqc pop=npa geom=c
 heck
 ----------------------------------------------------------------------

 --------------------------------------
 CID_69341045_JID_1600_Energie_neutraal
 --------------------------------------
 Structure from the checkpoint file:  "JID_1600.chk"
 Charge =  0 Multiplicity = 1

 SCF Done:  E(RB3LYP) =  -530.255398197     A.U. after   13 cycles
 Normal termination of Gaussian 16 at Tue Dec  8 20:47:23 2020.

 ----------------------------------------------------------------------
 # B3LYP/6-311++G(d,p) empiricaldispersion=gd3bj scf=xqc pop=npa geom=c
 heck
 ----------------------------------------------------------------------

 ------------------------------------
 CID_69341045_JID_1600_Energie_kation
 ------------------------------------
 Structure from the checkpoint file:  "JID_1600.chk"
 Charge =  1 Multiplicity = 2

 SCF Done:  E(UB3LYP) =  -529.980388232     A.U. after   18 cycles
 Normal termination of Gaussian 16 at Tue Dec  8 20:53:02 2020.
 Gaussian 16:  ES64L-G16RevA.03 25-Dec-2016

 ----------------------------------------------------------------------
 # B3LYP/6-311++G(d,p) empiricaldispersion=gd3bj scf=xqc pop=npa geom=c
 heck
 ----------------------------------------------------------------------

 -----------------------------------
 CID_69341045_JID_1600_Energie_anion
 -----------------------------------
 Structure from the checkpoint file:  "JID_1600.chk"
 Charge = -1 Multiplicity = 2

                         Standard orientation:
 ---------------------------------------------------------------------
 Center     Atomic      Atomic             Coordinates (Angstroms)
 Number     Number       Type             X           Y           Z
 ---------------------------------------------------------------------
      1          6           0       -2.496406   -1.843277    0.619355
      2          6           0       -2.129234   -0.880068   -0.510986
      3          7           0       -1.123304    0.108610   -0.123321
      4          6           0       -1.534079    1.342168    0.545677
      5          6           0       -1.610051    2.531693   -0.412590
      6          6           0        0.173072   -0.288025   -0.120510
      7          7           0        0.676342   -1.446833   -0.429643
      8          7           0        2.084243   -1.288772   -0.350866
      9          6           0        2.287959   -0.076066    0.035742
     10          8           0        1.130218    0.648756    0.204572
     11          7           0        3.466646    0.547734    0.386949
     12          1           0       -1.612895   -2.409836    0.925953
     13          1           0       -3.263442   -2.550537    0.284338
     14          1           0       -2.888473   -1.303904    1.489443
     15          1           0       -1.731470   -1.437934   -1.363120
     16          1           0       -3.008998   -0.326017   -0.856686
     17          1           0       -2.511998    1.158059    1.004595
     18          1           0       -0.837058    1.557365    1.361161
     19          1           0       -2.308703    2.328881   -1.231523
     20          1           0       -1.948885    3.431350    0.114065
     21          1           0       -0.625683    2.734114   -0.845862
     22          1           0        3.556543    1.490789    0.022446
     23          1           0        4.264257   -0.026105    0.136652
 ---------------------------------------------------------------------

 SCF Done:  E(UB3LYP) =  -530.244828241     A.U. after   30 cycles

 The electronic state is 2-A.
 Alpha  occ. eigenvalues --  -19.09659 -14.24389 -14.22951 -14.21290 -14.20818
 Alpha  occ. eigenvalues --  -10.18475 -10.18275 -10.11221 -10.11098 -10.06859
 Alpha  occ. eigenvalues --  -10.06153  -1.04819  -0.86930  -0.86049  -0.82317
 Alpha  occ. eigenvalues --   -0.70004  -0.67830  -0.63744  -0.56701  -0.54513
 Alpha  occ. eigenvalues --   -0.52192  -0.47300  -0.43444  -0.41823  -0.40251
 Alpha  occ. eigenvalues --   -0.38916  -0.37681  -0.34738  -0.34578  -0.33952
 Alpha  occ. eigenvalues --   -0.32335  -0.30135  -0.28260  -0.27707  -0.25990
 Alpha  occ. eigenvalues --   -0.25545  -0.24665  -0.22893  -0.20723  -0.17872
 Alpha  occ. eigenvalues --   -0.16944  -0.09957   0.04264
 Alpha virt. eigenvalues --    0.05943   0.07526   0.08234   0.09207   0.10185
 Alpha virt. eigenvalues --    0.10450   0.10862   0.12015   0.12824   0.12949
 Alpha virt. eigenvalues --    0.13387   0.13847   0.15223   0.15443   0.15800

  Beta  occ. eigenvalues --  -19.09641 -14.24390 -14.22867 -14.21284 -14.20815
  Beta  occ. eigenvalues --  -10.18469 -10.18267 -10.11205 -10.11072 -10.06844
  Beta  occ. eigenvalues --  -10.06113  -1.04797  -0.86911  -0.86034  -0.82218
  Beta  occ. eigenvalues --   -0.69958  -0.67796  -0.63706  -0.56671  -0.54431
  Beta  occ. eigenvalues --   -0.52125  -0.47249  -0.43399  -0.41740  -0.40198
  Beta  occ. eigenvalues --   -0.38861  -0.37642  -0.34707  -0.34545  -0.33910
  Beta  occ. eigenvalues --   -0.32296  -0.30092  -0.28212  -0.27665  -0.25962
  Beta  occ. eigenvalues --   -0.25506  -0.24616  -0.22880  -0.20707  -0.17836
  Beta  occ. eigenvalues --   -0.16928  -0.09932
  Beta virt. eigenvalues --    0.06707   0.07575   0.08111   0.08751   0.10052
  Beta virt. eigenvalues --    0.10505   0.11152   0.11282   0.12320   0.13094
  Beta virt. eigenvalues --    0.13196   0.13773   0.14145   0.15341   0.15574

 Mulliken charges and spin densities:
               1          2
     1  C    0.228414  -0.673506
     2  C    0.126553  -0.376393
     3  N    0.089877  -0.039100
     4  C   -0.396945   0.077551
     5  C    1.343750  -1.773490
     6  C    0.716177  -0.849793
     7  N   -0.340025   0.127373
     8  N    0.073342  -0.193958
     9  C   -0.132930   0.342419
    10  O   -0.103183  -0.002222
    11  N   -0.499227   0.162106
    12  H    0.110441   0.053826
    13  H   -0.014428   0.139327
    14  H   -0.065346   0.205081
    15  H    0.158555   0.023655
    16  H   -0.301254   0.463123
    17  H   -0.363639   0.515076
    18  H   -0.066366   0.256861
    19  H   -0.191239   0.331396
    20  H   -0.333986   0.463389
    21  H   -0.202643   0.364953
    22  H   -0.540298   0.810708
    23  H   -0.295600   0.571618
 Sum of Mulliken charges =  -1.00000   1.00000

 Dipole moment (field-independent basis, Debye):
    X=             -3.1401    Y=             -3.3819    Z=              0.2012  Tot=              4.6193
 Quadrupole moment (field-independent basis, Debye-Ang):
   XX=           -139.4593   YY=           -113.9684   ZZ=            -89.4852
   XY=              1.1326   XZ=              2.0423   YZ=             -2.2887

 Summary of Natural Population Analysis:

                                       Natural Population
                Natural  -----------------------------------------------
    Atom  No    Charge         Core      Valence    Rydberg      Total
 -----------------------------------------------------------------------
      C    1   -0.29536      0.99966     2.29046    0.00525     3.29536
      C    2   -0.08118      0.99962     2.07076    0.01079     3.08118
      N    3   -0.25975      0.99963     2.74798    0.01214     3.75975
      C    4   -0.08276      0.99962     2.07220    0.01095     3.08276
      C    5   -0.28706      0.99966     2.28277    0.00463     3.28706
      C    6    0.34822      0.99955     1.63335    0.01887     2.65178
      N    7   -0.20949      0.99966     2.69807    0.01175     3.70949
      N    8   -0.19549      0.99965     2.68290    0.01294     3.69549
      C    9    0.32832      0.99961     1.65140    0.02067     2.67168
      O   10   -0.25619      0.99985     3.24870    0.00764     4.25619
      N   11   -0.40210      0.99971     2.89213    0.01027     3.90210
      H   12    0.10700      0.00000     0.39186    0.00114     0.39300
      H   13    0.09757      0.00000     0.40157    0.00086     0.40243
      H   14    0.09695      0.00000     0.40201    0.00103     0.40305
      H   15    0.10469      0.00000     0.39379    0.00152     0.39531
      H   16    0.09617      0.00000     0.40258    0.00125     0.40383
      H   17    0.09637      0.00000     0.40174    0.00188     0.40363
      H   18    0.10072      0.00000     0.39752    0.00177     0.39928
      H   19    0.09693      0.00000     0.40142    0.00165     0.40307
      H   20    0.10011      0.00000     0.39815    0.00175     0.39989
      H   21    0.10275      0.00000     0.39547    0.00178     0.39725
      H   22    0.19796      0.00000     0.28755    0.01449     0.30204
      H   23    0.19566      0.00000     0.30056    0.00377     0.30434
 =======================================================================
   * Total *   -0.00000     10.99623    30.84496    0.15881    42.00000

 Normal termination of Gaussian 16 at Tue Dec  8 20:59:44 2020.
