 Gaussian 16, Revision A.03,

 -----------------------------------------------------------
 # opt freq B3LYP/6-31G(d) empiricaldispersion=gd3bj scf=xqc
 -----------------------------------------------------------

 -------------------------------
 CID_113324206_JID_7202_neutraal
 -------------------------------
 Symbolic Z-matrix:
 Charge =  0 Multiplicity = 1

 SCF Done:  E(RB3LYP) =  -795.775319698     A.U. after   16 cycles
 SCF Done:  E(RB3LYP) =  -795.780054498     A.U. after   17 cycles
 SCF Done:  E(RB3LYP) =  -795.773741550     A.U. after   18 cycles
 SCF Done:  E(RB3LYP) =  -795.783942938     A.U. after   15 cycles
 SCF Done:  E(RB3LYP) =  -795.785320064     A.U. after   17 cycles
 SCF Done:  E(RB3LYP) =  -795.785735097     A.U. after   16 cycles
 SCF Done:  E(RB3LYP) =  -795.785806732     A.U. after   13 cycles
 SCF Done:  E(RB3LYP) =  -795.785827617     A.U. after   12 cycles
 SCF Done:  E(RB3LYP) =  -795.785836032     A.U. after   11 cycles
 SCF Done:  E(RB3LYP) =  -795.785840749     A.U. after   10 cycles
 SCF Done:  E(RB3LYP) =  -795.785843241     A.U. after   10 cycles
 SCF Done:  E(RB3LYP) =  -795.785843930     A.U. after   10 cycles
 SCF Done:  E(RB3LYP) =  -795.785844049     A.U. after    8 cycles
 Optimization completed.
    -- Stationary point found.
 Normal termination of Gaussian 16 at Fri Dec 11 11:56:32 2020.

 --------------------------------------------------------------------
 #N Geom=AllCheck Guess=TCheck SCRF=Check GenChk RB3LYP/6-31G(d) Freq
 --------------------------------------------------------------------

 Structure from the checkpoint file:  "JID_7202.chk"
 -------------------------------
 CID_113324206_JID_7202_neutraal
 -------------------------------
 Charge =  0 Multiplicity = 1

 SCF Done:  E(RB3LYP) =  -795.785844049     A.U. after    1 cycles

  Exact polarizability: 235.710  -5.115 161.661  -6.993  -4.099  78.836
 Approx polarizability: 346.555 -12.874 300.135 -13.280 -12.446 120.429

                      1                      2                      3
                      A                      A                      A
 Frequencies --     33.7249                44.5814                56.6364
 Red. masses --      5.6323                14.1397                 3.9643
 Frc consts  --      0.0038                 0.0166                 0.0075
 IR Inten    --      0.9707                 0.4520                 1.2952

                      4                      5                      6
                      A                      A                      A
 Frequencies --     93.2082               111.3955               142.1836
 Red. masses --      4.8089                 5.7861                 3.6974
 Frc consts  --      0.0246                 0.0423                 0.0440
 IR Inten    --      0.7733                 2.8218                 1.2508

                      7                      8                      9
                      A                      A                      A
 Frequencies --    169.6610               172.1851               195.3119
 Red. masses --      9.0179                 5.8226                 2.4970
 Frc consts  --      0.1529                 0.1017                 0.0561
 IR Inten    --      1.9480                 7.9168                 2.0256

                     10                     11                     12
                      A                      A                      A
 Frequencies --    247.3403               255.2943               268.4557
 Red. masses --      3.3490                 1.3147                 4.9089
 Frc consts  --      0.1207                 0.0505                 0.2084
 IR Inten    --      4.6438                41.4618                 4.3288

                     13                     14                     15
                      A                      A                      A
 Frequencies --    295.7319               398.0040               405.0902
 Red. masses --      5.9442                 3.4634                 3.8819
 Frc consts  --      0.3063                 0.3232                 0.3753
 IR Inten    --      0.8970                 2.3440                 0.9074

                     16                     17                     18
                      A                      A                      A
 Frequencies --    416.9006               421.2268               448.2023
 Red. masses --      3.2425                 3.3054                 9.2896
 Frc consts  --      0.3320                 0.3455                 1.0995
 IR Inten    --      1.0895                13.9433                 2.9560

                     19                     20                     21
                      A                      A                      A
 Frequencies --    480.2870               491.6538               565.8791
 Red. masses --      3.6966                 4.4928                 7.5840
 Frc consts  --      0.5024                 0.6399                 1.4309
 IR Inten    --      5.0221                 4.9478                 2.1571

                     22                     23                     24
                      A                      A                      A
 Frequencies --    641.4798               646.2332               687.9955
 Red. masses --      5.7941                 5.7117                 5.4598
 Frc consts  --      1.4048                 1.4054                 1.5227
 IR Inten    --      2.2155                 1.4443                 4.6947

                     25                     26                     27
                      A                      A                      A
 Frequencies --    693.9510               712.2484               752.8018
 Red. masses --      3.5168                 2.8602                 6.2733
 Frc consts  --      0.9978                 0.8549                 2.0946
 IR Inten    --      7.8732                 1.8616                14.3101

                     28                     29                     30
                      A                      A                      A
 Frequencies --    782.6947               831.2312               840.2592
 Red. masses --      4.6672                 1.8931                 3.7476
 Frc consts  --      1.6846                 0.7707                 1.5590
 IR Inten    --     14.1880                16.3360                44.0442

                     31                     32                     33
                      A                      A                      A
 Frequencies --    842.6483               865.7155               871.0991
 Red. masses --      2.5792                 2.3829                 1.5746
 Frc consts  --      1.0790                 1.0522                 0.7040
 IR Inten    --     35.8024                14.5559                25.5381

                     34                     35                     36
                      A                      A                      A
 Frequencies --    898.9948               901.6138               939.3496
 Red. masses --      4.3090                 1.5921                 1.6477
 Frc consts  --      2.0518                 0.7625                 0.8566
 IR Inten    --      0.5624               148.7261                19.9898

                     37                     38                     39
                      A                      A                      A
 Frequencies --    984.7853               995.9597              1018.6157
 Red. masses --      1.2999                 1.8632                 2.8197
 Frc consts  --      0.7428                 1.0889                 1.7237
 IR Inten    --      1.3556                 3.5542                 4.3157

                     40                     41                     42
                      A                      A                      A
 Frequencies --   1043.5333              1079.2714              1115.9551
 Red. masses --      1.9136                 1.6802                 3.2336
 Frc consts  --      1.2278                 1.1531                 2.3726
 IR Inten    --      0.9775                57.5870               103.2714

                     43                     44                     45
                      A                      A                      A
 Frequencies --   1133.4904              1191.6611              1201.7155
 Red. masses --      1.4002                 1.2538                 5.3339
 Frc consts  --      1.0599                 1.0490                 4.5384
 IR Inten    --      2.5070                 4.8201                30.3905

                     46                     47                     48
                      A                      A                      A
 Frequencies --   1206.8340              1215.4602              1218.8300
 Red. masses --      1.2534                 1.7270                 2.2606
 Frc consts  --      1.0756                 1.5032                 1.9786
 IR Inten    --      1.6195                30.6377                 8.3970

                     49                     50                     51
                      A                      A                      A
 Frequencies --   1257.7454              1289.8751              1313.3835
 Red. masses --      1.2956                 1.5008                 1.4535
 Frc consts  --      1.2076                 1.4712                 1.4772
 IR Inten    --      4.3091                 5.7108                79.2431

                     52                     53                     54
                      A                      A                      A
 Frequencies --   1323.4747              1343.3667              1363.8153
 Red. masses --      1.6612                 1.3947                 1.8332
 Frc consts  --      1.7144                 1.4830                 2.0089
 IR Inten    --      4.0350                 0.6030                26.3393

                     55                     56                     57
                      A                      A                      A
 Frequencies --   1379.0804              1394.1557              1407.9171
 Red. masses --      5.9494                 1.6213                 2.7065
 Frc consts  --      6.6665                 1.8567                 3.1609
 IR Inten    --    897.0892                 6.6170                 5.3066

                     58                     59                     60
                      A                      A                      A
 Frequencies --   1437.8325              1441.1685              1479.5922
 Red. masses --      2.9147                 1.3857                 4.8649
 Frc consts  --      3.5503                 1.6957                 6.2749
 IR Inten    --     74.0026                 9.7563                45.5403

                     61                     62                     63
                      A                      A                      A
 Frequencies --   1514.3489              1540.9419              1555.4221
 Red. masses --      1.1006                 1.1162                 2.2929
 Frc consts  --      1.4870                 1.5616                 3.2684
 IR Inten    --     12.2519                35.7953               125.3578

                     64                     65                     66
                      A                      A                      A
 Frequencies --   1562.4097              1596.1301              1648.1382
 Red. masses --      1.3520                 8.7753                 8.6204
 Frc consts  --      1.9445                13.1719                13.7963
 IR Inten    --      1.0273                78.7021               249.4600

                     67                     68                     69
                      A                      A                      A
 Frequencies --   1659.9471              1702.8376              2353.1570
 Red. masses --      5.8737                 1.0918                12.6807
 Frc consts  --      9.5357                 1.8652                41.3709
 IR Inten    --    358.9315                29.3265                 5.7077

                     70                     71                     72
                      A                      A                      A
 Frequencies --   3006.6950              3016.7315              3068.5718
 Red. masses --      1.0680                 1.0685                 1.0917
 Frc consts  --      5.6886                 5.7291                 6.0567
 IR Inten    --     55.5904                36.7220                10.8052

                     73                     74                     75
                      A                      A                      A
 Frequencies --   3080.2713              3085.6584              3104.3010
 Red. masses --      1.0959                 1.0724                 1.0859
 Frc consts  --      6.1266                 6.0162                 6.1653
 IR Inten    --     22.1873                28.4932                51.4267

                     76                     77                     78
                      A                      A                      A
 Frequencies --   3151.5800              3233.6888              3248.2137
 Red. masses --      1.1016                 1.0887                 1.0903
 Frc consts  --      6.4465                 6.7076                 6.7776
 IR Inten    --     15.4728                 6.0265                 1.9390

                     79                     80                     81
                      A                      A                      A
 Frequencies --   3255.7893              3464.4643              3549.8634
 Red. masses --      1.0930                 1.0496                 1.0923
 Frc consts  --      6.8262                 7.4227                 8.1097
 IR Inten    --      2.7244                 0.5059                 0.0078

 - Thermochemistry -
 -------------------
 Temperature   298.150 Kelvin.  Pressure   1.00000 Atm.
 Atom     1 has atomic number  6 and mass  12.00000

 Molecular mass:   232.09603 amu.
 Principal axes and moments of inertia in atomic units:
                           1         2         3
     Eigenvalues --  1664.242357746.828729032.33844
           X            1.00000   0.00283   0.00003
           Y           -0.00283   0.99997   0.00655
           Z           -0.00001  -0.00655   0.99998
 This molecule is an asymmetric top.
 Rotational symmetry number  1.
 Warning -- assumption of classical behavior for rotation
           may cause significant error
 Rotational temperatures (Kelvin)      0.05204     0.01118     0.00959
 Rotational constants (GHZ):           1.08442     0.23297     0.19981
 Zero-point vibrational energy     603264.5 (Joules/Mol)
                                  144.18368 (Kcal/Mol)
 Warning -- explicit consideration of  21 degrees of freedom as
           vibrations may cause significant error
 Vibrational temperatures:     48.52    64.14    81.49   134.11   160.27
          (Kelvin)            204.57   244.10   247.74   281.01   355.87
                              367.31   386.25   425.49   572.64   582.83
                              599.83   606.05   644.86   691.03   707.38
                              814.17   922.95   929.79   989.87   998.44
                             1024.77  1083.11  1126.12  1195.96  1208.95
                             1212.38  1245.57  1253.32  1293.45  1297.22
                             1351.51  1416.89  1432.96  1465.56  1501.41
                             1552.83  1605.61  1630.84  1714.53  1729.00
                             1736.36  1748.78  1753.62  1809.62  1855.84
                             1889.67  1904.18  1932.81  1962.23  1984.19
                             2005.88  2025.68  2068.72  2073.52  2128.80
                             2178.81  2217.07  2237.91  2247.96  2296.48
                             2371.30  2388.29  2450.00  3385.67  4325.96
                             4340.40  4414.99  4431.82  4439.57  4466.40
                             4534.42  4652.56  4673.45  4684.35  4984.59
                             5107.46

 Zero-point correction=                           0.229771 (Hartree/Particle)
 Thermal correction to Energy=                    0.244711
 Thermal correction to Enthalpy=                  0.245655
 Thermal correction to Gibbs Free Energy=         0.186471
 Sum of electronic and zero-point Energies=           -795.556073
 Sum of electronic and thermal Energies=              -795.541134
 Sum of electronic and thermal Enthalpies=            -795.540189
 Sum of electronic and thermal Free Energies=         -795.599373

                     E (Thermal)             CV                S
                      KCal/Mol        Cal/Mol-Kelvin    Cal/Mol-Kelvin
 Total                  153.558             56.325            124.564
 Electronic               0.000              0.000              0.000
 Translational            0.889              2.981             42.228
 Rotational               0.889              2.981             33.121
 Vibrational            151.781             50.364             49.215
 Vibration     1          0.594              1.983              5.597
 Vibration     2          0.595              1.980              5.044
 Vibration     3          0.596              1.975              4.571
 Vibration     4          0.602              1.954              3.592
 Vibration     5          0.607              1.940              3.244
 Vibration     6          0.616              1.911              2.774
 Vibration     7          0.625              1.880              2.439
 Vibration     8          0.626              1.877              2.411
 Vibration     9          0.636              1.846              2.177
 Vibration    10          0.661              1.767              1.749
 Vibration    11          0.666              1.754              1.694
 Vibration    12          0.673              1.731              1.606
 Vibration    13          0.690              1.682              1.441
 Vibration    14          0.764              1.474              0.970
 Vibration    15          0.770              1.459              0.944
 Vibration    16          0.780              1.434              0.903
 Vibration    17          0.784              1.424              0.888
 Vibration    18          0.807              1.365              0.801
 Vibration    19          0.837              1.294              0.709
 Vibration    20          0.847              1.269              0.679
 Vibration    21          0.922              1.105              0.512

 Optimization completed.
    -- Stationary point found.
 Normal termination of Gaussian 16 at Fri Dec 11 12:06:34 2020.

 ----------------------------------------------------------------------
 # B3LYP/6-311++G(d,p) empiricaldispersion=gd3bj scf=xqc pop=npa geom=c
 heck
 ----------------------------------------------------------------------

 ---------------------------------------
 CID_113324206_JID_7202_Energie_neutraal
 ---------------------------------------
 Structure from the checkpoint file:  "JID_7202.chk"
 Charge =  0 Multiplicity = 1

 SCF Done:  E(RB3LYP) =  -796.010332068     A.U. after   16 cycles
 Normal termination of Gaussian 16 at Fri Dec 11 12:11:33 2020.

 ----------------------------------------------------------------------
 # B3LYP/6-311++G(d,p) empiricaldispersion=gd3bj scf=xqc pop=npa geom=c
 heck
 ----------------------------------------------------------------------

 -------------------------------------
 CID_113324206_JID_7202_Energie_kation
 -------------------------------------
 Structure from the checkpoint file:  "JID_7202.chk"
 Charge =  1 Multiplicity = 2

 SCF Done:  E(UB3LYP) =  -795.709065863     A.U. after   27 cycles
 Normal termination of Gaussian 16 at Fri Dec 11 12:22:35 2020.
 Gaussian 16:  ES64L-G16RevA.03 25-Dec-2016

 ----------------------------------------------------------------------
 # B3LYP/6-311++G(d,p) empiricaldispersion=gd3bj scf=xqc pop=npa geom=c
 heck
 ----------------------------------------------------------------------

 ------------------------------------
 CID_113324206_JID_7202_Energie_anion
 ------------------------------------
 Structure from the checkpoint file:  "JID_7202.chk"
 Charge = -1 Multiplicity = 2

                         Standard orientation:
 ---------------------------------------------------------------------
 Center     Atomic      Atomic             Coordinates (Angstroms)
 Number     Number       Type             X           Y           Z
 ---------------------------------------------------------------------
      1          6           0        4.171251   -0.741033   -0.670169
      2          6           0        2.807565   -1.365199   -0.340333
      3          7           0        1.916568   -0.205546   -0.229468
      4          6           0        2.642841    1.062796   -0.306664
      5          6           0        4.105640    0.654227   -0.027214
      6          7           0        4.469402    0.573755    1.387880
      7          6           0        0.561678   -0.306603   -0.145143
      8          6           0       -0.257667    0.845770   -0.183494
      9          6           0       -1.646636    0.758695   -0.085608
     10          6           0       -2.247804   -0.508207    0.048846
     11          6           0       -1.451350   -1.653616    0.080680
     12          6           0       -0.075521   -1.566175   -0.013890
     13          7           0       -3.688319   -0.661657    0.156636
     14          8           0       -4.135793   -1.807236    0.262377
     15          8           0       -4.379919    0.357605    0.137154
     16          6           0       -2.359783    2.002881   -0.139570
     17          7           0       -2.774157    3.087472   -0.199331
     18          1           0        4.282640   -0.645882   -1.755177
     19          1           0        5.009700   -1.322329   -0.281995
     20          1           0        2.461313   -2.049432   -1.123634
     21          1           0        2.831028   -1.930134    0.603001
     22          1           0        2.273965    1.771876    0.442806
     23          1           0        2.527865    1.526283   -1.298704
     24          1           0        4.799278    1.350377   -0.507394
     25          1           0        4.423189    1.498520    1.812585
     26          1           0        3.795365   -0.002087    1.891819
     27          1           0        0.182040    1.826801   -0.303911
     28          1           0       -1.941337   -2.613115    0.185609
     29          1           0        0.514916   -2.473205    0.024095
 ---------------------------------------------------------------------

 SCF Done:  E(UB3LYP) =  -796.055034586     A.U. after   25 cycles

 The electronic state is 2-A.
 Alpha  occ. eigenvalues --  -18.95419 -18.95199 -14.33587 -14.23410 -14.23247
 Alpha  occ. eigenvalues --  -14.15645 -10.13799 -10.12778 -10.12318 -10.10402
 Alpha  occ. eigenvalues --  -10.09998 -10.07286 -10.07237 -10.06416 -10.05965
 Alpha  occ. eigenvalues --  -10.05788 -10.05597  -1.03405  -0.87567  -0.86206
 Alpha  occ. eigenvalues --   -0.82057  -0.76351  -0.74213  -0.70229  -0.66353
 Alpha  occ. eigenvalues --   -0.64353  -0.63866  -0.57194  -0.53115  -0.51421
 Alpha  occ. eigenvalues --   -0.49694  -0.46379  -0.46054  -0.43781  -0.40074
 Alpha  occ. eigenvalues --   -0.38367  -0.37696  -0.37170  -0.36143  -0.35776
 Alpha  occ. eigenvalues --   -0.35645  -0.32913  -0.32694  -0.32015  -0.30769
 Alpha  occ. eigenvalues --   -0.29459  -0.28747  -0.28106  -0.27528  -0.26822
 Alpha  occ. eigenvalues --   -0.24288  -0.22461  -0.22062  -0.18974  -0.18820
 Alpha  occ. eigenvalues --   -0.17812  -0.14338  -0.13678  -0.12985  -0.10765
 Alpha  occ. eigenvalues --   -0.09792   0.01701
 Alpha virt. eigenvalues --    0.04859   0.06777   0.06934   0.08191   0.08509
 Alpha virt. eigenvalues --    0.09372   0.09928   0.10187   0.11525   0.11828
 Alpha virt. eigenvalues --    0.12904   0.13704   0.13912   0.14527   0.14659

  Beta  occ. eigenvalues --  -18.95006 -18.94742 -14.33077 -14.23341 -14.23246
  Beta  occ. eigenvalues --  -14.15399 -10.13799 -10.12783 -10.12321 -10.10402
  Beta  occ. eigenvalues --  -10.09797 -10.07160 -10.06960 -10.06476 -10.06034
  Beta  occ. eigenvalues --  -10.05798 -10.05561  -1.02499  -0.87437  -0.85388
  Beta  occ. eigenvalues --   -0.82013  -0.75998  -0.73946  -0.70058  -0.66270
  Beta  occ. eigenvalues --   -0.64063  -0.63497  -0.56697  -0.52979  -0.51116
  Beta  occ. eigenvalues --   -0.49572  -0.46121  -0.45954  -0.43705  -0.39981
  Beta  occ. eigenvalues --   -0.38053  -0.37526  -0.36807  -0.36105  -0.35550
  Beta  occ. eigenvalues --   -0.33173  -0.32614  -0.32577  -0.31926  -0.30445
  Beta  occ. eigenvalues --   -0.29369  -0.28614  -0.28089  -0.27492  -0.26008
  Beta  occ. eigenvalues --   -0.24170  -0.21733  -0.21545  -0.18823  -0.18587
  Beta  occ. eigenvalues --   -0.17322  -0.13048  -0.12553  -0.11095  -0.10334
  Beta  occ. eigenvalues --   -0.08874
  Beta virt. eigenvalues --    0.04828   0.06705   0.06900   0.07914   0.08393
  Beta virt. eigenvalues --    0.09097   0.09517   0.10011   0.10168   0.11517
  Beta virt. eigenvalues --    0.11823   0.12879   0.13736   0.14487   0.14645

 Mulliken charges and spin densities:
               1          2
     1  C   -0.682369  -0.004962
     2  C   -0.059037  -0.002162
     3  N    0.229953   0.015759
     4  C   -0.233722  -0.017366
     5  C   -0.302269  -0.000103
     6  N   -0.326170   0.000264
     7  C   -0.273524   0.132696
     8  C    0.283735  -0.053729
     9  C    1.888054   0.264351
    10  C   -1.479894   0.001037
    11  C   -0.371912   0.064882
    12  C    0.007270   0.002087
    13  N   -0.353927   0.167838
    14  O   -0.150450   0.171290
    15  O   -0.111981   0.156853
    16  C   -0.852184  -0.071698
    17  N   -0.311366   0.124212
    18  H    0.128296   0.002906
    19  H    0.191450  -0.000053
    20  H    0.144229   0.002809
    21  H    0.143589   0.004840
    22  H    0.157767   0.004430
    23  H    0.133025   0.019302
    24  H    0.188411   0.012753
    25  H    0.224040   0.000084
    26  H    0.237679   0.000101
    27  H    0.171693   0.005254
    28  H    0.234378  -0.002606
    29  H    0.145235  -0.001069
 Sum of Mulliken charges =  -1.00000   1.00000

 Dipole moment (field-independent basis, Debye):
    X=             16.8904    Y=             -2.2584    Z=             -0.5089  Tot=             17.0483
 Quadrupole moment (field-independent basis, Debye-Ang):
   XX=           -188.2057   YY=           -126.6372   ZZ=           -104.4744
   XY=              8.3118   XZ=             -1.5951   YZ=              3.0792

 Summary of Natural Population Analysis:

                                       Natural Population
                Natural  -----------------------------------------------
    Atom  No    Charge         Core      Valence    Rydberg      Total
 -----------------------------------------------------------------------
      C    1   -0.19655      0.99962     2.18964    0.00729     3.19655
      C    2   -0.08369      0.99965     2.07542    0.00862     3.08369
      N    3   -0.24534      0.99964     2.73689    0.00881     3.74534
      C    4   -0.08742      0.99962     2.07929    0.00850     3.08742
      C    5   -0.01668      0.99961     2.00578    0.01129     3.01668
      N    6   -0.42385      0.99977     2.91392    0.01016     3.92385
      C    7    0.12890      0.99952     1.86245    0.00914     2.87110
      C    8   -0.12556      0.99953     2.11958    0.00645     3.12556
      C    9   -0.02193      0.99939     2.01086    0.01168     3.02193
      C   10    0.05423      0.99938     1.93245    0.01393     2.94577
      C   11   -0.07739      0.99954     2.06867    0.00917     3.07739
      C   12   -0.13989      0.99955     2.13258    0.00776     3.13989
      N   13    0.29297      0.99971     2.18174    0.02559     3.20703
      O   14   -0.19632      0.99990     3.18892    0.00750     4.19632
      O   15   -0.18288      0.99990     3.17416    0.00882     4.18288
      C   16    0.14830      0.99962     1.83344    0.01864     2.85170
      N   17   -0.15597      0.99978     2.64520    0.01099     3.65597
      H   18    0.09947      0.00000     0.39955    0.00097     0.40053
      H   19    0.10490      0.00000     0.39390    0.00120     0.39510
      H   20    0.09605      0.00000     0.40217    0.00178     0.40395
      H   21    0.08689      0.00000     0.41153    0.00158     0.41311
      H   22    0.09763      0.00000     0.40074    0.00163     0.40237
      H   23    0.09102      0.00000     0.40747    0.00151     0.40898
      H   24    0.09120      0.00000     0.40707    0.00173     0.40880
      H   25    0.17365      0.00000     0.32487    0.00148     0.32635
      H   26    0.17505      0.00000     0.32327    0.00168     0.32495
      H   27    0.10202      0.00000     0.39697    0.00101     0.39798
      H   28    0.11600      0.00000     0.38279    0.00121     0.38400
      H   29    0.09518      0.00000     0.40354    0.00128     0.40482
 =======================================================================
   * Total *   -0.00000     16.99373    43.80486    0.20141    61.00000

 Normal termination of Gaussian 16 at Fri Dec 11 12:32:58 2020.
