 Gaussian 16, Revision A.03,

 -----------------------------------------------------------
 # opt freq B3LYP/6-31G(d) empiricaldispersion=gd3bj scf=xqc
 -----------------------------------------------------------

 -------------------------------
 CID_123506837_JID_1599_neutraal
 -------------------------------
 Symbolic Z-matrix:
 Charge =  0 Multiplicity = 1

 SCF Done:  E(RB3LYP) =  -430.044704145     A.U. after   12 cycles
 SCF Done:  E(RB3LYP) =  -430.047750708     A.U. after   10 cycles
 SCF Done:  E(RB3LYP) =  -430.047882460     A.U. after   10 cycles
 SCF Done:  E(RB3LYP) =  -430.047898677     A.U. after    8 cycles
 SCF Done:  E(RB3LYP) =  -430.047902329     A.U. after    7 cycles
 Optimization completed.
    -- Stationary point found.
 Normal termination of Gaussian 16 at Tue Dec  8 20:25:53 2020.

 --------------------------------------------------------------------
 #N Geom=AllCheck Guess=TCheck SCRF=Check GenChk RB3LYP/6-31G(d) Freq
 --------------------------------------------------------------------

 Structure from the checkpoint file:  "JID_1599.chk"
 -------------------------------
 CID_123506837_JID_1599_neutraal
 -------------------------------
 Charge =  0 Multiplicity = 1

 SCF Done:  E(RB3LYP) =  -430.047902329     A.U. after    1 cycles

  Exact polarizability: 111.661  -0.276 109.553  -0.840   0.391  93.232
 Approx polarizability: 148.060  -0.018 148.389  -1.262   0.280 146.633

                      1                      2                      3
                      A                      A                      A
 Frequencies --     90.2214               170.2598               210.9368
 Red. masses --      2.5180                 2.3368                 1.9263
 Frc consts  --      0.0121                 0.0399                 0.0505
 IR Inten    --      0.0084                 0.0113                 0.0459

                      4                      5                      6
                      A                      A                      A
 Frequencies --    237.6562               252.1279               267.2681
 Red. masses --      1.4325                 1.1645                 1.6406
 Frc consts  --      0.0477                 0.0436                 0.0690
 IR Inten    --      0.0301                 0.0669                 0.0974

                      7                      8                      9
                      A                      A                      A
 Frequencies --    311.5436               316.5326               373.2405
 Red. masses --      2.0676                 2.7321                 2.3343
 Frc consts  --      0.1182                 0.1613                 0.1916
 IR Inten    --      0.0434                 0.1519                 0.0490

                     10                     11                     12
                      A                      A                      A
 Frequencies --    396.3694               447.1313               538.2454
 Red. masses --      2.0543                 1.7612                 3.1239
 Frc consts  --      0.1902                 0.2075                 0.5332
 IR Inten    --      0.1308                 0.0070                 0.0628

                     13                     14                     15
                      A                      A                      A
 Frequencies --    589.4656               634.9185               650.3772
 Red. masses --      2.8814                 3.5932                 2.9842
 Frc consts  --      0.5899                 0.8534                 0.7437
 IR Inten    --      1.3839                 0.2530                 0.8386

                     16                     17                     18
                      A                      A                      A
 Frequencies --    775.7159               783.0339               819.8034
 Red. masses --      2.9482                 2.4492                 2.4211
 Frc consts  --      1.0452                 0.8848                 0.9587
 IR Inten    --      0.2117                 0.0847                 0.6136

                     19                     20                     21
                      A                      A                      A
 Frequencies --    823.1743               849.3509               877.1730
 Red. masses --      2.2574                 2.7844                 2.1432
 Frc consts  --      0.9012                 1.1834                 0.9716
 IR Inten    --      0.0352                 0.1381                 1.2176

                     22                     23                     24
                      A                      A                      A
 Frequencies --    886.2904               925.9450               934.7783
 Red. masses --      2.1444                 1.8914                 1.7708
 Frc consts  --      0.9925                 0.9555                 0.9116
 IR Inten    --      1.7819                 0.4914                 0.1195

                     25                     26                     27
                      A                      A                      A
 Frequencies --    957.9169               965.7452               973.2417
 Red. masses --      2.0690                 2.0459                 1.7308
 Frc consts  --      1.1186                 1.1242                 0.9659
 IR Inten    --      0.1471                 0.2982                 0.7472

                     28                     29                     30
                      A                      A                      A
 Frequencies --    989.5911              1030.4020              1033.5171
 Red. masses --      1.7651                 1.5775                 1.7185
 Frc consts  --      1.0184                 0.9868                 1.0815
 IR Inten    --      0.5058                 1.1658                 0.2420

                     31                     32                     33
                      A                      A                      A
 Frequencies --   1051.9976              1063.3192              1072.1160
 Red. masses --      1.6072                 1.6941                 1.5021
 Frc consts  --      1.0480                 1.1286                 1.0173
 IR Inten    --      0.2283                 0.2497                 0.5044

                     34                     35                     36
                      A                      A                      A
 Frequencies --   1101.6545              1150.5588              1163.9778
 Red. masses --      1.3463                 1.9247                 1.7866
 Frc consts  --      0.9627                 1.5012                 1.4261
 IR Inten    --      0.6584                 0.7844                 1.1398

                     37                     38                     39
                      A                      A                      A
 Frequencies --   1175.1202              1191.2319              1213.9186
 Red. masses --      1.6243                 1.7087                 1.5571
 Frc consts  --      1.3215                 1.4286                 1.3519
 IR Inten    --      0.6074                 0.0524                 2.1188

                     40                     41                     42
                      A                      A                      A
 Frequencies --   1228.0461              1236.2316              1262.0183
 Red. masses --      1.6296                 1.6756                 1.5405
 Frc consts  --      1.4480                 1.5088                 1.4456
 IR Inten    --      1.6043                 0.6061                 2.2175

                     43                     44                     45
                      A                      A                      A
 Frequencies --   1272.6663              1281.9335              1292.2985
 Red. masses --      1.8790                 1.5133                 1.5698
 Frc consts  --      1.7931                 1.4653                 1.5446
 IR Inten    --      0.9819                 0.1170                 0.8926

                     46                     47                     48
                      A                      A                      A
 Frequencies --   1319.9385              1328.1346              1341.3549
 Red. masses --      1.2946                 1.5129                 1.3961
 Frc consts  --      1.3289                 1.5724                 1.4800
 IR Inten    --      1.3255                 3.3482                 0.7628

                     49                     50                     51
                      A                      A                      A
 Frequencies --   1344.1532              1359.2331              1367.7311
 Red. masses --      1.4927                 1.3871                 1.6004
 Frc consts  --      1.5890                 1.5099                 1.7639
 IR Inten    --      0.7810                 0.6382                 0.2241

                     52                     53                     54
                      A                      A                      A
 Frequencies --   1376.6660              1401.1674              1434.5799
 Red. masses --      1.5645                 1.4760                 1.2548
 Frc consts  --      1.7470                 1.7073                 1.5215
 IR Inten    --      3.0085                 1.6522                 1.4726

                     55                     56                     57
                      A                      A                      A
 Frequencies --   1440.6403              1514.1370              1517.1434
 Red. masses --      1.2423                 1.0933                 1.0829
 Frc consts  --      1.5191                 1.4768                 1.4685
 IR Inten    --      4.7054                 0.5913                 0.3892

                     58                     59                     60
                      A                      A                      A
 Frequencies --   1522.4893              1523.4748              1524.6661
 Red. masses --      1.0531                 1.0676                 1.0646
 Frc consts  --      1.4383                 1.4600                 1.4581
 IR Inten    --      1.8933                 3.8587                 5.8130

                     61                     62                     63
                      A                      A                      A
 Frequencies --   1531.9520              1534.6078              1546.4295
 Red. masses --      1.0683                 1.0514                 1.0847
 Frc consts  --      1.4772                 1.4589                 1.5283
 IR Inten    --      0.2624                 3.2033                 8.1286

                     64                     65                     66
                      A                      A                      A
 Frequencies --   3033.8317              3035.8364              3039.6936
 Red. masses --      1.0367                 1.0796                 1.0672
 Frc consts  --      5.6222                 5.8624                 5.8096
 IR Inten    --     19.6507                15.6618                28.5654

                     67                     68                     69
                      A                      A                      A
 Frequencies --   3041.7330              3050.1969              3053.9059
 Red. masses --      1.0368                 1.0593                 1.0642
 Frc consts  --      5.6516                 5.8064                 5.8475
 IR Inten    --     31.3556                29.1768                15.0680

                     70                     71                     72
                      A                      A                      A
 Frequencies --   3058.7016              3064.9052              3075.5567
 Red. masses --      1.0663                 1.0823                 1.0905
 Frc consts  --      5.8779                 5.9898                 6.0773
 IR Inten    --     77.3173                23.4443                20.7157

                     73                     74                     75
                      A                      A                      A
 Frequencies --   3086.1080              3090.3673              3096.0255
 Red. masses --      1.0986                 1.1000                 1.1017
 Frc consts  --      6.1649                 6.1898                 6.2221
 IR Inten    --     29.8152                68.3753                27.2387

                     76                     77                     78
                      A                      A                      A
 Frequencies --   3098.6845              3101.1259              3104.1472
 Red. masses --      1.1055                 1.0930                 1.1021
 Frc consts  --      6.2540                 6.1934                 6.2571
 IR Inten    --     17.9608                 5.9115                53.8251

                     79                     80                     81
                      A                      A                      A
 Frequencies --   3108.8144              3109.7163              3113.6717
 Red. masses --      1.1020                 1.1000                 1.1007
 Frc consts  --      6.2753                 6.2671                 6.2871
 IR Inten    --     23.7776               145.2945                21.4775

 - Thermochemistry -
 -------------------
 Temperature   298.150 Kelvin.  Pressure   1.00000 Atm.
 Atom     1 has atomic number  6 and mass  12.00000

 Molecular mass:   150.14085 amu.
 Principal axes and moments of inertia in atomic units:
                           1         2         3
     Eigenvalues --  1228.829381382.756292118.49254
           X            0.99967  -0.02395   0.00921
           Y            0.02398   0.99971  -0.00287
           Z           -0.00914   0.00309   0.99995
 This molecule is an asymmetric top.
 Rotational symmetry number  1.
 Warning -- assumption of classical behavior for rotation
           may cause significant error
 Rotational temperatures (Kelvin)      0.07048     0.06264     0.04088
 Rotational constants (GHZ):           1.46867     1.30518     0.85190
 Zero-point vibrational energy     706757.2 (Joules/Mol)
                                  168.91903 (Kcal/Mol)
 Warning -- explicit consideration of  13 degrees of freedom as
           vibrations may cause significant error
 Vibrational temperatures:    129.81   244.97   303.49   341.93   362.76
          (Kelvin)            384.54   448.24   455.42   537.01   570.29
                              643.32   774.42   848.11   913.51   935.75
                             1116.08  1126.61  1179.51  1184.36  1222.03
                             1262.06  1275.17  1332.23  1344.94  1378.23
                             1389.49  1400.28  1423.80  1482.52  1487.00
                             1513.59  1529.88  1542.54  1585.04  1655.40
                             1674.70  1690.74  1713.92  1746.56  1766.88
                             1778.66  1815.76  1831.08  1844.42  1859.33
                             1899.10  1910.89  1929.91  1933.94  1955.63
                             1967.86  1980.72  2015.97  2064.04  2072.76
                             2178.51  2182.83  2190.52  2191.94  2193.65
                             2204.14  2207.96  2224.97  4365.01  4367.89
                             4373.44  4376.38  4388.55  4393.89  4400.79
                             4409.71  4425.04  4440.22  4446.35  4454.49
                             4458.32  4461.83  4466.18  4472.89  4474.19
                             4479.88

 Zero-point correction=                           0.269190 (Hartree/Particle)
 Thermal correction to Energy=                    0.278961
 Thermal correction to Enthalpy=                  0.279906
 Thermal correction to Gibbs Free Energy=         0.235091
 Sum of electronic and zero-point Energies=           -429.778713
 Sum of electronic and thermal Energies=              -429.768941
 Sum of electronic and thermal Enthalpies=            -429.767997
 Sum of electronic and thermal Free Energies=         -429.812812

                     E (Thermal)             CV                S
                      KCal/Mol        Cal/Mol-Kelvin    Cal/Mol-Kelvin
 Total                  175.051             41.189             94.321
 Electronic               0.000              0.000              0.000
 Translational            0.889              2.981             40.929
 Rotational               0.889              2.981             29.666
 Vibrational            173.274             35.227             23.726
 Vibration     1          0.602              1.956              3.655
 Vibration     2          0.625              1.879              2.433
 Vibration     3          0.643              1.824              2.036
 Vibration     4          0.656              1.783              1.820
 Vibration     5          0.664              1.759              1.716
 Vibration     6          0.672              1.733              1.614
 Vibration     7          0.700              1.652              1.354
 Vibration     8          0.703              1.642              1.328
 Vibration     9          0.745              1.527              1.066
 Vibration    10          0.763              1.478              0.976
 Vibration    11          0.806              1.367              0.804
 Vibration    12          0.893              1.165              0.569
 Vibration    13          0.947              1.054              0.468

                           ! Non-Optimized Parameters !
 Normal termination of Gaussian 16 at Tue Dec  8 20:35:05 2020.

 ----------------------------------------------------------------------
 # B3LYP/6-311++G(d,p) empiricaldispersion=gd3bj scf=xqc pop=npa geom=c
 heck
 ----------------------------------------------------------------------

 ---------------------------------------
 CID_123506837_JID_1599_Energie_neutraal
 ---------------------------------------
 Structure from the checkpoint file:  "JID_1599.chk"
 Charge =  0 Multiplicity = 1

 SCF Done:  E(RB3LYP) =  -430.158382955     A.U. after   13 cycles
 Normal termination of Gaussian 16 at Tue Dec  8 20:39:03 2020.

 ----------------------------------------------------------------------
 # B3LYP/6-311++G(d,p) empiricaldispersion=gd3bj scf=xqc pop=npa geom=c
 heck
 ----------------------------------------------------------------------

 -------------------------------------
 CID_123506837_JID_1599_Energie_kation
 -------------------------------------
 Structure from the checkpoint file:  "JID_1599.chk"
 Charge =  1 Multiplicity = 2

 SCF Done:  E(UB3LYP) =  -429.811435933     A.U. after   31 cycles
 Normal termination of Gaussian 16 at Tue Dec  8 20:52:24 2020.
 Gaussian 16:  ES64L-G16RevA.03 25-Dec-2016

 ----------------------------------------------------------------------
 # B3LYP/6-311++G(d,p) empiricaldispersion=gd3bj scf=xqc pop=npa geom=c
 heck
 ----------------------------------------------------------------------

 ------------------------------------
 CID_123506837_JID_1599_Energie_anion
 ------------------------------------
 Structure from the checkpoint file:  "JID_1599.chk"
 Charge = -1 Multiplicity = 2

                         Standard orientation:
 ---------------------------------------------------------------------
 Center     Atomic      Atomic             Coordinates (Angstroms)
 Number     Number       Type             X           Y           Z
 ---------------------------------------------------------------------
      1          6           0       -2.402389   -1.441843   -0.155323
      2          6           0       -1.020433   -1.222104    0.473893
      3          6           0       -0.913661    0.163181    1.158687
      4          6           0       -0.400884    1.158671    0.083658
      5          6           0        0.974445    1.811817    0.419560
      6          6           0        1.697949    0.687566   -0.368090
      7          6           0        0.323754    0.251865   -0.967605
      8          6           0        0.086968   -1.235802   -0.616274
      9          6           0        1.472161   -1.741833   -0.150988
     10          6           0        2.190880   -0.522197    0.458244
     11          6           0       -1.478333    2.111253   -0.417641
     12          1           0       -3.198178   -1.364522    0.594631
     13          1           0       -2.469858   -2.432256   -0.620660
     14          1           0       -2.605712   -0.698298   -0.935037
     15          1           0       -0.849035   -2.022463    1.205649
     16          1           0       -1.875763    0.479962    1.579223
     17          1           0       -0.212098    0.112885    1.997959
     18          1           0        1.084914    2.789515   -0.061892
     19          1           0        1.228999    1.918015    1.480750
     20          1           0        2.455675    1.024368   -1.082000
     21          1           0        0.154058    0.521521   -2.013488
     22          1           0       -0.253855   -1.825452   -1.474665
     23          1           0        1.404733   -2.589244    0.541438
     24          1           0        2.032398   -2.088970   -1.028822
     25          1           0        1.913498   -0.405213    1.512221
     26          1           0        3.280689   -0.628323    0.433426
     27          1           0       -1.806362    2.787484    0.382278
     28          1           0       -1.105291    2.728235   -1.244074
     29          1           0       -2.361543    1.569320   -0.775663
 ---------------------------------------------------------------------

 SCF Done:  E(UB3LYP) =  -430.139800065     A.U. after   28 cycles

 The electronic state is 2-A.
 Alpha  occ. eigenvalues --  -10.06805 -10.06236 -10.05748 -10.05573 -10.05350
 Alpha  occ. eigenvalues --  -10.05318 -10.05317 -10.05297 -10.05117 -10.05109
 Alpha  occ. eigenvalues --  -10.05053  -0.77070  -0.68411  -0.67666  -0.60738
 Alpha  occ. eigenvalues --   -0.59015  -0.57697  -0.53291  -0.49697  -0.45662
 Alpha  occ. eigenvalues --   -0.43802  -0.39955  -0.38610  -0.35929  -0.34534
 Alpha  occ. eigenvalues --   -0.32135  -0.32063  -0.31812  -0.30337  -0.29234
 Alpha  occ. eigenvalues --   -0.28521  -0.27267  -0.25363  -0.24610  -0.22193
 Alpha  occ. eigenvalues --   -0.21442  -0.20921  -0.20325  -0.20054  -0.18891
 Alpha  occ. eigenvalues --   -0.17637  -0.17295   0.04831
 Alpha virt. eigenvalues --    0.07158   0.07423   0.07854   0.09379   0.09479
 Alpha virt. eigenvalues --    0.09796   0.09908   0.10213   0.12089   0.12369
 Alpha virt. eigenvalues --    0.12536   0.13041   0.13081   0.13510   0.13721

  Beta  occ. eigenvalues --  -10.06807 -10.06227 -10.05735 -10.05565 -10.05333
  Beta  occ. eigenvalues --  -10.05303 -10.05300 -10.05281 -10.05101 -10.05083
  Beta  occ. eigenvalues --  -10.05025  -0.77049  -0.68386  -0.67639  -0.60699
  Beta  occ. eigenvalues --   -0.58975  -0.57650  -0.53249  -0.49642  -0.45612
  Beta  occ. eigenvalues --   -0.43763  -0.39902  -0.38555  -0.35892  -0.34503
  Beta  occ. eigenvalues --   -0.32097  -0.32035  -0.31776  -0.30311  -0.29198
  Beta  occ. eigenvalues --   -0.28492  -0.27236  -0.25335  -0.24575  -0.22161
  Beta  occ. eigenvalues --   -0.21410  -0.20892  -0.20293  -0.20021  -0.18863
  Beta  occ. eigenvalues --   -0.17612  -0.17266
  Beta virt. eigenvalues --    0.07039   0.08065   0.08144   0.08530   0.09823
  Beta virt. eigenvalues --    0.10146   0.10365   0.10448   0.10760   0.12534
  Beta virt. eigenvalues --    0.12894   0.13039   0.13432   0.13530   0.13818

 Mulliken charges and spin densities:
               1          2
     1  C    1.399727  -2.149159
     2  C   -0.525711   0.805088
     3  C   -0.561303  -0.018590
     4  C   -1.899807   2.433081
     5  C    1.102467  -1.906009
     6  C   -2.102717   2.374064
     7  C    1.352921  -1.648156
     8  C    0.144001  -0.042825
     9  C   -0.193150  -0.383499
    10  C    0.985868  -1.466354
    11  C    2.603850  -3.129312
    12  H   -0.135218   0.259383
    13  H   -0.274460   0.405724
    14  H   -0.085316   0.235955
    15  H   -0.298039   0.512415
    16  H   -0.292780   0.467556
    17  H    0.082786   0.044910
    18  H   -0.177031   0.297062
    19  H   -0.057195   0.200363
    20  H   -0.617895   0.838377
    21  H   -0.257389   0.516174
    22  H   -0.249667   0.461990
    23  H   -0.018682   0.139966
    24  H   -0.315795   0.462743
    25  H   -0.075139   0.195784
    26  H   -0.299032   0.462160
    27  H   -0.062885   0.197657
    28  H   -0.277580   0.413588
    29  H    0.105170   0.019865
 Sum of Mulliken charges =  -1.00000   1.00000

 Dipole moment (field-independent basis, Debye):
    X=             -0.6635    Y=              0.5420    Z=              2.3590  Tot=              2.5098
 Quadrupole moment (field-independent basis, Debye-Ang):
   XX=           -124.4790   YY=           -117.5582   ZZ=           -109.4692
   XY=             -1.3834   XZ=              3.5177   YZ=              1.6549

 Summary of Natural Population Analysis:

                                       Natural Population
                Natural  -----------------------------------------------
    Atom  No    Charge         Core      Valence    Rydberg      Total
 -----------------------------------------------------------------------
      C    1   -0.28111      0.99965     2.27535    0.00612     3.28111
      C    2   -0.10799      0.99959     2.09751    0.01089     3.10799
      C    3   -0.18810      0.99958     2.17905    0.00947     3.18810
      C    4   -0.04062      0.99956     2.02717    0.01389     3.04062
      C    5   -0.17847      0.99959     2.17018    0.00870     3.17847
      C    6   -0.10889      0.99960     2.09704    0.01226     3.10889
      C    7   -0.09458      0.99956     2.08318    0.01184     3.09458
      C    8   -0.11179      0.99958     2.09994    0.01228     3.11179
      C    9   -0.18489      0.99962     2.17691    0.00836     3.18489
      C   10   -0.19271      0.99962     2.18464    0.00845     3.19271
      C   11   -0.28086      0.99961     2.27434    0.00691     3.28086
      H   12    0.09691      0.00000     0.40204    0.00104     0.40309
      H   13    0.09858      0.00000     0.40028    0.00114     0.40142
      H   14    0.09640      0.00000     0.40229    0.00131     0.40360
      H   15    0.09436      0.00000     0.40414    0.00150     0.40564
      H   16    0.09987      0.00000     0.39898    0.00114     0.40013
      H   17    0.09960      0.00000     0.39888    0.00152     0.40040
      H   18    0.09862      0.00000     0.40010    0.00127     0.40138
      H   19    0.09291      0.00000     0.40604    0.00105     0.40709
      H   20    0.09895      0.00000     0.39934    0.00171     0.40105
      H   21    0.10675      0.00000     0.39143    0.00182     0.39325
      H   22    0.10225      0.00000     0.39607    0.00168     0.39775
      H   23    0.09727      0.00000     0.40148    0.00125     0.40273
      H   24    0.09706      0.00000     0.40150    0.00144     0.40294
      H   25    0.09291      0.00000     0.40554    0.00155     0.40709
      H   26    0.10145      0.00000     0.39723    0.00132     0.39855
      H   27    0.09749      0.00000     0.40152    0.00099     0.40251
      H   28    0.09937      0.00000     0.39940    0.00123     0.40063
      H   29    0.09925      0.00000     0.39960    0.00115     0.40075
 =======================================================================
   * Total *    0.00000     10.99555    30.87118    0.13327    42.00000

 Normal termination of Gaussian 16 at Tue Dec  8 21:04:12 2020.
