 Gaussian 16, Revision A.03,

 ----------------------------------------------------------------------
 # opt=(cartesian,calcfc,maxcycle=500) freq B3LYP/6-31G(d) empiricaldis
 persion=gd3bj scf=xqc
 ----------------------------------------------------------------------

 --------------------------------
 CID_104889971_JID_10722_neutraal
 --------------------------------
 Symbolic Z-matrix:
 Charge =  0 Multiplicity = 1

 SCF Done:  E(RB3LYP) =  -1291.30041314     A.U. after   15 cycles
 SCF Done:  E(RB3LYP) =  -1291.30852084     A.U. after   12 cycles
 SCF Done:  E(RB3LYP) =  -1291.31102862     A.U. after   12 cycles
 SCF Done:  E(RB3LYP) =  -1291.31018252     A.U. after   13 cycles
 SCF Done:  E(RB3LYP) =  -1291.31023433     A.U. after   12 cycles
 SCF Done:  E(RB3LYP) =  -1291.31106091     A.U. after    9 cycles
 SCF Done:  E(RB3LYP) =  -1291.31134687     A.U. after   12 cycles
 SCF Done:  E(RB3LYP) =  -1291.31163238     A.U. after   12 cycles
 SCF Done:  E(RB3LYP) =  -1291.31141076     A.U. after   12 cycles
 SCF Done:  E(RB3LYP) =  -1291.31171009     A.U. after   11 cycles
 SCF Done:  E(RB3LYP) =  -1291.31212642     A.U. after    8 cycles
 SCF Done:  E(RB3LYP) =  -1291.31212574     A.U. after    9 cycles
 SCF Done:  E(RB3LYP) =  -1291.31212655     A.U. after    9 cycles
 SCF Done:  E(RB3LYP) =  -1291.31212657     A.U. after    8 cycles
 SCF Done:  E(RB3LYP) =  -1291.31212656     A.U. after    8 cycles
 SCF Done:  E(RB3LYP) =  -1291.31212660     A.U. after    7 cycles
 Optimization completed.
    -- Stationary point found.
 Normal termination of Gaussian 16 at Sat Feb 27 19:39:54 2021.

 --------------------------------------------------------------------
 #N Geom=AllCheck Guess=TCheck SCRF=Check GenChk RB3LYP/6-31G(d) Freq
 --------------------------------------------------------------------

 Structure from the checkpoint file:  "JID_10722.chk"
 --------------------------------
 CID_104889971_JID_10722_neutraal
 --------------------------------
 Charge =  0 Multiplicity = 1

 SCF Done:  E(RB3LYP) =  -1291.31212660     A.U. after    1 cycles

  Exact polarizability: 220.959  22.105 134.244   5.386 -19.230 139.334
 Approx polarizability: 350.317  41.460 200.971  11.156 -52.587 267.471

                      1                      2                      3
                      A                      A                      A
 Frequencies --     30.8908                36.9404                51.2097
 Red. masses --      5.2017                 8.5859                 4.7968
 Frc consts  --      0.0029                 0.0069                 0.0074
 IR Inten    --      0.2488                 2.0049                 0.8339

                      4                      5                      6
                      A                      A                      A
 Frequencies --     64.4707                77.7986                88.3858
 Red. masses --      2.6511                 4.7299                 5.2571
 Frc consts  --      0.0065                 0.0169                 0.0242
 IR Inten    --      0.5028                 0.4580                 2.0154

                      7                      8                      9
                      A                      A                      A
 Frequencies --    116.4130               124.2081               142.3959
 Red. masses --      7.1887                10.5896                 4.3243
 Frc consts  --      0.0574                 0.0963                 0.0517
 IR Inten    --      3.8781                 9.2088                 0.2481

                     10                     11                     12
                      A                      A                      A
 Frequencies --    176.7939               201.5365               208.7875
 Red. masses --      3.6887                 5.1018                 4.3673
 Frc consts  --      0.0679                 0.1221                 0.1122
 IR Inten    --      2.2128                 0.1140                 1.1583

                     13                     14                     15
                      A                      A                      A
 Frequencies --    235.6008               256.0344               277.8649
 Red. masses --      2.3332                 3.0037                 6.8631
 Frc consts  --      0.0763                 0.1160                 0.3122
 IR Inten    --      1.1354                 0.5760                 3.8428

                     16                     17                     18
                      A                      A                      A
 Frequencies --    290.0100               338.3434               356.7336
 Red. masses --      2.0062                 4.5074                 3.7485
 Frc consts  --      0.0994                 0.3040                 0.2811
 IR Inten    --      3.0067                 3.0229                 2.9339

                     19                     20                     21
                      A                      A                      A
 Frequencies --    402.3742               411.3579               413.5846
 Red. masses --      5.7768                 3.2257                 3.5576
 Frc consts  --      0.5511                 0.3216                 0.3585
 IR Inten    --      2.3046                 0.3336                 1.5656

                     22                     23                     24
                      A                      A                      A
 Frequencies --    444.5136               492.0589               509.8964
 Red. masses --      4.8597                 7.3570                 6.0525
 Frc consts  --      0.5658                 1.0495                 0.9271
 IR Inten    --      8.9689                33.6996                 5.0715

                     25                     26                     27
                      A                      A                      A
 Frequencies --    536.4757               563.3922               573.0445
 Red. masses --      5.7639                 7.0540                 3.5404
 Frc consts  --      0.9774                 1.3192                 0.6850
 IR Inten    --     21.0318                 1.3170                22.1268

                     28                     29                     30
                      A                      A                      A
 Frequencies --    603.3104               631.0521               655.3475
 Red. masses --      4.0922                 4.1575                 7.3874
 Frc consts  --      0.8776                 0.9755                 1.8693
 IR Inten    --     22.2653                22.6433                 0.2702

                     31                     32                     33
                      A                      A                      A
 Frequencies --    665.3108               680.0115               709.8424
 Red. masses --      4.3146                 3.6820                 4.0233
 Frc consts  --      1.1252                 1.0031                 1.1944
 IR Inten    --    142.3958               143.9048                 4.5888

                     34                     35                     36
                      A                      A                      A
 Frequencies --    725.8602               746.3329               797.2970
 Red. masses --      4.1579                 4.8301                 1.2169
 Frc consts  --      1.2907                 1.5852                 0.4558
 IR Inten    --      1.1209                43.7013                 1.1494

                     37                     38                     39
                      A                      A                      A
 Frequencies --    809.3678               844.4538               846.0106
 Red. masses --      6.5159                 1.3848                 1.9277
 Frc consts  --      2.5149                 0.5818                 0.8129
 IR Inten    --     38.4152                41.1842                72.6029

                     40                     41                     42
                      A                      A                      A
 Frequencies --    854.9343               858.6061               965.0087
 Red. masses --      1.4193                 1.5237                 3.3157
 Frc consts  --      0.6112                 0.6618                 1.8193
 IR Inten    --      3.9233                 8.0036                11.6192

                     43                     44                     45
                      A                      A                      A
 Frequencies --    981.9157               984.1413               991.6907
 Red. masses --      1.3154                 1.3162                 4.0721
 Frc consts  --      0.7472                 0.7511                 2.3595
 IR Inten    --      0.5150                 0.4983                 6.4227

                     46                     47                     48
                      A                      A                      A
 Frequencies --    999.5772              1022.0747              1041.2705
 Red. masses --      3.3952                 2.3071                 3.4432
 Frc consts  --      1.9987                 1.4200                 2.1996
 IR Inten    --     10.4329                 2.8044                 7.1105

                     49                     50                     51
                      A                      A                      A
 Frequencies --   1085.3022              1097.0494              1103.9753
 Red. masses --      1.9524                 4.0384                 1.6335
 Frc consts  --      1.3550                 2.8636                 1.1730
 IR Inten    --      7.3275                68.0330                 0.1082

                     52                     53                     54
                      A                      A                      A
 Frequencies --   1109.8600              1144.1063              1150.8433
 Red. masses --      4.6380                 1.3569                 7.6214
 Frc consts  --      3.3660                 1.0465                 5.9473
 IR Inten    --     37.6896                 4.9071               213.2959

                     55                     56                     57
                      A                      A                      A
 Frequencies --   1162.1767              1214.3835              1218.4768
 Red. masses --      2.4549                 1.2326                 2.2687
 Frc consts  --      1.9536                 1.0710                 1.9845
 IR Inten    --     45.8287                 0.7374                 5.2528

                     58                     59                     60
                      A                      A                      A
 Frequencies --   1231.1785              1242.0484              1266.7540
 Red. masses --      3.3704                 1.9634                 1.6463
 Frc consts  --      3.0100                 1.7846                 1.5565
 IR Inten    --      1.1865                 4.8262                 2.3361

                     61                     62                     63
                      A                      A                      A
 Frequencies --   1295.2997              1334.7573              1345.0130
 Red. masses --      1.4151                 1.8485                 2.8826
 Frc consts  --      1.3989                 1.9403                 3.0724
 IR Inten    --     12.0380                49.5957                43.5414

                     64                     65                     66
                      A                      A                      A
 Frequencies --   1352.3729              1354.5567              1378.9724
 Red. masses --      1.4030                 8.3039                 1.5161
 Frc consts  --      1.5118                 8.9769                 1.6986
 IR Inten    --      6.2361                35.5291                 1.4790

                     67                     68                     69
                      A                      A                      A
 Frequencies --   1408.2809              1437.4390              1443.8421
 Red. masses --      2.1093                 1.2267                 2.7957
 Frc consts  --      2.4647                 1.4934                 3.4338
 IR Inten    --     27.1532                 1.7295                17.6210

                     70                     71                     72
                      A                      A                      A
 Frequencies --   1476.1764              1503.6989              1512.4597
 Red. masses --      1.4065                 1.0796                 1.1024
 Frc consts  --      1.8058                 1.4383                 1.4857
 IR Inten    --     32.0232                 3.8872                14.3127

                     73                     74                     75
                      A                      A                      A
 Frequencies --   1528.5818              1536.2926              1538.3208
 Red. masses --      1.0408                 1.0840                 2.1503
 Frc consts  --      1.4329                 1.5073                 2.9981
 IR Inten    --      9.1831                 6.9825                 2.7627

                     76                     77                     78
                      A                      A                      A
 Frequencies --   1614.9987              1621.1552              1657.3719
 Red. masses --      8.8307                 6.9404                 5.5570
 Frc consts  --     13.5703                10.7470                 8.9935
 IR Inten    --     16.9261                 1.8792                 1.5015

                     79                     80                     81
                      A                      A                      A
 Frequencies --   1658.1844              2351.6448              3050.8678
 Red. masses --      7.0316                12.6794                 1.0642
 Frc consts  --     11.3912                41.3137                 5.8358
 IR Inten    --     10.8289                21.0382                21.2387

                     82                     83                     84
                      A                      A                      A
 Frequencies --   3060.8426              3062.9523              3098.5044
 Red. masses --      1.0349                 1.0708                 1.0990
 Frc consts  --      5.7127                 5.9186                 6.2166
 IR Inten    --     19.4912                16.1386                 4.9695

                     85                     86                     87
                      A                      A                      A
 Frequencies --   3132.0898              3140.0172              3141.4427
 Red. masses --      1.1027                 1.0936                 1.1037
 Frc consts  --      6.3736                 6.3527                 6.4172
 IR Inten    --     34.7810                 0.1916                20.6100

                     88                     89                     90
                      A                      A                      A
 Frequencies --   3222.2577              3228.1873              3237.1786
 Red. masses --      1.0894                 1.0886                 1.0947
 Frc consts  --      6.6645                 6.6838                 6.7587
 IR Inten    --      1.0398                 1.0723                 0.6717

                     91                     92                     93
                      A                      A                      A
 Frequencies --   3240.8928              3280.5374              3518.5901
 Red. masses --      1.0953                 1.0983                 1.0747
 Frc consts  --      6.7784                 6.9642                 7.8396
 IR Inten    --      1.4656                 3.2827                32.4157

 - Thermochemistry -
 -------------------
 Temperature   298.150 Kelvin.  Pressure   1.00000 Atm.
 Atom     1 has atomic number 16 and mass  31.97207

 Molecular mass:   291.06776 amu.
 Principal axes and moments of inertia in atomic units:
                           1         2         3
     Eigenvalues --  3726.487016506.583558494.38875
           X            0.99968  -0.02196   0.01268
           Y            0.02216   0.99962  -0.01613
           Z           -0.01232   0.01641   0.99979
 This molecule is an asymmetric top.
 Rotational symmetry number  1.
 Warning -- assumption of classical behavior for rotation
           may cause significant error
 Rotational temperatures (Kelvin)      0.02324     0.01331     0.01020
 Rotational constants (GHZ):           0.48430     0.27737     0.21246
 Zero-point vibrational energy     661681.2 (Joules/Mol)
                                  158.14561 (Kcal/Mol)
 Warning -- explicit consideration of  28 degrees of freedom as
           vibrations may cause significant error
 Vibrational temperatures:     44.44    53.15    73.68    92.76   111.93
          (Kelvin)            127.17   167.49   178.71   204.88   254.37
                              289.97   300.40   338.98   368.38   399.79
                              417.26   486.80   513.26   578.93   591.85
                              595.06   639.56   707.96   733.63   771.87
                              810.60   824.48   868.03   907.94   942.90
                              957.23   978.38  1021.30  1044.35  1073.81
                             1147.13  1164.50  1214.98  1217.22  1230.06
                             1235.34  1388.43  1412.76  1415.96  1426.82
                             1438.17  1470.54  1498.16  1561.51  1578.41
                             1588.37  1596.84  1646.11  1655.81  1672.11
                             1747.23  1753.12  1771.39  1787.03  1822.58
                             1863.65  1920.42  1935.17  1945.76  1948.90
                             1984.03  2026.20  2068.15  2077.37  2123.89
                             2163.49  2176.09  2199.29  2210.38  2213.30
                             2323.62  2332.48  2384.59  2385.76  3383.49
                             4389.52  4403.87  4406.91  4458.06  4506.38
                             4517.78  4519.84  4636.11  4644.64  4657.58
                             4662.92  4719.96  5062.47

 Zero-point correction=                           0.252021 (Hartree/Particle)
 Thermal correction to Energy=                    0.270298
 Thermal correction to Enthalpy=                  0.271242
 Thermal correction to Gibbs Free Energy=         0.204375
 Sum of electronic and zero-point Energies=          -1291.060106
 Sum of electronic and thermal Energies=             -1291.041828
 Sum of electronic and thermal Enthalpies=           -1291.040884
 Sum of electronic and thermal Free Energies=        -1291.107751

                     E (Thermal)             CV                S
                      KCal/Mol        Cal/Mol-Kelvin    Cal/Mol-Kelvin
 Total                  169.615             68.474            140.734
 Electronic               0.000              0.000              0.000
 Translational            0.889              2.981             42.903
 Rotational               0.889              2.981             33.687
 Vibrational            167.837             62.512             64.144
 Vibration     1          0.594              1.984              5.771
 Vibration     2          0.594              1.982              5.417
 Vibration     3          0.595              1.977              4.770
 Vibration     4          0.597              1.971              4.315
 Vibration     5          0.599              1.964              3.946
 Vibration     6          0.601              1.957              3.695
 Vibration     7          0.608              1.936              3.159
 Vibration     8          0.610              1.929              3.034
 Vibration     9          0.616              1.911              2.771
 Vibration    10          0.628              1.871              2.362
 Vibration    11          0.638              1.838              2.119
 Vibration    12          0.642              1.827              2.054
 Vibration    13          0.655              1.786              1.836
 Vibration    14          0.666              1.753              1.689
 Vibration    15          0.679              1.714              1.547
 Vibration    16          0.686              1.692              1.474
 Vibration    17          0.719              1.599              1.220
 Vibration    18          0.732              1.561              1.136
 Vibration    19          0.768              1.465              0.954
 Vibration    20          0.775              1.446              0.922
 Vibration    21          0.777              1.441              0.914
 Vibration    22          0.804              1.373              0.813
 Vibration    23          0.848              1.268              0.678
 Vibration    24          0.865              1.228              0.634
 Vibration    25          0.891              1.169              0.573
 Vibration    26          0.919              1.110              0.517
 Vibration    27          0.929              1.090              0.498
 Vibration    28          0.962              1.025              0.444

 Normal termination of Gaussian 16 at Sat Feb 27 20:01:28 2021.

 ----------------------------------------------------------------------
 # B3LYP/6-311++G(d,p) empiricaldispersion=gd3bj scf=xqc pop=npa geom=c
 heck
 ----------------------------------------------------------------------

 ----------------------------------------
 CID_104889971_JID_10722_Energie_neutraal
 ----------------------------------------
 Structure from the checkpoint file:  "JID_10722.chk"
 Charge =  0 Multiplicity = 1

 SCF Done:  E(RB3LYP) =  -1291.58317442     A.U. after   16 cycles
 Normal termination of Gaussian 16 at Sat Feb 27 20:10:40 2021.

 ----------------------------------------------------------------------
 # B3LYP/6-311++G(d,p) empiricaldispersion=gd3bj scf=xqc pop=npa geom=c
 heck
 ----------------------------------------------------------------------

 --------------------------------------
 CID_104889971_JID_10722_Energie_kation
 --------------------------------------
 Structure from the checkpoint file:  "JID_10722.chk"
 Charge =  1 Multiplicity = 2

 SCF Done:  E(UB3LYP) =  -1291.25779513     A.U. after   26 cycles
 Normal termination of Gaussian 16 at Sat Feb 27 20:31:37 2021.
 Gaussian 16:  ES64L-G16RevA.03 25-Dec-2016

 ----------------------------------------------------------------------
 # B3LYP/6-311++G(d,p) empiricaldispersion=gd3bj scf=xqc pop=npa geom=c
 heck
 ----------------------------------------------------------------------

 -------------------------------------
 CID_104889971_JID_10722_Energie_anion
 -------------------------------------
 Structure from the checkpoint file:  "JID_10722.chk"
 Charge = -1 Multiplicity = 2

                         Standard orientation:
 ---------------------------------------------------------------------
 Center     Atomic      Atomic             Coordinates (Angstroms)
 Number     Number       Type             X           Y           Z
 ---------------------------------------------------------------------
      1         16           0       -2.816414    0.302156    0.272196
      2          8           0        0.825939   -2.194925    0.323173
      3          8           0       -3.100870    0.019919    1.678731
      4          8           0       -3.720789    1.051692   -0.595946
      5          7           0       -2.615285   -1.193943   -0.480004
      6          7           0        0.055051   -1.337222   -1.583210
      7          7           0        3.845692    2.823910   -0.210380
      8          6           0       -1.631540   -2.115891    0.090424
      9          6           0       -1.209675    1.102924    0.217868
     10          6           0       -0.250166   -1.859852   -0.436614
     11          6           0        1.928479   -1.839144   -0.438725
     12          6           0        3.278258   -2.069255    0.142622
     13          6           0       -0.835491    1.803395   -0.928649
     14          6           0       -0.325609    0.908205    1.279191
     15          6           0        1.448336   -1.314984   -1.596500
     16          6           0        0.461138    2.292315   -1.030542
     17          6           0        0.972453    1.394007    1.177574
     18          6           0        3.622276   -1.118876    1.302652
     19          6           0        1.372514    2.070858    0.014737
     20          6           0        2.731615    2.504739   -0.111564
     21          1           0       -1.950871   -3.136303   -0.154067
     22          1           0       -1.658598   -2.030387    1.179203
     23          1           0       -2.485902   -1.060809   -1.482682
     24          1           0        4.011472   -1.952676   -0.662872
     25          1           0        3.347932   -3.109670    0.485263
     26          1           0       -1.551730    1.951197   -1.728824
     27          1           0       -0.657547    0.383578    2.167553
     28          1           0        2.002119   -0.920208   -2.435860
     29          1           0        0.780154    2.829158   -1.917106
     30          1           0        1.681082    1.245154    1.983876
     31          1           0        3.668881   -0.082409    0.955013
     32          1           0        4.595958   -1.376850    1.731124
     33          1           0        2.871685   -1.187620    2.096889
 ---------------------------------------------------------------------

 SCF Done:  E(UB3LYP) =  -1291.61932617     A.U. after   25 cycles

 The electronic state is 2-A.
 Alpha  occ. eigenvalues --  -88.93798 -19.10466 -18.99745 -18.99732 -14.23270
 Alpha  occ. eigenvalues --  -14.21422 -14.16121 -10.16657 -10.13888 -10.13472
 Alpha  occ. eigenvalues --  -10.10371 -10.10254 -10.07598 -10.06340 -10.05410
 Alpha  occ. eigenvalues --  -10.05350 -10.05054 -10.04967 -10.04859 -10.04806
 Alpha  occ. eigenvalues --   -7.99941  -5.96244  -5.96227  -5.95979  -1.03823
 Alpha  occ. eigenvalues --   -1.00081  -0.89388  -0.83678  -0.81538  -0.76728
 Alpha  occ. eigenvalues --   -0.73558  -0.72195  -0.66816  -0.65033  -0.62672
 Alpha  occ. eigenvalues --   -0.61112  -0.55454  -0.55220  -0.52153  -0.49010
 Alpha  occ. eigenvalues --   -0.48605  -0.48067  -0.43927  -0.42314  -0.41941
 Alpha  occ. eigenvalues --   -0.40187  -0.37972  -0.37695  -0.36748  -0.35813
 Alpha  occ. eigenvalues --   -0.34466  -0.33457  -0.32527  -0.32473  -0.31911
 Alpha  occ. eigenvalues --   -0.30854  -0.30506  -0.29541  -0.28136  -0.27767
 Alpha  occ. eigenvalues --   -0.27145  -0.26441  -0.23369  -0.23221  -0.22920
 Alpha  occ. eigenvalues --   -0.22717  -0.21942  -0.20929  -0.20053  -0.19772
 Alpha  occ. eigenvalues --   -0.19230  -0.19049  -0.17605  -0.14929  -0.13962
 Alpha  occ. eigenvalues --   -0.12939   0.02331
 Alpha virt. eigenvalues --    0.06404   0.07880   0.08573   0.08825   0.09238
 Alpha virt. eigenvalues --    0.10217   0.10438   0.10766   0.11463   0.11515
 Alpha virt. eigenvalues --    0.12143   0.13100   0.13501   0.14122   0.14405

  Beta  occ. eigenvalues --  -88.93794 -19.10463 -18.99719 -18.99704 -14.23188
  Beta  occ. eigenvalues --  -14.21411 -14.15784 -10.16640 -10.13880 -10.13475
  Beta  occ. eigenvalues --  -10.10371 -10.10257 -10.07597 -10.06368 -10.05029
  Beta  occ. eigenvalues --  -10.05022 -10.04931 -10.04895 -10.04800 -10.04697
  Beta  occ. eigenvalues --   -7.99936  -5.96225  -5.96214  -5.95984  -1.03814
  Beta  occ. eigenvalues --   -0.99992  -0.89334  -0.83603  -0.81446  -0.76214
  Beta  occ. eigenvalues --   -0.73052  -0.72177  -0.66748  -0.64298  -0.62262
  Beta  occ. eigenvalues --   -0.61047  -0.55430  -0.54774  -0.51984  -0.48873
  Beta  occ. eigenvalues --   -0.48262  -0.48007  -0.43842  -0.42131  -0.41736
  Beta  occ. eigenvalues --   -0.40054  -0.37905  -0.37608  -0.36699  -0.35795
  Beta  occ. eigenvalues --   -0.34273  -0.33410  -0.32426  -0.32255  -0.31880
  Beta  occ. eigenvalues --   -0.30826  -0.30425  -0.29507  -0.28084  -0.27472
  Beta  occ. eigenvalues --   -0.26953  -0.25384  -0.23190  -0.22892  -0.22707
  Beta  occ. eigenvalues --   -0.22217  -0.21041  -0.20822  -0.19941  -0.19640
  Beta  occ. eigenvalues --   -0.19056  -0.18587  -0.17227  -0.14650  -0.12793
  Beta  occ. eigenvalues --   -0.10981
  Beta virt. eigenvalues --    0.06397   0.07800   0.08097   0.08704   0.09173
  Beta virt. eigenvalues --    0.09225   0.10407   0.10443   0.10826   0.11447
  Beta virt. eigenvalues --    0.11484   0.12194   0.13136   0.13484   0.14120

 Mulliken charges and spin densities:
               1          2
     1  S    0.050059   0.038583
     2  O    0.106550   0.001617
     3  O   -0.220189   0.007296
     4  O   -0.151803   0.000952
     5  N   -0.037911   0.024030
     6  N    0.146845   0.007681
     7  N   -0.322043   0.181674
     8  C   -0.738814  -0.002987
     9  C    0.214892   0.183443
    10  C   -0.001765  -0.013149
    11  C    0.317174   0.018080
    12  C   -0.323234   0.010900
    13  C   -0.251940   0.118050
    14  C   -0.468215   0.094278
    15  C   -0.340064  -0.022132
    16  C   -0.467943   0.099049
    17  C   -0.591639   0.102547
    18  C   -0.478676   0.000481
    19  C    1.565758   0.264884
    20  C   -1.289685  -0.116617
    21  H    0.196166   0.003937
    22  H    0.256110   0.006137
    23  H    0.261913  -0.007310
    24  H    0.161601   0.001813
    25  H    0.137217  -0.000207
    26  H    0.204065  -0.002643
    27  H    0.178134  -0.001554
    28  H    0.149325   0.002815
    29  H    0.156519  -0.002175
    30  H    0.136954  -0.002292
    31  H    0.170441  -0.000293
    32  H    0.127469  -0.000504
    33  H    0.146731   0.003616
 Sum of Mulliken charges =  -1.00000   1.00000

 Dipole moment (field-independent basis, Debye):
    X=              1.2447    Y=             -8.7149    Z=             -0.7260  Tot=              8.8332
 Quadrupole moment (field-independent basis, Debye-Ang):
   XX=           -190.2100   YY=           -151.7350   ZZ=           -134.1559
   XY=            -16.9457   XZ=              5.5164   YZ=             -1.3801

 Summary of Natural Population Analysis:

                                       Natural Population
                Natural  -----------------------------------------------
    Atom  No    Charge         Core      Valence    Rydberg      Total
 -----------------------------------------------------------------------
      S    1    1.11662      4.99917     1.78545    0.09876     6.88338
      O    2   -0.24380      0.99985     3.23552    0.00843     4.24380
      O    3   -0.47157      0.99990     3.46630    0.00537     4.47157
      O    4   -0.46695      0.99990     3.46174    0.00530     4.46695
      N    5   -0.42669      0.99975     2.91156    0.01539     3.92669
      N    6   -0.25523      0.99967     2.74356    0.01200     3.75523
      N    7   -0.16012      0.99979     2.64911    0.01122     3.66012
      C    8   -0.12189      0.99958     2.11163    0.01067     3.12189
      C    9   -0.07224      0.99935     2.05307    0.01982     3.07224
      C   10    0.26439      0.99960     1.71760    0.01841     2.73561
      C   11    0.13509      0.99947     1.85228    0.01317     2.86491
      C   12   -0.21045      0.99961     2.20434    0.00651     3.21045
      C   13   -0.08723      0.99951     2.07849    0.00923     3.08723
      C   14   -0.09950      0.99951     2.09085    0.00914     3.09950
      C   15   -0.03746      0.99949     2.02622    0.01175     3.03746
      C   16   -0.06884      0.99954     2.05989    0.00941     3.06884
      C   17   -0.06455      0.99954     2.05561    0.00940     3.06455
      C   18   -0.28354      0.99966     2.27949    0.00439     3.28354
      C   19   -0.02944      0.99942     2.01876    0.01126     3.02944
      C   20    0.14232      0.99965     1.83971    0.01832     2.85768
      H   21    0.10367      0.00000     0.39516    0.00117     0.39633
      H   22    0.11902      0.00000     0.37971    0.00128     0.38098
      H   23    0.19858      0.00000     0.29936    0.00206     0.30142
      H   24    0.10528      0.00000     0.39372    0.00100     0.39472
      H   25    0.09923      0.00000     0.39936    0.00141     0.40077
      H   26    0.10622      0.00000     0.39282    0.00096     0.39378
      H   27    0.10694      0.00000     0.39207    0.00099     0.39306
      H   28    0.10254      0.00000     0.39656    0.00090     0.39746
      H   29    0.09748      0.00000     0.40172    0.00080     0.40252
      H   30    0.09680      0.00000     0.40212    0.00108     0.40320
      H   31    0.11284      0.00000     0.38622    0.00095     0.38716
      H   32    0.09268      0.00000     0.40644    0.00088     0.40732
      H   33    0.09981      0.00000     0.39934    0.00085     0.40019
 =======================================================================
   * Total *   -0.00000     23.99195    51.68577    0.32228    76.00000

 Normal termination of Gaussian 16 at Sat Feb 27 20:51:47 2021.
