 Gaussian 16, Revision A.03,

 -----------------------------------------------------------
 # opt freq B3LYP/6-31G(d) empiricaldispersion=gd3bj scf=xqc
 -----------------------------------------------------------

 --------------------------------
 CID_100113909_JID_10739_neutraal
 --------------------------------
 Symbolic Z-matrix:
 Charge =  0 Multiplicity = 1

 SCF Done:  E(RB3LYP) =  -911.465554863     A.U. after   15 cycles
 SCF Done:  E(RB3LYP) =  -911.470845103     A.U. after   13 cycles
 SCF Done:  E(RB3LYP) =  -911.470539374     A.U. after   14 cycles
 SCF Done:  E(RB3LYP) =  -911.472693604     A.U. after   13 cycles
 SCF Done:  E(RB3LYP) =  -911.473428780     A.U. after   13 cycles
 SCF Done:  E(RB3LYP) =  -911.474055542     A.U. after   14 cycles
 SCF Done:  E(RB3LYP) =  -911.474522731     A.U. after   12 cycles
 SCF Done:  E(RB3LYP) =  -911.474658208     A.U. after   12 cycles
 SCF Done:  E(RB3LYP) =  -911.474689457     A.U. after   12 cycles
 SCF Done:  E(RB3LYP) =  -911.474752227     A.U. after   10 cycles
 SCF Done:  E(RB3LYP) =  -911.474816528     A.U. after    8 cycles
 SCF Done:  E(RB3LYP) =  -911.474816767     A.U. after    9 cycles
 SCF Done:  E(RB3LYP) =  -911.474816934     A.U. after    8 cycles
 SCF Done:  E(RB3LYP) =  -911.474817014     A.U. after    8 cycles
 SCF Done:  E(RB3LYP) =  -911.474817033     A.U. after    6 cycles
 SCF Done:  E(RB3LYP) =  -911.474817058     A.U. after    7 cycles
 Optimization completed.
    -- Stationary point found.
 Normal termination of Gaussian 16 at Mon Dec 14 17:59:42 2020.

 --------------------------------------------------------------------
 #N Geom=AllCheck Guess=TCheck SCRF=Check GenChk RB3LYP/6-31G(d) Freq
 --------------------------------------------------------------------

 Structure from the checkpoint file:  "JID_10739.chk"
 --------------------------------
 CID_100113909_JID_10739_neutraal
 --------------------------------
 Charge =  0 Multiplicity = 1

 SCF Done:  E(RB3LYP) =  -911.474817058     A.U. after    1 cycles

  Exact polarizability: 237.418 -20.194 177.363 -18.786 -11.956 124.019
 Approx polarizability: 343.758 -51.602 283.402 -39.896 -29.109 212.499

                      1                      2                      3
                      A                      A                      A
 Frequencies --     18.6460                22.0049                35.5323
 Red. masses --      4.5594                 1.0570                 4.0180
 Frc consts  --      0.0009                 0.0003                 0.0030
 IR Inten    --      0.5195                 0.5397                 0.4333

                      4                      5                      6
                      A                      A                      A
 Frequencies --     41.0835                53.9032                61.1603
 Red. masses --      5.8251                 4.0916                 7.5590
 Frc consts  --      0.0058                 0.0070                 0.0167
 IR Inten    --      1.1535                 4.3389                 2.1575

                      7                      8                      9
                      A                      A                      A
 Frequencies --     87.6467               109.6742               125.4242
 Red. masses --      5.5366                 5.7418                 5.0890
 Frc consts  --      0.0251                 0.0407                 0.0472
 IR Inten    --      1.8983                 1.6778                 1.6776

                     10                     11                     12
                      A                      A                      A
 Frequencies --    164.9295               187.0423               200.8553
 Red. masses --      4.8768                 1.6631                 1.7963
 Frc consts  --      0.0782                 0.0343                 0.0427
 IR Inten    --      2.0649                 0.6729                 0.8271

                     13                     14                     15
                      A                      A                      A
 Frequencies --    255.0015               306.7632               313.9015
 Red. masses --      5.9426                 7.0850                 5.6713
 Frc consts  --      0.2277                 0.3928                 0.3292
 IR Inten    --      3.3387                 4.6512                 3.0561

                     16                     17                     18
                      A                      A                      A
 Frequencies --    363.9219               368.3137               386.6666
 Red. masses --      5.6133                 3.0435                 4.5769
 Frc consts  --      0.4380                 0.2433                 0.4032
 IR Inten    --      0.3714                10.0740                 7.8861

                     19                     20                     21
                      A                      A                      A
 Frequencies --    411.4024               418.1670               429.9696
 Red. masses --      3.9371                 4.4956                 3.2991
 Frc consts  --      0.3926                 0.4632                 0.3594
 IR Inten    --      0.0550                 0.8151                 0.0360

                     22                     23                     24
                      A                      A                      A
 Frequencies --    476.2953               506.2851               510.2918
 Red. masses --      3.0278                 3.5357                 2.9690
 Frc consts  --      0.4047                 0.5340                 0.4555
 IR Inten    --     13.9560                20.9426                 7.3841

                     25                     26                     27
                      A                      A                      A
 Frequencies --    531.8461               542.2138               562.3391
 Red. masses --      1.9015                 1.9312                 2.0031
 Frc consts  --      0.3169                 0.3345                 0.3732
 IR Inten    --     21.4738                17.1900                80.6637

                     28                     29                     30
                      A                      A                      A
 Frequencies --    610.7313               650.6601               655.7484
 Red. masses --      4.3697                 2.0979                 3.7283
 Frc consts  --      0.9603                 0.5233                 0.9446
 IR Inten    --     20.6511                55.1467                21.6964

                     31                     32                     33
                      A                      A                      A
 Frequencies --    663.0016               690.6183               705.9864
 Red. masses --      8.4872                 4.2938                 5.3283
 Frc consts  --      2.1981                 1.2066                 1.5647
 IR Inten    --      6.1006                23.3438                 0.5821

                     34                     35                     36
                      A                      A                      A
 Frequencies --    731.3815               753.1357               778.1735
 Red. masses --      4.4970                 6.8870                 3.1119
 Frc consts  --      1.4173                 2.3016                 1.1103
 IR Inten    --     10.2690                16.0719                27.3856

                     37                     38                     39
                      A                      A                      A
 Frequencies --    805.3263               833.4146               847.0236
 Red. masses --      4.1780                 1.2748                 2.0052
 Frc consts  --      1.5965                 0.5217                 0.8476
 IR Inten    --      5.6901                 1.0800                25.5436

                     40                     41                     42
                      A                      A                      A
 Frequencies --    862.5206               912.1080               935.8271
 Red. masses --      4.1010                 3.8055                 4.3338
 Frc consts  --      1.7975                 1.8653                 2.2362
 IR Inten    --      2.5797                15.7747                 7.0428

                     43                     44                     45
                      A                      A                      A
 Frequencies --    953.7140               957.2564               969.7346
 Red. masses --      1.3188                 1.3267                 1.6646
 Frc consts  --      0.7067                 0.7163                 0.9223
 IR Inten    --      0.3651                 0.1959                 5.2633

                     46                     47                     48
                      A                      A                      A
 Frequencies --   1001.1479              1021.0337              1038.0616
 Red. masses --      1.3910                 1.5164                 1.7376
 Frc consts  --      0.8214                 0.9314                 1.1032
 IR Inten    --      4.4752                 6.1702                23.3312

                     49                     50                     51
                      A                      A                      A
 Frequencies --   1040.1436              1058.3907              1068.1433
 Red. masses --      2.2321                 4.4444                 1.7139
 Frc consts  --      1.4228                 2.9333                 1.1521
 IR Inten    --      9.7819                17.2028                 9.9887

                     52                     53                     54
                      A                      A                      A
 Frequencies --   1082.1561              1149.5854              1169.1926
 Red. masses --      1.6778                 1.3653                 3.1702
 Frc consts  --      1.1576                 1.0631                 2.5533
 IR Inten    --     11.8786                 3.5738                30.3732

                     55                     56                     57
                      A                      A                      A
 Frequencies --   1214.9293              1258.0821              1261.3294
 Red. masses --      1.1233                 8.2667                 2.2199
 Frc consts  --      0.9769                 7.7090                 2.0809
 IR Inten    --      3.4338                 0.1258                32.0034

                     58                     59                     60
                      A                      A                      A
 Frequencies --   1279.0998              1305.1439              1327.1798
 Red. masses --      2.6513                 1.8271                 2.5800
 Frc consts  --      2.5557                 1.8337                 2.6775
 IR Inten    --     41.7875                26.4005                40.3785

                     61                     62                     63
                      A                      A                      A
 Frequencies --   1342.2447              1344.3770              1350.0084
 Red. masses --      3.8365                 2.0707                 2.3394
 Frc consts  --      4.0724                 2.2050                 2.5121
 IR Inten    --     60.8401               360.1474               154.5056

                     64                     65                     66
                      A                      A                      A
 Frequencies --   1376.0480              1422.8952              1426.8590
 Red. masses --      2.9051                 2.3040                 1.3862
 Frc consts  --      3.2410                 2.7484                 1.6628
 IR Inten    --    286.5455                30.4764                81.1475

                     67                     68                     69
                      A                      A                      A
 Frequencies --   1433.5530              1440.0661              1472.2747
 Red. masses --      1.3874                 2.1939                 1.9909
 Frc consts  --      1.6799                 2.6806                 2.5426
 IR Inten    --      9.0925                 2.1242                49.8604

                     70                     71                     72
                      A                      A                      A
 Frequencies --   1490.8868              1502.3027              1506.9082
 Red. masses --      2.2292                 1.0622                 1.0887
 Frc consts  --      2.9193                 1.4125                 1.4565
 IR Inten    --     57.9996                22.3955                12.1464

                     73                     74                     75
                      A                      A                      A
 Frequencies --   1508.2348              1512.7134              1517.9540
 Red. masses --      1.3505                 1.7518                 1.2077
 Frc consts  --      1.8100                 2.3619                 1.6395
 IR Inten    --     33.9477                20.1931                12.7070

                     76                     77                     78
                      A                      A                      A
 Frequencies --   1569.7821              1595.3056              1637.2207
 Red. masses --      2.8171                 5.4382                 6.0735
 Frc consts  --      4.0900                 8.1544                 9.5919
 IR Inten    --    255.6245                52.3674                 3.4392

                     79                     80                     81
                      A                      A                      A
 Frequencies --   1645.1455              1675.2386              1770.9018
 Red. masses --      5.3005                 5.9638                 8.7821
 Frc consts  --      8.4523                 9.8611                16.2270
 IR Inten    --    175.5441                 4.8566               554.0533

                     82                     83                     84
                      A                      A                      A
 Frequencies --   1798.6219              3063.8031              3068.8617
 Red. masses --      8.0110                 1.0384                 1.0397
 Frc consts  --     15.2692                 5.7432                 5.7694
 IR Inten    --    405.4848                 6.0351                 2.9681

                     85                     86                     87
                      A                      A                      A
 Frequencies --   3119.9490              3137.8018              3173.9041
 Red. masses --      1.0994                 1.0968                 1.1021
 Frc consts  --      6.3055                 6.3623                 6.5414
 IR Inten    --      8.3293                 7.0568                 9.0510

                     88                     89                     90
                      A                      A                      A
 Frequencies --   3175.6433              3194.1989              3196.0497
 Red. masses --      1.1037                 1.0914                 1.0894
 Frc consts  --      6.5580                 6.5611                 6.5566
 IR Inten    --      9.7944                15.4666                11.8968

                     91                     92                     93
                      A                      A                      A
 Frequencies --   3199.5841              3200.3943              3223.8957
 Red. masses --      1.0918                 1.0901                 1.0935
 Frc consts  --      6.5856                 6.5787                 6.6963
 IR Inten    --      4.8245                 5.0513                 7.1907

                     94                     95                     96
                      A                      A                      A
 Frequencies --   3236.7276              3572.8903              3580.4555
 Red. masses --      1.0924                 1.0752                 1.0754
 Frc consts  --      6.7427                 8.0871                 8.1229
 IR Inten    --      6.8038                40.3083                26.3479

 - Thermochemistry -
 -------------------
 Temperature   298.150 Kelvin.  Pressure   1.00000 Atm.
 Atom     1 has atomic number  6 and mass  12.00000

 Molecular mass:   270.11168 amu.
 Principal axes and moments of inertia in atomic units:
                           1         2         3
     Eigenvalues --  3312.94961********************
           X            0.99986   0.01455  -0.00876
           Y           -0.01455   0.99989   0.00014
           Z            0.00876  -0.00001   0.99996
 This molecule is an asymmetric top.
 Rotational symmetry number  1.
 Warning -- assumption of classical behavior for rotation
           may cause significant error
 Rotational temperatures (Kelvin)      0.02614     0.00858     0.00704
 Rotational constants (GHZ):           0.54475     0.17877     0.14660
 Zero-point vibrational energy     703194.6 (Joules/Mol)
                                  168.06755 (Kcal/Mol)
 Warning -- explicit consideration of  28 degrees of freedom as
           vibrations may cause significant error
 Vibrational temperatures:     26.83    31.66    51.12    59.11    77.55
          (Kelvin)             88.00   126.10   157.80   180.46   237.30
                              269.11   288.99   366.89   441.36   451.63
                              523.60   529.92   556.33   591.92   601.65
                              618.63   685.28   728.43   734.20   765.21
                              780.12   809.08   878.71   936.15   943.48
                              953.91   993.65  1015.76  1052.29  1083.59
                             1119.62  1158.68  1199.10  1218.68  1240.97
                             1312.32  1346.45  1372.18  1377.28  1395.23
                             1440.43  1469.04  1493.54  1496.53  1522.79
                             1536.82  1556.98  1654.00  1682.21  1748.01
                             1810.10  1814.77  1840.34  1877.81  1909.52
                             1931.19  1934.26  1942.36  1979.83  2047.23
                             2052.93  2062.56  2071.93  2118.27  2145.05
                             2161.48  2168.10  2170.01  2176.46  2184.00
                             2258.57  2295.29  2355.60  2367.00  2410.29
                             2547.93  2587.82  4408.13  4415.41  4488.91
                             4514.60  4566.54  4569.04  4595.74  4598.40
                             4603.49  4604.65  4638.47  4656.93  5140.59
                             5151.48

 Zero-point correction=                           0.267833 (Hartree/Particle)
 Thermal correction to Energy=                    0.286176
 Thermal correction to Enthalpy=                  0.287121
 Thermal correction to Gibbs Free Energy=         0.217662
 Sum of electronic and zero-point Energies=           -911.206984
 Sum of electronic and thermal Energies=              -911.188641
 Sum of electronic and thermal Enthalpies=            -911.187696
 Sum of electronic and thermal Free Energies=         -911.257155

                     E (Thermal)             CV                S
                      KCal/Mol        Cal/Mol-Kelvin    Cal/Mol-Kelvin
 Total                  179.578             68.037            146.188
 Electronic               0.000              0.000              0.000
 Translational            0.889              2.981             42.680
 Rotational               0.889              2.981             34.375
 Vibrational            177.801             62.075             69.132
 Vibration     1          0.593              1.986              6.773
 Vibration     2          0.593              1.985              6.445
 Vibration     3          0.594              1.982              5.494
 Vibration     4          0.594              1.981              5.206
 Vibration     5          0.596              1.976              4.669
 Vibration     6          0.597              1.973              4.419
 Vibration     7          0.601              1.958              3.712
 Vibration     8          0.606              1.941              3.275
 Vibration     9          0.610              1.928              3.015
 Vibration    10          0.623              1.886              2.492
 Vibration    11          0.632              1.858              2.257
 Vibration    12          0.638              1.839              2.125
 Vibration    13          0.665              1.754              1.696
 Vibration    14          0.697              1.661              1.380
 Vibration    15          0.702              1.647              1.342
 Vibration    16          0.737              1.547              1.105
 Vibration    17          0.741              1.537              1.087
 Vibration    18          0.755              1.499              1.013
 Vibration    19          0.775              1.445              0.922
 Vibration    20          0.781              1.431              0.898
 Vibration    21          0.791              1.405              0.859
 Vibration    22          0.833              1.303              0.720
 Vibration    23          0.862              1.236              0.643
 Vibration    24          0.865              1.227              0.633
 Vibration    25          0.887              1.180              0.583
 Vibration    26          0.897              1.157              0.561
 Vibration    27          0.918              1.113              0.519
 Vibration    28          0.970              1.009              0.432

                           ! Non-Optimized Parameters !
 Normal termination of Gaussian 16 at Mon Dec 14 18:14:38 2020.

 ----------------------------------------------------------------------
 # B3LYP/6-311++G(d,p) empiricaldispersion=gd3bj scf=xqc pop=npa geom=c
 heck
 ----------------------------------------------------------------------

 ----------------------------------------
 CID_100113909_JID_10739_Energie_neutraal
 ----------------------------------------
 Structure from the checkpoint file:  "JID_10739.chk"
 Charge =  0 Multiplicity = 1

 SCF Done:  E(RB3LYP) =  -911.727559538     A.U. after   16 cycles
 Normal termination of Gaussian 16 at Mon Dec 14 18:20:28 2020.

 ----------------------------------------------------------------------
 # B3LYP/6-311++G(d,p) empiricaldispersion=gd3bj scf=xqc pop=npa geom=c
 heck
 ----------------------------------------------------------------------

 --------------------------------------
 CID_100113909_JID_10739_Energie_kation
 --------------------------------------
 Structure from the checkpoint file:  "JID_10739.chk"
 Charge =  1 Multiplicity = 2

 SCF Done:  E(UB3LYP) =  -911.426949300     A.U. after   25 cycles
 Normal termination of Gaussian 16 at Mon Dec 14 18:32:28 2020.
 Gaussian 16:  ES64L-G16RevA.03 25-Dec-2016

 ----------------------------------------------------------------------
 # B3LYP/6-311++G(d,p) empiricaldispersion=gd3bj scf=xqc pop=npa geom=c
 heck
 ----------------------------------------------------------------------

 -------------------------------------
 CID_100113909_JID_10739_Energie_anion
 -------------------------------------
 Structure from the checkpoint file:  "JID_10739.chk"
 Charge = -1 Multiplicity = 2

                         Standard orientation:
 ---------------------------------------------------------------------
 Center     Atomic      Atomic             Coordinates (Angstroms)
 Number     Number       Type             X           Y           Z
 ---------------------------------------------------------------------
      1          6           0        3.589740    3.575988    0.110612
      2          6           0        3.247295    2.114110    0.118923
      3          7           0        4.036901    1.284377   -0.583242
      4          6           0        3.710338   -0.009630   -0.564094
      5          6           0        2.592800   -0.498567    0.116346
      6          6           0        1.857951    0.451927    0.834428
      7          7           0        2.176051    1.745258    0.845713
      8          6           0        2.339236   -1.970467    0.122855
      9          8           0        3.264256   -2.769837    0.049316
     10          7           0        1.038045   -2.407769    0.270157
     11          6           0       -0.167311   -1.718124   -0.019354
     12          6           0       -1.273846   -1.890748    0.817561
     13          6           0       -2.477189   -1.246415    0.546360
     14          6           0       -2.580170   -0.366978   -0.539878
     15          6           0       -1.470662   -0.203899   -1.382437
     16          6           0       -0.286874   -0.889911   -1.142345
     17          7           0       -3.773562    0.314948   -0.848669
     18          6           0       -4.675900    0.986268   -0.036829
     19          8           0       -5.638804    1.540373   -0.543520
     20          6           0       -4.416497    1.019224    1.456332
     21          1           0        3.855619    3.904945    1.121794
     22          1           0        4.426708    3.765764   -0.562805
     23          1           0        2.721014    4.166813   -0.198464
     24          1           0        4.354186   -0.696021   -1.108962
     25          1           0        0.996135    0.161836    1.430214
     26          1           0        0.984077   -3.413923    0.386619
     27          1           0       -1.192169   -2.545014    1.680605
     28          1           0       -3.338102   -1.432908    1.176526
     29          1           0       -1.543989    0.462863   -2.236926
     30          1           0        0.553612   -0.772868   -1.817308
     31          1           0       -3.969925    0.469829   -1.831116
     32          1           0       -4.860708    0.141547    1.939235
     33          1           0       -3.352207    1.042189    1.703503
     34          1           0       -4.913378    1.906281    1.852113
 ---------------------------------------------------------------------

 SCF Done:  E(UB3LYP) =  -911.750029763     A.U. after   31 cycles

 The electronic state is 2-A.
 Alpha  occ. eigenvalues --  -19.00059 -18.95400 -14.25470 -14.22400 -14.18402
 Alpha  occ. eigenvalues --  -14.18109 -10.18774 -10.13604 -10.11256 -10.10552
 Alpha  occ. eigenvalues --  -10.09928 -10.09275 -10.09222 -10.08224 -10.07587
 Alpha  occ. eigenvalues --  -10.07586 -10.07523 -10.07259 -10.05205 -10.05044
 Alpha  occ. eigenvalues --   -0.95476  -0.91157  -0.85291  -0.84467  -0.81716
 Alpha  occ. eigenvalues --   -0.75492  -0.74109  -0.67954  -0.66449  -0.65224
 Alpha  occ. eigenvalues --   -0.63754  -0.60791  -0.54316  -0.52740  -0.52369
 Alpha  occ. eigenvalues --   -0.51377  -0.48538  -0.46346  -0.44452  -0.42946
 Alpha  occ. eigenvalues --   -0.39807  -0.39433  -0.38329  -0.37298  -0.35996
 Alpha  occ. eigenvalues --   -0.35073  -0.34341  -0.33162  -0.32856  -0.32564
 Alpha  occ. eigenvalues --   -0.31885  -0.30600  -0.30102  -0.29834  -0.28780
 Alpha  occ. eigenvalues --   -0.28439  -0.27756  -0.26965  -0.26816  -0.26195
 Alpha  occ. eigenvalues --   -0.25377  -0.21403  -0.19003  -0.18494  -0.17554
 Alpha  occ. eigenvalues --   -0.16739  -0.16491  -0.14920  -0.12993  -0.12232
 Alpha  occ. eigenvalues --   -0.11385   0.02895
 Alpha virt. eigenvalues --    0.06550   0.06798   0.07398   0.08117   0.08421
 Alpha virt. eigenvalues --    0.08675   0.08730   0.09531   0.10402   0.10760
 Alpha virt. eigenvalues --    0.11265   0.11663   0.12064   0.12393   0.12586

  Beta  occ. eigenvalues --  -18.99998 -18.95114 -14.25504 -14.22450 -14.18535
  Beta  occ. eigenvalues --  -14.18108 -10.18711 -10.13387 -10.11084 -10.10423
  Beta  occ. eigenvalues --  -10.09548 -10.09280 -10.09183 -10.08272 -10.07601
  Beta  occ. eigenvalues --  -10.07468 -10.07316 -10.07149 -10.05235 -10.04952
  Beta  occ. eigenvalues --   -0.95366  -0.90684  -0.85052  -0.84369  -0.81526
  Beta  occ. eigenvalues --   -0.75402  -0.73980  -0.67529  -0.66365  -0.65117
  Beta  occ. eigenvalues --   -0.63532  -0.60578  -0.54132  -0.52515  -0.52145
  Beta  occ. eigenvalues --   -0.50968  -0.48411  -0.46126  -0.44353  -0.42851
  Beta  occ. eigenvalues --   -0.39643  -0.39329  -0.38182  -0.37130  -0.35821
  Beta  occ. eigenvalues --   -0.34948  -0.34053  -0.33090  -0.32751  -0.32001
  Beta  occ. eigenvalues --   -0.31827  -0.30360  -0.29882  -0.29691  -0.28211
  Beta  occ. eigenvalues --   -0.28106  -0.27442  -0.26779  -0.26635  -0.25857
  Beta  occ. eigenvalues --   -0.24990  -0.20865  -0.18559  -0.18400  -0.17500
  Beta  occ. eigenvalues --   -0.16344  -0.16007  -0.14011  -0.12420  -0.12157
  Beta  occ. eigenvalues --   -0.10884
  Beta virt. eigenvalues --    0.06516   0.07037   0.07585   0.08000   0.08420
  Beta virt. eigenvalues --    0.08557   0.08831   0.09231   0.09859   0.10466
  Beta virt. eigenvalues --    0.10781   0.11336   0.11745   0.12240   0.12422

 Mulliken charges and spin densities:
               1          2
     1  C   -0.454843  -0.029642
     2  C   -0.145647   0.205850
     3  N   -0.058634  -0.074846
     4  C   -0.247504   0.218536
     5  C    0.367714   0.063763
     6  C   -0.263997   0.042199
     7  N   -0.008611  -0.000543
     8  C   -0.390705   0.104336
     9  O   -0.380687   0.101272
    10  N   -0.176755  -0.026193
    11  C   -0.468833  -0.074498
    12  C   -0.148985   0.243129
    13  C    0.243165  -0.027577
    14  C   -0.674206   0.055505
    15  C   -0.104458   0.107684
    16  C    0.277309  -0.045029
    17  N   -0.137154  -0.016122
    18  C    0.076363   0.028696
    19  O   -0.366667   0.021159
    20  C   -0.451055  -0.002603
    21  H    0.129077   0.020765
    22  H    0.127170   0.000578
    23  H    0.126329   0.020324
    24  H    0.201689  -0.013742
    25  H    0.217414   0.003892
    26  H    0.272937   0.041934
    27  H    0.157357  -0.000412
    28  H    0.135925   0.002896
    29  H    0.150243  -0.003572
    30  H    0.228089   0.002392
    31  H    0.264998   0.020191
    32  H    0.151409   0.010504
    33  H    0.182081  -0.001144
    34  H    0.169471   0.000317
 Sum of Mulliken charges =  -1.00000   1.00000

 Dipole moment (field-independent basis, Debye):
    X=             -4.9325    Y=             -0.7192    Z=              0.7819  Tot=              5.0456
 Quadrupole moment (field-independent basis, Debye-Ang):
   XX=           -212.5941   YY=           -148.7592   ZZ=           -120.9612
   XY=             17.6465   XZ=             -7.1032   YZ=             -1.2977

 Summary of Natural Population Analysis:

                                       Natural Population
                Natural  -----------------------------------------------
    Atom  No    Charge         Core      Valence    Rydberg      Total
 -----------------------------------------------------------------------
      C    1   -0.30523      0.99964     2.30097    0.00462     3.30523
      C    2    0.27718      0.99964     1.70678    0.01641     2.72282
      N    3   -0.28135      0.99969     2.77151    0.01015     3.78135
      C    4    0.11306      0.99956     1.87413    0.01326     2.88694
      C    5   -0.10632      0.99945     2.09403    0.01283     3.10632
      C    6    0.06582      0.99956     1.92156    0.01306     2.93418
      N    7   -0.26697      0.99968     2.75549    0.01179     3.76697
      C    8    0.36441      0.99964     1.61476    0.02120     2.63559
      O    9   -0.29713      0.99988     3.29149    0.00576     4.29713
      N   10   -0.32822      0.99965     2.81765    0.01092     3.82822
      C   11    0.08770      0.99947     1.90165    0.01117     2.91230
      C   12   -0.08707      0.99953     2.07926    0.00828     3.08707
      C   13   -0.12142      0.99954     2.11435    0.00753     3.12142
      C   14    0.08686      0.99947     1.90274    0.01093     2.91314
      C   15   -0.09515      0.99954     2.08778    0.00783     3.09515
      C   16   -0.10299      0.99952     2.09578    0.00769     3.10299
      N   17   -0.31598      0.99964     2.80634    0.00999     3.81598
      C   18    0.35060      0.99972     1.62901    0.02068     2.64940
      O   19   -0.32062      0.99988     3.31401    0.00674     4.32062
      C   20   -0.33536      0.99963     2.33162    0.00411     3.33536
      H   21    0.10431      0.00000     0.39482    0.00087     0.39569
      H   22    0.10171      0.00000     0.39735    0.00095     0.39829
      H   23    0.10443      0.00000     0.39471    0.00086     0.39557
      H   24    0.09094      0.00000     0.40786    0.00120     0.40906
      H   25    0.09054      0.00000     0.40799    0.00147     0.40946
      H   26    0.19484      0.00000     0.30345    0.00171     0.30516
      H   27    0.09852      0.00000     0.40023    0.00125     0.40148
      H   28    0.09859      0.00000     0.40020    0.00121     0.40141
      H   29    0.09791      0.00000     0.40119    0.00090     0.40209
      H   30    0.10860      0.00000     0.39032    0.00108     0.39140
      H   31    0.19630      0.00000     0.30209    0.00161     0.30370
      H   32    0.10768      0.00000     0.39153    0.00080     0.39232
      H   33    0.11341      0.00000     0.38585    0.00074     0.38659
      H   34    0.11041      0.00000     0.38861    0.00098     0.38959
 =======================================================================
   * Total *    0.00000     19.99232    50.77711    0.23057    71.00000

 Normal termination of Gaussian 16 at Mon Dec 14 18:47:39 2020.
