 Gaussian 16, Revision A.03,

 -----------------------------------------------------------
 # opt freq B3LYP/6-31G(d) empiricaldispersion=gd3bj scf=xqc
 -----------------------------------------------------------

 ------------------------------
 CID_43209678_JID_4962_neutraal
 ------------------------------
 Symbolic Z-matrix:
 Charge =  0 Multiplicity = 1

 SCF Done:  E(RB3LYP) =  -617.207331025     A.U. after   14 cycles
 SCF Done:  E(RB3LYP) =  -617.210941191     A.U. after   12 cycles
 SCF Done:  E(RB3LYP) =  -617.210049801     A.U. after   12 cycles
 SCF Done:  E(RB3LYP) =  -617.211166261     A.U. after   12 cycles
 SCF Done:  E(RB3LYP) =  -617.211922032     A.U. after   11 cycles
 SCF Done:  E(RB3LYP) =  -617.211959152     A.U. after   12 cycles
 SCF Done:  E(RB3LYP) =  -617.212259359     A.U. after   11 cycles
 SCF Done:  E(RB3LYP) =  -617.212330058     A.U. after    9 cycles
 SCF Done:  E(RB3LYP) =  -617.212359515     A.U. after    9 cycles
 SCF Done:  E(RB3LYP) =  -617.212370014     A.U. after    9 cycles
 SCF Done:  E(RB3LYP) =  -617.212392653     A.U. after    9 cycles
 SCF Done:  E(RB3LYP) =  -617.212394021     A.U. after    9 cycles
 SCF Done:  E(RB3LYP) =  -617.212394604     A.U. after    8 cycles
 SCF Done:  E(RB3LYP) =  -617.212394770     A.U. after    7 cycles
 SCF Done:  E(RB3LYP) =  -617.212394893     A.U. after    7 cycles
 SCF Done:  E(RB3LYP) =  -617.212394879     A.U. after    7 cycles
 Optimization completed.
    -- Stationary point found.
 Normal termination of Gaussian 16 at Thu Dec 10 11:11:36 2020.

 --------------------------------------------------------------------
 #N Geom=AllCheck Guess=TCheck SCRF=Check GenChk RB3LYP/6-31G(d) Freq
 --------------------------------------------------------------------

 Structure from the checkpoint file:  "JID_4962.chk"
 ------------------------------
 CID_43209678_JID_4962_neutraal
 ------------------------------
 Charge =  0 Multiplicity = 1

 SCF Done:  E(RB3LYP) =  -617.212394879     A.U. after    1 cycles

  Exact polarizability: 147.103   1.070 121.940  -2.109   6.122 115.859
 Approx polarizability: 185.720  -1.136 173.506  -7.520  17.800 180.805

                      1                      2                      3
                      A                      A                      A
 Frequencies --     19.5517                49.3950                67.7433
 Red. masses --      2.7096                 2.9023                 3.6221
 Frc consts  --      0.0006                 0.0042                 0.0098
 IR Inten    --      0.1397                 0.2950                 0.1896

                      4                      5                      6
                      A                      A                      A
 Frequencies --     74.7339               102.7261               121.5834
 Red. masses --      5.5098                 2.5520                 1.9195
 Frc consts  --      0.0181                 0.0159                 0.0167
 IR Inten    --      2.2224                 0.2975                 0.0438

                      7                      8                      9
                      A                      A                      A
 Frequencies --    184.9432               189.4263               199.5142
 Red. masses --      2.3720                 2.1078                 1.1120
 Frc consts  --      0.0478                 0.0446                 0.0261
 IR Inten    --      1.1065                 0.6144                 0.1845

                     10                     11                     12
                      A                      A                      A
 Frequencies --    225.6305               228.5076               270.7987
 Red. masses --      1.8518                 2.7698                 2.0750
 Frc consts  --      0.0555                 0.0852                 0.0897
 IR Inten    --      0.2789                 0.7870                 0.3657

                     13                     14                     15
                      A                      A                      A
 Frequencies --    292.4571               339.7807               350.7564
 Red. masses --      2.7862                 2.5855                 2.4225
 Frc consts  --      0.1404                 0.1759                 0.1756
 IR Inten    --      2.3085                 7.8942                 5.5733

                     16                     17                     18
                      A                      A                      A
 Frequencies --    360.2677               382.4158               420.7821
 Red. masses --      2.6066                 3.2598                 2.1910
 Frc consts  --      0.1993                 0.2809                 0.2286
 IR Inten    --      1.7253                 6.8308                 1.7671

                     19                     20                     21
                      A                      A                      A
 Frequencies --    450.2971               517.6083               544.9208
 Red. masses --      2.1398                 3.3868                 1.5993
 Frc consts  --      0.2556                 0.5346                 0.2798
 IR Inten    --      2.9748                14.9117                 2.1353

                     22                     23                     24
                      A                      A                      A
 Frequencies --    575.4588               656.6479               711.6931
 Red. masses --      3.2696                 2.7631                 2.2665
 Frc consts  --      0.6379                 0.7020                 0.6764
 IR Inten    --      2.2835                 5.4366                47.9874

                     25                     26                     27
                      A                      A                      A
 Frequencies --    731.9370               749.5316               770.7074
 Red. masses --      2.2634                 5.0357                 1.4213
 Frc consts  --      0.7144                 1.6668                 0.4974
 IR Inten    --     88.0241                25.6190                 4.8794

                     28                     29                     30
                      A                      A                      A
 Frequencies --    784.2076               833.2343               861.6082
 Red. masses --      1.4092                 2.3356                 1.9074
 Frc consts  --      0.5106                 0.9554                 0.8343
 IR Inten    --      4.7712                 9.9500                 0.4627

                     31                     32                     33
                      A                      A                      A
 Frequencies --    873.0510               886.4277               922.3075
 Red. masses --      2.1293                 2.0799                 1.7804
 Frc consts  --      0.9562                 0.9629                 0.8923
 IR Inten    --      1.9463                 2.0367                 2.8472

                     34                     35                     36
                      A                      A                      A
 Frequencies --    944.9437               958.1282               979.7974
 Red. masses --      1.8394                 1.9413                 2.0497
 Frc consts  --      0.9677                 1.0500                 1.1594
 IR Inten    --      1.0867                26.2525                11.7580

                     37                     38                     39
                      A                      A                      A
 Frequencies --   1012.0378              1034.3658              1041.0530
 Red. masses --      1.7977                 1.5763                 2.4174
 Frc consts  --      1.0848                 0.9936                 1.5437
 IR Inten    --      8.5891                 6.3193                 2.3830

                     40                     41                     42
                      A                      A                      A
 Frequencies --   1064.8032              1073.3492              1086.8147
 Red. masses --      1.9434                 2.2033                 2.3270
 Frc consts  --      1.2982                 1.4955                 1.6194
 IR Inten    --      1.1919                20.6588                 4.3588

                     43                     44                     45
                      A                      A                      A
 Frequencies --   1127.8446              1149.4501              1151.9172
 Red. masses --      1.7460                 1.8564                 2.0841
 Frc consts  --      1.3086                 1.4451                 1.6293
 IR Inten    --     19.5687                 8.0613                 4.6094

                     46                     47                     48
                      A                      A                      A
 Frequencies --   1179.2843              1190.5189              1219.2171
 Red. masses --      2.9352                 2.2023                 2.0188
 Frc consts  --      2.4050                 1.8391                 1.7681
 IR Inten    --     22.3266                27.1125                13.2653

                     49                     50                     51
                      A                      A                      A
 Frequencies --   1257.7024              1282.2255              1295.2857
 Red. masses --      1.5611                 1.3172                 1.4414
 Frc consts  --      1.4549                 1.2760                 1.4248
 IR Inten    --      7.9433                19.2560                40.4608

                     52                     53                     54
                      A                      A                      A
 Frequencies --   1307.6871              1315.1122              1336.0378
 Red. masses --      1.2899                 1.3237                 1.3446
 Frc consts  --      1.2997                 1.3488                 1.4141
 IR Inten    --      0.6522                32.7909                12.8263

                     55                     56                     57
                      A                      A                      A
 Frequencies --   1346.3480              1350.0148              1375.8208
 Red. masses --      1.3695                 1.2102                 1.3011
 Frc consts  --      1.4626                 1.2996                 1.4511
 IR Inten    --     17.8326                 3.4847                 2.2838

                     58                     59                     60
                      A                      A                      A
 Frequencies --   1382.9652              1392.9714              1399.7707
 Red. masses --      1.2910                 1.3296                 1.3732
 Frc consts  --      1.4547                 1.5200                 1.5852
 IR Inten    --     10.2575                 3.1092                 9.0488

                     61                     62                     63
                      A                      A                      A
 Frequencies --   1405.2700              1409.3992              1422.4273
 Red. masses --      1.2599                 1.3487                 1.3151
 Frc consts  --      1.4659                 1.5785                 1.5678
 IR Inten    --     13.8836                 3.2977                20.0825

                     64                     65                     66
                      A                      A                      A
 Frequencies --   1427.6806              1440.8472              1447.4356
 Red. masses --      1.3217                 1.2224                 1.2518
 Frc consts  --      1.5873                 1.4952                 1.5452
 IR Inten    --     13.2166                 3.5660                 9.1986

                     67                     68                     69
                      A                      A                      A
 Frequencies --   1473.1960              1496.4146              1503.6094
 Red. masses --      1.7345                 1.2092                 1.0829
 Frc consts  --      2.2180                 1.5953                 1.4424
 IR Inten    --     86.8216                33.5819                 1.6255

                     70                     71                     72
                      A                      A                      A
 Frequencies --   1508.3920              1514.8678              1518.7739
 Red. masses --      1.1260                 1.1111                 1.0828
 Frc consts  --      1.5094                 1.5023                 1.4716
 IR Inten    --      7.5022                 9.0231                 1.7190

                     73                     74                     75
                      A                      A                      A
 Frequencies --   1519.3298              1524.0229              1529.5013
 Red. masses --      1.1163                 1.1278                 1.0697
 Frc consts  --      1.5182                 1.5434                 1.4744
 IR Inten    --      8.0266                 4.3908                 4.4431

                     76                     77                     78
                      A                      A                      A
 Frequencies --   1531.7711              1533.6445              1538.0219
 Red. masses --      1.0512                 1.0645                 1.0838
 Frc consts  --      1.4532                 1.4752                 1.5105
 IR Inten    --      2.8759                 5.0576                 3.6094

                     79                     80                     81
                      A                      A                      A
 Frequencies --   1542.1923              1733.2742              3028.3684
 Red. masses --      1.1013                 9.1707                 1.0655
 Frc consts  --      1.5433                16.2325                 5.7574
 IR Inten    --     31.7978               234.2728                20.0426

                     82                     83                     84
                      A                      A                      A
 Frequencies --   3036.7858              3037.4120              3039.2660
 Red. masses --      1.0604                 1.0635                 1.0650
 Frc consts  --      5.7617                 5.7807                 5.7960
 IR Inten    --     31.3676                18.1214                66.4518

                     85                     86                     87
                      A                      A                      A
 Frequencies --   3043.6660              3048.6463              3051.1153
 Red. masses --      1.0686                 1.0378                 1.0637
 Frc consts  --      5.8326                 5.6829                 5.8344
 IR Inten    --     25.7467                19.5513                50.9434

                     88                     89                     90
                      A                      A                      A
 Frequencies --   3056.7247              3060.3355              3069.2816
 Red. masses --      1.0371                 1.0785                 1.0982
 Frc consts  --      5.7092                 5.9515                 6.0957
 IR Inten    --     13.2240                29.4811                30.4962

                     91                     92                     93
                      A                      A                      A
 Frequencies --   3074.4993              3080.4747              3090.8741
 Red. masses --      1.0936                 1.0970                 1.0986
 Frc consts  --      6.0905                 6.1334                 6.1835
 IR Inten    --     40.6355                16.7846                48.9587

                     94                     95                     96
                      A                      A                      A
 Frequencies --   3096.9458              3104.9215              3113.7791
 Red. masses --      1.0895                 1.1009                 1.1019
 Frc consts  --      6.1564                 6.2529                 6.2948
 IR Inten    --     19.2848                41.2551                33.9750

                     97                     98                     99
                      A                      A                      A
 Frequencies --   3120.1931              3123.4930              3129.1226
 Red. masses --      1.1018                 1.1011                 1.1007
 Frc consts  --      6.3200                 6.3293                 6.3501
 IR Inten    --     62.5173                20.0604                38.4917

                    100                    101                    102
                      A                      A                      A
 Frequencies --   3134.3622              3171.8178              3488.3943
 Red. masses --      1.0970                 1.0892                 1.0736
 Frc consts  --      6.3499                 6.4561                 7.6970
 IR Inten    --     14.2210                19.8711                 2.0593

 - Thermochemistry -
 -------------------
 Temperature   298.150 Kelvin.  Pressure   1.00000 Atm.
 Atom     1 has atomic number  6 and mass  12.00000

 Molecular mass:   198.17321 amu.
 Principal axes and moments of inertia in atomic units:
                           1         2         3
     Eigenvalues --  1782.338364142.819524533.71463
           X            0.99995   0.00801  -0.00604
           Y           -0.00830   0.99873  -0.04972
           Z            0.00564   0.04977   0.99875
 This molecule is an asymmetric top.
 Rotational symmetry number  1.
 Warning -- assumption of classical behavior for rotation
           may cause significant error
 Rotational temperatures (Kelvin)      0.04860     0.02091     0.01910
 Rotational constants (GHZ):           1.01257     0.43563     0.39807
 Zero-point vibrational energy     868648.4 (Joules/Mol)
                                  207.61195 (Kcal/Mol)
 Warning -- explicit consideration of  22 degrees of freedom as
           vibrations may cause significant error
 Vibrational temperatures:     28.13    71.07    97.47   107.53   147.80
          (Kelvin)            174.93   266.09   272.54   287.06   324.63
                              328.77   389.62   420.78   488.87   504.66
                              518.34   550.21   605.41   647.88   744.72
                              784.02   827.96   944.77  1023.97  1053.09
                             1078.41  1108.88  1128.30  1198.84  1239.66
                             1256.13  1275.37  1326.99  1359.56  1378.53
                             1409.71  1456.10  1488.22  1497.84  1532.01
                             1544.31  1563.68  1622.72  1653.80  1657.35
                             1696.73  1712.89  1754.18  1809.55  1844.84
                             1863.63  1881.47  1892.15  1922.26  1937.09
                             1942.37  1979.50  1989.78  2004.18  2013.96
                             2021.87  2027.81  2046.56  2054.11  2073.06
                             2082.54  2119.60  2153.01  2163.36  2170.24
                             2179.56  2185.18  2185.98  2192.73  2200.61
                             2203.88  2206.57  2212.87  2218.87  2493.79
                             4357.15  4369.26  4370.16  4372.83  4379.16
                             4386.32  4389.87  4397.95  4403.14  4416.01
                             4423.52  4432.12  4447.08  4455.81  4467.29
                             4480.03  4489.26  4494.01  4502.11  4509.65
                             4563.54  5019.02

 Zero-point correction=                           0.330851 (Hartree/Particle)
 Thermal correction to Energy=                    0.346163
 Thermal correction to Enthalpy=                  0.347108
 Thermal correction to Gibbs Free Energy=         0.287592
 Sum of electronic and zero-point Energies=           -616.881544
 Sum of electronic and thermal Energies=              -616.866231
 Sum of electronic and thermal Enthalpies=            -616.865287
 Sum of electronic and thermal Free Energies=         -616.924803

                     E (Thermal)             CV                S
                      KCal/Mol        Cal/Mol-Kelvin    Cal/Mol-Kelvin
 Total                  217.221             57.749            125.261
 Electronic               0.000              0.000              0.000
 Translational            0.889              2.981             41.757
 Rotational               0.889              2.981             31.882
 Vibrational            215.443             51.787             51.623
 Vibration     1          0.593              1.986              6.679
 Vibration     2          0.595              1.978              4.841
 Vibration     3          0.598              1.970              4.218
 Vibration     4          0.599              1.966              4.025
 Vibration     5          0.605              1.947              3.402
 Vibration     6          0.609              1.931              3.075
 Vibration     7          0.631              1.860              2.278
 Vibration     8          0.633              1.854              2.233
 Vibration     9          0.638              1.841              2.138
 Vibration    10          0.650              1.802              1.913
 Vibration    11          0.651              1.798              1.891
 Vibration    12          0.674              1.727              1.591
 Vibration    13          0.688              1.688              1.460
 Vibration    14          0.720              1.596              1.213
 Vibration    15          0.728              1.574              1.163
 Vibration    16          0.735              1.554              1.121
 Vibration    17          0.752              1.508              1.030
 Vibration    18          0.783              1.425              0.889
 Vibration    19          0.809              1.360              0.795
 Vibration    20          0.873              1.211              0.616
 Vibration    21          0.900              1.151              0.555
 Vibration    22          0.932              1.084              0.494

 Optimization completed.
    -- Stationary point found.
 Normal termination of Gaussian 16 at Thu Dec 10 11:22:54 2020.

 ----------------------------------------------------------------------
 # B3LYP/6-311++G(d,p) empiricaldispersion=gd3bj scf=xqc pop=npa geom=c
 heck
 ----------------------------------------------------------------------

 --------------------------------------
 CID_43209678_JID_4962_Energie_neutraal
 --------------------------------------
 Structure from the checkpoint file:  "JID_4962.chk"
 Charge =  0 Multiplicity = 1

 SCF Done:  E(RB3LYP) =  -617.389792994     A.U. after   14 cycles
 Normal termination of Gaussian 16 at Thu Dec 10 11:27:31 2020.

 ----------------------------------------------------------------------
 # B3LYP/6-311++G(d,p) empiricaldispersion=gd3bj scf=xqc pop=npa geom=c
 heck
 ----------------------------------------------------------------------

 ------------------------------------
 CID_43209678_JID_4962_Energie_kation
 ------------------------------------
 Structure from the checkpoint file:  "JID_4962.chk"
 Charge =  1 Multiplicity = 2

 SCF Done:  E(UB3LYP) =  -617.098232467     A.U. after   24 cycles
 Normal termination of Gaussian 16 at Thu Dec 10 11:38:10 2020.
 Gaussian 16:  ES64L-G16RevA.03 25-Dec-2016

 ----------------------------------------------------------------------
 # B3LYP/6-311++G(d,p) empiricaldispersion=gd3bj scf=xqc pop=npa geom=c
 heck
 ----------------------------------------------------------------------

 -----------------------------------
 CID_43209678_JID_4962_Energie_anion
 -----------------------------------
 Structure from the checkpoint file:  "JID_4962.chk"
 Charge = -1 Multiplicity = 2

                         Standard orientation:
 ---------------------------------------------------------------------
 Center     Atomic      Atomic             Coordinates (Angstroms)
 Number     Number       Type             X           Y           Z
 ---------------------------------------------------------------------
      1          6           0        3.778708    0.927950   -1.433523
      2          6           0        3.329420    1.102955    0.020100
      3          6           0        1.856064    0.736567    0.266618
      4          6           0        1.575788   -0.780469    0.167775
      5          6           0        1.991984   -1.554808    1.430575
      6          6           0        0.164138   -1.162930   -0.305552
      7          8           0        0.046335   -1.829060   -1.334208
      8          7           0       -0.948479   -0.821916    0.428197
      9          6           0       -1.004555    0.114239    1.543663
     10          6           0       -1.376343    1.576627    1.169582
     11          6           0       -1.906787    1.799413   -0.259034
     12          7           0       -3.089119    1.047909   -0.669449
     13          6           0       -2.848044   -0.319433   -1.115357
     14          6           0       -2.243283   -1.280652   -0.083395
     15          1           0        3.694076   -0.111516   -1.768030
     16          1           0        4.824005    1.230306   -1.560455
     17          1           0        3.167635    1.540899   -2.107075
     18          1           0        3.973503    0.508156    0.681661
     19          1           0        3.478840    2.149426    0.315768
     20          1           0        1.565056    1.110914    1.254577
     21          1           0        1.237550    1.274525   -0.464136
     22          1           0        2.179316   -1.169247   -0.656587
     23          1           0        1.433990   -1.243218    2.319546
     24          1           0        1.831692   -2.629048    1.292976
     25          1           0        3.056234   -1.399834    1.638247
     26          1           0       -0.053615    0.099685    2.072522
     27          1           0       -1.746267   -0.283161    2.245315
     28          1           0       -2.126003    1.939568    1.885382
     29          1           0       -0.499559    2.223939    1.297309
     30          1           0       -2.124218    2.871530   -0.360705
     31          1           0       -1.116915    1.574550   -0.985125
     32          1           0       -3.798765    1.071602    0.060676
     33          1           0       -2.171904   -0.280971   -1.976457
     34          1           0       -3.798980   -0.735571   -1.472018
     35          1           0       -2.098585   -2.263933   -0.536392
     36          1           0       -2.917109   -1.384831    0.776729
 ---------------------------------------------------------------------

 SCF Done:  E(UB3LYP) =  -617.378462403     A.U. after   31 cycles

 The electronic state is 2-A.
 Alpha  occ. eigenvalues --  -18.98311 -14.24173 -14.19823 -10.16675 -10.10651
 Alpha  occ. eigenvalues --  -10.09895 -10.09526 -10.09525 -10.08555 -10.07543
 Alpha  occ. eigenvalues --  -10.07431 -10.07037 -10.06916 -10.06810  -0.93676
 Alpha  occ. eigenvalues --   -0.84066  -0.80072  -0.72113  -0.68498  -0.66667
 Alpha  occ. eigenvalues --   -0.62310  -0.59231  -0.59183  -0.55302  -0.52536
 Alpha  occ. eigenvalues --   -0.49632  -0.48275  -0.44150  -0.40650  -0.39542
 Alpha  occ. eigenvalues --   -0.37932  -0.36931  -0.36187  -0.35437  -0.34151
 Alpha  occ. eigenvalues --   -0.33420  -0.33016  -0.32309  -0.31681  -0.31215
 Alpha  occ. eigenvalues --   -0.29300  -0.28782  -0.27462  -0.27286  -0.26352
 Alpha  occ. eigenvalues --   -0.26121  -0.26032  -0.25058  -0.24370  -0.23877
 Alpha  occ. eigenvalues --   -0.23097  -0.22439  -0.15411  -0.14871  -0.12165
 Alpha  occ. eigenvalues --    0.04190
 Alpha virt. eigenvalues --    0.06007   0.07154   0.07469   0.08394   0.08653
 Alpha virt. eigenvalues --    0.08870   0.10048   0.10486   0.10756   0.11052
 Alpha virt. eigenvalues --    0.11337   0.11606   0.12058   0.12261   0.13000

  Beta  occ. eigenvalues --  -18.98287 -14.24182 -14.19802 -10.16659 -10.10625
  Beta  occ. eigenvalues --  -10.09879 -10.09522 -10.09517 -10.08554 -10.07530
  Beta  occ. eigenvalues --  -10.07407 -10.07007 -10.06902 -10.06781  -0.93639
  Beta  occ. eigenvalues --   -0.84050  -0.80038  -0.72086  -0.68459  -0.66632
  Beta  occ. eigenvalues --   -0.62271  -0.59190  -0.59143  -0.55256  -0.52493
  Beta  occ. eigenvalues --   -0.49572  -0.48220  -0.44109  -0.40617  -0.39510
  Beta  occ. eigenvalues --   -0.37893  -0.36891  -0.36158  -0.35406  -0.34108
  Beta  occ. eigenvalues --   -0.33390  -0.32977  -0.32278  -0.31637  -0.31180
  Beta  occ. eigenvalues --   -0.29265  -0.28748  -0.27424  -0.27255  -0.26317
  Beta  occ. eigenvalues --   -0.26087  -0.25993  -0.25015  -0.24330  -0.23837
  Beta  occ. eigenvalues --   -0.23060  -0.22407  -0.15378  -0.14843  -0.12130
  Beta virt. eigenvalues --    0.06387   0.07094   0.07671   0.08004   0.08820
  Beta virt. eigenvalues --    0.09003   0.09384   0.10414   0.10729   0.11088
  Beta virt. eigenvalues --    0.11380   0.11546   0.11917   0.12368   0.12621

 Mulliken charges and spin densities:
               1          2
     1  C   -0.226640  -0.348295
     2  C    1.282091  -1.683895
     3  C   -0.844894   0.844244
     4  C   -0.241860   0.411289
     5  C    0.550507  -1.119279
     6  C   -0.451545  -0.053545
     7  O   -0.300348   0.008963
     8  N    0.093509   0.017447
     9  C    0.438534  -0.706946
    10  C    0.224666  -0.498592
    11  C    0.285614  -0.658256
    12  N   -0.153685   0.054096
    13  C   -0.072196  -0.323497
    14  C    0.033342  -0.077096
    15  H    0.046118   0.076676
    16  H   -0.064377   0.209641
    17  H    0.032679   0.101236
    18  H   -0.095810   0.222182
    19  H   -0.339393   0.498452
    20  H   -0.130435   0.296313
    21  H    0.234390  -0.163415
    22  H    0.159211   0.064489
    23  H   -0.265909   0.430509
    24  H    0.033587   0.115025
    25  H   -0.050943   0.193829
    26  H    0.192706  -0.101785
    27  H   -0.625239   0.834176
    28  H   -0.799674   1.009088
    29  H   -0.106365   0.231367
    30  H   -0.179654   0.391280
    31  H    0.080709   0.070320
    32  H    0.083994   0.127863
    33  H    0.218322  -0.017880
    34  H    0.018755   0.142844
    35  H    0.141553   0.039631
    36  H   -0.201322   0.361523
 Sum of Mulliken charges =  -1.00000   1.00000

 Dipole moment (field-independent basis, Debye):
    X=              1.0582    Y=             -2.4702    Z=             -3.6138  Tot=              4.5034
 Quadrupole moment (field-independent basis, Debye-Ang):
   XX=           -160.4194   YY=           -133.7644   ZZ=           -135.6309
   XY=              2.5273   XZ=              5.7777   YZ=             -6.0009

 Summary of Natural Population Analysis:

                                       Natural Population
                Natural  -----------------------------------------------
    Atom  No    Charge         Core      Valence    Rydberg      Total
 -----------------------------------------------------------------------
      C    1   -0.28681      0.99966     2.28156    0.00559     3.28681
      C    2   -0.18865      0.99964     2.18083    0.00818     3.18865
      C    3   -0.18897      0.99960     2.17978    0.00959     3.18897
      C    4   -0.15110      0.99955     2.14141    0.01014     3.15110
      C    5   -0.28113      0.99964     2.27608    0.00541     3.28113
      C    6    0.35592      0.99960     1.62041    0.02407     2.64408
      O    7   -0.33198      0.99988     3.32729    0.00481     4.33198
      N    8   -0.25935      0.99964     2.74808    0.01164     3.75935
      C    9   -0.08796      0.99960     2.07567    0.01269     3.08796
      C   10   -0.20627      0.99962     2.19728    0.00937     3.20627
      C   11   -0.08859      0.99962     2.07714    0.01183     3.08859
      N   12   -0.34024      0.99975     2.82861    0.01187     3.84024
      C   13   -0.09244      0.99961     2.08135    0.01148     3.09244
      C   14   -0.09445      0.99960     2.08346    0.01139     3.09445
      H   15    0.09609      0.00000     0.40302    0.00089     0.40391
      H   16    0.09836      0.00000     0.40088    0.00076     0.40164
      H   17    0.09580      0.00000     0.40337    0.00082     0.40420
      H   18    0.09454      0.00000     0.40418    0.00128     0.40546
      H   19    0.09848      0.00000     0.40014    0.00138     0.40152
      H   20    0.09942      0.00000     0.39876    0.00182     0.40058
      H   21    0.09715      0.00000     0.40107    0.00178     0.40285
      H   22    0.10857      0.00000     0.38927    0.00216     0.39143
      H   23    0.09834      0.00000     0.40063    0.00103     0.40166
      H   24    0.10154      0.00000     0.39764    0.00082     0.39846
      H   25    0.10072      0.00000     0.39822    0.00105     0.39928
      H   26    0.10319      0.00000     0.39495    0.00187     0.39681
      H   27    0.09942      0.00000     0.39824    0.00234     0.40058
      H   28    0.10054      0.00000     0.39617    0.00329     0.39946
      H   29    0.10031      0.00000     0.39808    0.00161     0.39969
      H   30    0.09424      0.00000     0.40463    0.00113     0.40576
      H   31    0.09052      0.00000     0.40791    0.00157     0.40948
      H   32    0.17220      0.00000     0.32466    0.00314     0.32780
      H   33    0.09710      0.00000     0.40177    0.00113     0.40290
      H   34    0.09300      0.00000     0.40621    0.00080     0.40700
      H   35    0.10939      0.00000     0.38952    0.00109     0.39061
      H   36    0.09310      0.00000     0.40518    0.00172     0.40690
 =======================================================================
   * Total *    0.00000     13.99501    40.82342    0.18156    55.00000

 Normal termination of Gaussian 16 at Thu Dec 10 11:51:37 2020.
