 Gaussian 16, Revision A.03,

 -----------------------------------------------------------
 # opt freq B3LYP/6-31G(d) empiricaldispersion=gd3bj scf=xqc
 -----------------------------------------------------------

 -------------------------------
 CID_103131139_JID_2742_neutraal
 -------------------------------
 Symbolic Z-matrix:
 Charge =  0 Multiplicity = 1

 SCF Done:  E(RB3LYP) =  -553.357480659     A.U. after   14 cycles
 SCF Done:  E(RB3LYP) =  -553.359593263     A.U. after   12 cycles
 SCF Done:  E(RB3LYP) =  -553.359813962     A.U. after   14 cycles
 SCF Done:  E(RB3LYP) =  -553.361182647     A.U. after   12 cycles
 SCF Done:  E(RB3LYP) =  -553.361548373     A.U. after   12 cycles
 SCF Done:  E(RB3LYP) =  -553.361662295     A.U. after   11 cycles
 SCF Done:  E(RB3LYP) =  -553.361696874     A.U. after   11 cycles
 SCF Done:  E(RB3LYP) =  -553.361718798     A.U. after   11 cycles
 SCF Done:  E(RB3LYP) =  -553.361726590     A.U. after   10 cycles
 SCF Done:  E(RB3LYP) =  -553.361729272     A.U. after    9 cycles
 SCF Done:  E(RB3LYP) =  -553.361772956     A.U. after   10 cycles
 SCF Done:  E(RB3LYP) =  -553.361772329     A.U. after    9 cycles
 SCF Done:  E(RB3LYP) =  -553.361773319     A.U. after    9 cycles
 SCF Done:  E(RB3LYP) =  -553.361773260     A.U. after    8 cycles
 SCF Done:  E(RB3LYP) =  -553.361773338     A.U. after    8 cycles
 SCF Done:  E(RB3LYP) =  -553.361773368     A.U. after    7 cycles
 Optimization completed.
    -- Stationary point found.
 Normal termination of Gaussian 16 at Wed Dec  9 17:59:15 2020.

 --------------------------------------------------------------------
 #N Geom=AllCheck Guess=TCheck SCRF=Check GenChk RB3LYP/6-31G(d) Freq
 --------------------------------------------------------------------

 Structure from the checkpoint file:  "JID_2742.chk"
 -------------------------------
 CID_103131139_JID_2742_neutraal
 -------------------------------
 Charge =  0 Multiplicity = 1

 SCF Done:  E(RB3LYP) =  -553.361773368     A.U. after    1 cycles

  Exact polarizability: 119.983   6.803  94.584  -5.519   8.727  94.639
 Approx polarizability: 163.752  16.461 139.062  -9.400  20.517 146.098

                      1                      2                      3
                      A                      A                      A
 Frequencies --     33.0147                55.2088                68.1372
 Red. masses --      3.3457                 2.1091                 1.4327
 Frc consts  --      0.0021                 0.0038                 0.0039
 IR Inten    --      0.6995                 0.9105                 1.1735

                      4                      5                      6
                      A                      A                      A
 Frequencies --     98.8804               153.6388               172.4874
 Red. masses --      3.5827                 1.9964                 1.4100
 Frc consts  --      0.0206                 0.0278                 0.0247
 IR Inten    --      2.1506                 2.7439                 0.2419

                      7                      8                      9
                      A                      A                      A
 Frequencies --    181.7545               203.2379               262.3949
 Red. masses --      3.4314                 3.1589                 2.2354
 Frc consts  --      0.0668                 0.0769                 0.0907
 IR Inten    --      6.9504                 0.7302                 5.3592

                     10                     11                     12
                      A                      A                      A
 Frequencies --    272.4759               297.0495               311.8327
 Red. masses --      1.2182                 4.1891                 2.5561
 Frc consts  --      0.0533                 0.2178                 0.1464
 IR Inten    --      2.4976                 3.8811                 1.6187

                     13                     14                     15
                      A                      A                      A
 Frequencies --    333.3261               353.1845               405.8146
 Red. masses --      3.2434                 1.1335                 3.1543
 Frc consts  --      0.2123                 0.0833                 0.3061
 IR Inten    --      1.2340                60.4588                 2.1794

                     16                     17                     18
                      A                      A                      A
 Frequencies --    472.7840               551.0031               588.6847
 Red. masses --      3.5103                 3.9086                 2.9735
 Frc consts  --      0.4623                 0.6992                 0.6071
 IR Inten    --      9.8335                16.3829                 5.7761

                     19                     20                     21
                      A                      A                      A
 Frequencies --    621.2526               685.2318               716.7399
 Red. masses --      5.0479                 4.5716                 4.5664
 Frc consts  --      1.1479                 1.2647                 1.3821
 IR Inten    --      0.1338                18.2642                11.8052

                     22                     23                     24
                      A                      A                      A
 Frequencies --    753.3320               780.3965               819.3437
 Red. masses --      1.2691                 3.2437                 2.1271
 Frc consts  --      0.4243                 1.1639                 0.8413
 IR Inten    --     40.9903                 5.4247                10.6595

                     25                     26                     27
                      A                      A                      A
 Frequencies --    832.6533               901.4887               940.8600
 Red. masses --      1.4133                 2.2200                 1.7837
 Frc consts  --      0.5773                 1.0630                 0.9303
 IR Inten    --      6.1076                17.0258               213.6958

                     28                     29                     30
                      A                      A                      A
 Frequencies --   1009.5585              1023.0147              1027.4861
 Red. masses --      2.6802                 2.4303                 4.3859
 Frc consts  --      1.6095                 1.4986                 2.7281
 IR Inten    --      1.3067                10.7629                20.9861

                     31                     32                     33
                      A                      A                      A
 Frequencies --   1063.7938              1092.7390              1097.8279
 Red. masses --      1.5467                 1.4708                 1.8010
 Frc consts  --      1.0312                 1.0348                 1.2789
 IR Inten    --     18.9738                18.4798                10.6808

                     34                     35                     36
                      A                      A                      A
 Frequencies --   1117.9440              1123.5575              1160.8087
 Red. masses --      1.7539                 2.3844                 1.3072
 Frc consts  --      1.2915                 1.7734                 1.0378
 IR Inten    --     39.9481                10.3401                 4.4683

                     37                     38                     39
                      A                      A                      A
 Frequencies --   1185.4435              1200.1389              1231.5114
 Red. masses --      1.4230                 2.3831                 1.5552
 Frc consts  --      1.1782                 2.0224                 1.3897
 IR Inten    --     15.2186                62.4251                 4.5400

                     40                     41                     42
                      A                      A                      A
 Frequencies --   1237.7838              1249.4274              1324.2385
 Red. masses --      1.7213                 1.7360                 1.6065
 Frc consts  --      1.5538                 1.5967                 1.6598
 IR Inten    --     14.6268                31.4259                 9.0354

                     43                     44                     45
                      A                      A                      A
 Frequencies --   1332.6235              1369.1789              1388.1363
 Red. masses --      3.3098                 1.7618                 1.5618
 Frc consts  --      3.4631                 1.9459                 1.7731
 IR Inten    --     12.8438                 7.6020                 1.5156

                     46                     47                     48
                      A                      A                      A
 Frequencies --   1417.0345              1427.5017              1441.4942
 Red. masses --      1.5951                 1.6101                 1.2857
 Frc consts  --      1.8871                 1.9331                 1.5740
 IR Inten    --      4.2042                38.9467                15.5588

                     49                     50                     51
                      A                      A                      A
 Frequencies --   1451.6208              1475.8977              1502.3742
 Red. masses --      4.2280                 1.3416                 1.1365
 Frc consts  --      5.2492                 1.7218                 1.5114
 IR Inten    --     17.4964                 7.3067                 1.6507

                     52                     53                     54
                      A                      A                      A
 Frequencies --   1506.1809              1512.2707              1517.9481
 Red. masses --      1.0549                 2.3878                 1.0657
 Frc consts  --      1.4100                 3.2175                 1.4468
 IR Inten    --      8.0176                 2.2969                 1.5082

                     55                     56                     57
                      A                      A                      A
 Frequencies --   1525.0783              1532.1897              1544.4244
 Red. masses --      1.0665                 1.0591                 1.0591
 Frc consts  --      1.4615                 1.4649                 1.4884
 IR Inten    --      1.9642                 2.6358                 8.1273

                     58                     59                     60
                      A                      A                      A
 Frequencies --   1549.0878              1571.0284              1688.7239
 Red. masses --      1.2463                 4.6608                 1.0890
 Frc consts  --      1.7621                 6.7776                 1.8297
 IR Inten    --      7.9003                25.6153                27.0830

                     61                     62                     63
                      A                      A                      A
 Frequencies --   3028.3069              3043.6523              3063.0686
 Red. masses --      1.0378                 1.0833                 1.0426
 Frc consts  --      5.6076                 5.9128                 5.7633
 IR Inten    --     58.6011                19.2437                17.4991

                     64                     65                     66
                      A                      A                      A
 Frequencies --   3067.1558              3070.9702              3094.6952
 Red. masses --      1.0355                 1.0800                 1.0968
 Frc consts  --      5.7394                 6.0009                 6.1891
 IR Inten    --     57.5962                31.7015                38.0974

                     67                     68                     69
                      A                      A                      A
 Frequencies --   3127.6564              3129.7700              3137.3456
 Red. masses --      1.1023                 1.1038                 1.1018
 Frc consts  --      6.3533                 6.3703                 6.3899
 IR Inten    --     39.2771                21.6149                15.4369

                     70                     71                     72
                      A                      A                      A
 Frequencies --   3151.2291              3165.8339              3266.5188
 Red. masses --      1.1010                 1.1055                 1.0914
 Frc consts  --      6.4414                 6.5284                 6.8614
 IR Inten    --     21.1699                 9.4512                 2.0000

                     73                     74                     75
                      A                      A                      A
 Frequencies --   3286.6226              3465.9444              3555.1026
 Red. masses --      1.1034                 1.0489                 1.0925
 Frc consts  --      7.0222                 7.4242                 8.1352
 IR Inten    --      1.8233                 4.3379                 0.7951

 - Thermochemistry -
 -------------------
 Temperature   298.150 Kelvin.  Pressure   1.00000 Atm.
 Atom     1 has atomic number  6 and mass  12.00000

 Molecular mass:   169.12151 amu.
 Principal axes and moments of inertia in atomic units:
                           1         2         3
     Eigenvalues --  1231.952922818.740523019.73343
           X            0.99999   0.00057  -0.00432
           Y           -0.00039   0.99910   0.04249
           Z            0.00434  -0.04249   0.99909
 This molecule is an asymmetric top.
 Rotational symmetry number  1.
 Warning -- assumption of classical behavior for rotation
           may cause significant error
 Rotational temperatures (Kelvin)      0.07031     0.03073     0.02868
 Rotational constants (GHZ):           1.46494     0.64027     0.59765
 Zero-point vibrational energy     618577.9 (Joules/Mol)
                                  147.84367 (Kcal/Mol)
 Warning -- explicit consideration of  18 degrees of freedom as
           vibrations may cause significant error
 Vibrational temperatures:     47.50    79.43    98.03   142.27   221.05
          (Kelvin)            248.17   261.50   292.41   377.53   392.03
                              427.39   448.66   479.58   508.15   583.88
                              680.23   792.77   846.99   893.84   985.90
                             1031.23  1083.88  1122.82  1178.85  1198.00
                             1297.04  1353.69  1452.53  1471.89  1478.32
                             1530.56  1572.21  1579.53  1608.47  1616.55
                             1670.14  1705.59  1726.73  1771.87  1780.89
                             1797.65  1905.28  1917.35  1969.94  1997.22
                             2038.80  2053.86  2073.99  2088.56  2123.49
                             2161.58  2167.06  2175.82  2183.99  2194.25
                             2204.48  2222.08  2228.79  2260.36  2429.70
                             4357.06  4379.14  4407.07  4412.95  4418.44
                             4452.58  4500.00  4503.04  4513.94  4533.92
                             4554.93  4699.79  4728.72  4986.72  5115.00

 Zero-point correction=                           0.235604 (Hartree/Particle)
 Thermal correction to Energy=                    0.248677
 Thermal correction to Enthalpy=                  0.249621
 Thermal correction to Gibbs Free Energy=         0.195598
 Sum of electronic and zero-point Energies=           -553.126169
 Sum of electronic and thermal Energies=              -553.113097
 Sum of electronic and thermal Enthalpies=            -553.112152
 Sum of electronic and thermal Free Energies=         -553.166175

                     E (Thermal)             CV                S
                      KCal/Mol        Cal/Mol-Kelvin    Cal/Mol-Kelvin
 Total                  156.047             47.740            113.701
 Electronic               0.000              0.000              0.000
 Translational            0.889              2.981             41.284
 Rotational               0.889              2.981             30.729
 Vibrational            154.270             41.779             41.688
 Vibration     1          0.594              1.983              5.640
 Vibration     2          0.596              1.975              4.622
 Vibration     3          0.598              1.969              4.206
 Vibration     4          0.604              1.950              3.476
 Vibration     5          0.619              1.899              2.627
 Vibration     6          0.626              1.876              2.408
 Vibration     7          0.630              1.865              2.310
 Vibration     8          0.639              1.835              2.104
 Vibration     9          0.670              1.742              1.646
 Vibration    10          0.675              1.724              1.580
 Vibration    11          0.691              1.679              1.433
 Vibration    12          0.700              1.651              1.353
 Vibration    13          0.715              1.609              1.244
 Vibration    14          0.729              1.569              1.152
 Vibration    15          0.771              1.458              0.942
 Vibration    16          0.830              1.310              0.730
 Vibration    17          0.906              1.137              0.542
 Vibration    18          0.946              1.056              0.470

 Optimization completed.
    -- Stationary point found.
 Normal termination of Gaussian 16 at Wed Dec  9 18:05:22 2020.

 ----------------------------------------------------------------------
 # B3LYP/6-311++G(d,p) empiricaldispersion=gd3bj scf=xqc pop=npa geom=c
 heck
 ----------------------------------------------------------------------

 ---------------------------------------
 CID_103131139_JID_2742_Energie_neutraal
 ---------------------------------------
 Structure from the checkpoint file:  "JID_2742.chk"
 Charge =  0 Multiplicity = 1

 SCF Done:  E(RB3LYP) =  -553.524913102     A.U. after   15 cycles
 Normal termination of Gaussian 16 at Wed Dec  9 18:08:27 2020.

 ----------------------------------------------------------------------
 # B3LYP/6-311++G(d,p) empiricaldispersion=gd3bj scf=xqc pop=npa geom=c
 heck
 ----------------------------------------------------------------------

 -------------------------------------
 CID_103131139_JID_2742_Energie_kation
 -------------------------------------
 Structure from the checkpoint file:  "JID_2742.chk"
 Charge =  1 Multiplicity = 2

 SCF Done:  E(UB3LYP) =  -553.223417404     A.U. after   28 cycles
 Normal termination of Gaussian 16 at Wed Dec  9 18:15:18 2020.
 Gaussian 16:  ES64L-G16RevA.03 25-Dec-2016

 ----------------------------------------------------------------------
 # B3LYP/6-311++G(d,p) empiricaldispersion=gd3bj scf=xqc pop=npa geom=c
 heck
 ----------------------------------------------------------------------

 ------------------------------------
 CID_103131139_JID_2742_Energie_anion
 ------------------------------------
 Structure from the checkpoint file:  "JID_2742.chk"
 Charge = -1 Multiplicity = 2

                         Standard orientation:
 ---------------------------------------------------------------------
 Center     Atomic      Atomic             Coordinates (Angstroms)
 Number     Number       Type             X           Y           Z
 ---------------------------------------------------------------------
      1          6           0        1.610507   -1.754835   -0.973076
      2          6           0        2.002432   -0.351305   -0.525383
      3          6           0        0.993154    0.744742   -0.952892
      4          6           0       -0.376550    0.591197   -0.331701
      5          7           0       -1.266830   -0.277495   -0.825986
      6          7           0       -2.350003   -0.174238   -0.020512
      7          6           0       -2.174884    0.750232    0.960160
      8          6           0       -0.905940    1.271424    0.793550
      9          6           0       -3.542524   -0.934731   -0.330163
     10          7           0        1.628982    2.036563   -0.678866
     11          8           0        2.306574   -0.231971    0.871779
     12          6           0        1.558752   -1.021394    1.781988
     13          1           0        0.631409   -2.054242   -0.591199
     14          1           0        2.363142   -2.482781   -0.652917
     15          1           0        1.555109   -1.781099   -2.066274
     16          1           0        2.942832   -0.073327   -1.014267
     17          1           0        0.873956    0.643846   -2.039663
     18          1           0       -2.952518    0.961776    1.680391
     19          1           0       -0.419855    2.017753    1.403637
     20          1           0       -4.041964   -0.531615   -1.217373
     21          1           0       -3.267442   -1.974764   -0.519680
     22          1           0       -4.224186   -0.887842    0.521799
     23          1           0        0.947914    2.787285   -0.775313
     24          1           0        1.933934    2.031535    0.294112
     25          1           0        0.478230   -0.860540    1.699417
     26          1           0        1.768750   -2.093367    1.665856
     27          1           0        1.883370   -0.712646    2.779879
 ---------------------------------------------------------------------

 SCF Done:  E(UB3LYP) =  -553.511940731     A.U. after   31 cycles

 The electronic state is 2-A.
 Alpha  occ. eigenvalues --  -19.02889 -14.28786 -14.22329 -14.19925 -10.12921
 Alpha  occ. eigenvalues --  -10.10992 -10.10887 -10.10235 -10.10179 -10.09210
 Alpha  occ. eigenvalues --  -10.06735 -10.06265  -0.94727  -0.93749  -0.79921
 Alpha  occ. eigenvalues --   -0.73950  -0.68374  -0.67507  -0.60977  -0.59950
 Alpha  occ. eigenvalues --   -0.56345  -0.50304  -0.47917  -0.45237  -0.42434
 Alpha  occ. eigenvalues --   -0.40756  -0.39306  -0.37863  -0.36988  -0.34937
 Alpha  occ. eigenvalues --   -0.34541  -0.33124  -0.33097  -0.31194  -0.30071
 Alpha  occ. eigenvalues --   -0.29565  -0.28938  -0.28246  -0.26834  -0.25958
 Alpha  occ. eigenvalues --   -0.21547  -0.19335  -0.17829  -0.15565  -0.14981
 Alpha  occ. eigenvalues --   -0.13730   0.04509
 Alpha virt. eigenvalues --    0.06863   0.07268   0.07819   0.08850   0.09178
 Alpha virt. eigenvalues --    0.09866   0.10121   0.10369   0.11620   0.11864
 Alpha virt. eigenvalues --    0.12597   0.12825   0.13728   0.13798   0.14324

  Beta  occ. eigenvalues --  -19.02886 -14.28787 -14.22319 -14.19921 -10.12920
  Beta  occ. eigenvalues --  -10.10970 -10.10885 -10.10202 -10.10112 -10.09210
  Beta  occ. eigenvalues --  -10.06723 -10.06257  -0.94717  -0.93742  -0.79914
  Beta  occ. eigenvalues --   -0.73929  -0.68347  -0.67492  -0.60923  -0.59919
  Beta  occ. eigenvalues --   -0.56303  -0.50276  -0.47859  -0.45202  -0.42373
  Beta  occ. eigenvalues --   -0.40744  -0.39286  -0.37840  -0.36956  -0.34919
  Beta  occ. eigenvalues --   -0.34505  -0.33095  -0.33043  -0.31173  -0.30050
  Beta  occ. eigenvalues --   -0.29510  -0.28901  -0.28225  -0.26820  -0.25943
  Beta  occ. eigenvalues --   -0.21533  -0.19319  -0.17820  -0.15559  -0.14964
  Beta  occ. eigenvalues --   -0.13720
  Beta virt. eigenvalues --    0.06707   0.07637   0.08025   0.08121   0.09416
  Beta virt. eigenvalues --    0.09908   0.10177   0.10282   0.10615   0.12095
  Beta virt. eigenvalues --    0.12460   0.12971   0.13342   0.13658   0.14199

 Mulliken charges and spin densities:
               1          2
     1  C   -0.048893  -0.641612
     2  C   -0.626926   0.689811
     3  C    1.010707  -1.481686
     4  C   -0.516067  -0.155395
     5  N   -0.547485   0.439969
     6  N    0.183051   0.037816
     7  C   -0.252072  -0.109626
     8  C    0.847332  -0.627732
     9  C    1.842023  -2.119346
    10  N   -0.222618   0.019774
    11  O   -0.184668   0.017681
    12  C    0.266306  -0.608538
    13  H    0.097774   0.116256
    14  H   -0.023772   0.159443
    15  H    0.088900   0.036814
    16  H    0.171247   0.052381
    17  H    0.193929   0.040567
    18  H   -1.656184   1.847933
    19  H   -0.166433   0.347550
    20  H   -0.464745   0.645241
    21  H   -0.435918   0.603183
    22  H   -0.812617   0.975055
    23  H    0.173865   0.047755
    24  H    0.211759   0.047369
    25  H    0.129898   0.082696
    26  H   -0.084639   0.212259
    27  H   -0.173755   0.324381
 Sum of Mulliken charges =  -1.00000   1.00000

 Dipole moment (field-independent basis, Debye):
    X=              9.0546    Y=              1.0923    Z=             -3.3076  Tot=              9.7015
 Quadrupole moment (field-independent basis, Debye-Ang):
   XX=           -160.7532   YY=           -108.3104   ZZ=           -112.3405
   XY=             -5.0974   XZ=              9.3944   YZ=             -0.5280

 Summary of Natural Population Analysis:

                                       Natural Population
                Natural  -----------------------------------------------
    Atom  No    Charge         Core      Valence    Rydberg      Total
 -----------------------------------------------------------------------
      C    1   -0.30669      0.99964     2.30184    0.00521     3.30669
      C    2    0.07470      0.99953     1.91217    0.01360     2.92530
      C    3   -0.03552      0.99953     2.02338    0.01262     3.03552
      C    4    0.06045      0.99955     1.92237    0.01762     2.93955
      N    5   -0.16269      0.99969     2.65144    0.01156     3.66269
      N    6   -0.10354      0.99967     2.58978    0.01408     3.60354
      C    7    0.00306      0.99954     1.98434    0.01306     2.99694
      C    8   -0.17111      0.99950     2.16033    0.01127     3.17111
      C    9   -0.17087      0.99963     2.16238    0.00886     3.17087
      N   10   -0.42053      0.99978     2.91240    0.00835     3.92053
      O   11   -0.31111      0.99988     3.30123    0.01000     4.31111
      C   12   -0.10256      0.99960     2.09269    0.01028     3.10256
      H   13    0.11175      0.00000     0.38686    0.00138     0.38825
      H   14    0.09945      0.00000     0.39975    0.00080     0.40055
      H   15    0.10429      0.00000     0.39484    0.00087     0.39571
      H   16    0.09155      0.00000     0.40705    0.00140     0.40845
      H   17    0.09898      0.00000     0.39938    0.00164     0.40102
      H   18    0.11075      0.00000     0.38397    0.00529     0.38925
      H   19    0.10970      0.00000     0.38912    0.00118     0.39030
      H   20    0.09959      0.00000     0.39839    0.00203     0.40041
      H   21    0.10422      0.00000     0.39372    0.00206     0.39578
      H   22    0.10750      0.00000     0.38631    0.00619     0.39250
      H   23    0.17443      0.00000     0.32378    0.00179     0.32557
      H   24    0.17848      0.00000     0.31911    0.00241     0.32152
      H   25    0.08878      0.00000     0.40922    0.00200     0.41122
      H   26    0.07785      0.00000     0.42089    0.00125     0.42215
      H   27    0.08908      0.00000     0.40992    0.00100     0.41092
 =======================================================================
   * Total *   -0.00000     11.99554    33.83665    0.16781    46.00000

 Normal termination of Gaussian 16 at Wed Dec  9 18:22:03 2020.
