 Gaussian 16, Revision A.03,

 -----------------------------------------------------------
 # opt freq B3LYP/6-31G(d) empiricaldispersion=gd3bj scf=xqc
 -----------------------------------------------------------

 ------------------------------
 CID_54297567_JID_4185_neutraal
 ------------------------------
 Symbolic Z-matrix:
 Charge =  0 Multiplicity = 1

 SCF Done:  E(RB3LYP) =  -690.421808433     A.U. after   15 cycles
 SCF Done:  E(RB3LYP) =  -690.431573003     A.U. after   13 cycles
 SCF Done:  E(RB3LYP) =  -690.432457134     A.U. after   13 cycles
 SCF Done:  E(RB3LYP) =  -690.431988765     A.U. after   13 cycles
 SCF Done:  E(RB3LYP) =  -690.433338177     A.U. after   11 cycles
 SCF Done:  E(RB3LYP) =  -690.433526369     A.U. after   12 cycles
 SCF Done:  E(RB3LYP) =  -690.433623751     A.U. after   13 cycles
 SCF Done:  E(RB3LYP) =  -690.433972810     A.U. after   12 cycles
 SCF Done:  E(RB3LYP) =  -690.434527344     A.U. after   14 cycles
 SCF Done:  E(RB3LYP) =  -690.434630950     A.U. after   14 cycles
 SCF Done:  E(RB3LYP) =  -690.436719247     A.U. after   10 cycles
 SCF Done:  E(RB3LYP) =  -690.436722354     A.U. after    9 cycles
 SCF Done:  E(RB3LYP) =  -690.436722722     A.U. after    8 cycles
 SCF Done:  E(RB3LYP) =  -690.436722575     A.U. after    9 cycles
 SCF Done:  E(RB3LYP) =  -690.436722524     A.U. after    8 cycles
 SCF Done:  E(RB3LYP) =  -690.436722452     A.U. after    8 cycles
 Optimization completed.
    -- Stationary point found.
 Normal termination of Gaussian 16 at Thu Dec 10 09:26:32 2020.

 --------------------------------------------------------------------
 #N Geom=AllCheck Guess=TCheck SCRF=Check GenChk RB3LYP/6-31G(d) Freq
 --------------------------------------------------------------------

 Structure from the checkpoint file:  "JID_4185.chk"
 ------------------------------
 CID_54297567_JID_4185_neutraal
 ------------------------------
 Charge =  0 Multiplicity = 1

 SCF Done:  E(RB3LYP) =  -690.436722452     A.U. after    1 cycles

  Exact polarizability: 128.113  -6.148 104.207   3.491  -8.288 101.761
 Approx polarizability: 167.036 -22.978 167.779  15.842 -21.364 163.654

                      1                      2                      3
                      A                      A                      A
 Frequencies --     30.3924                39.1508                47.7392
 Red. masses --      4.1148                 4.2224                 5.9813
 Frc consts  --      0.0022                 0.0038                 0.0080
 IR Inten    --      2.7298                 0.5210                 3.4545

                      4                      5                      6
                      A                      A                      A
 Frequencies --     53.3728                76.6178                81.0413
 Red. masses --      6.2380                 4.1444                 4.3957
 Frc consts  --      0.0105                 0.0143                 0.0170
 IR Inten    --      7.6924                 2.5937                 0.2877

                      7                      8                      9
                      A                      A                      A
 Frequencies --    119.7072               142.1455               173.5973
 Red. masses --      2.4938                 8.2993                 2.5623
 Frc consts  --      0.0211                 0.0988                 0.0455
 IR Inten    --      0.8785                 1.4396                 1.4692

                     10                     11                     12
                      A                      A                      A
 Frequencies --    182.2988               199.9514               263.3182
 Red. masses --      1.3528                 2.3870                 2.3453
 Frc consts  --      0.0265                 0.0562                 0.0958
 IR Inten    --      1.3703                 0.7130                 3.1401

                     13                     14                     15
                      A                      A                      A
 Frequencies --    279.5664               299.6136               356.2436
 Red. masses --      4.2624                 1.4697                 3.2527
 Frc consts  --      0.1963                 0.0777                 0.2432
 IR Inten    --      0.8391                 0.6498                 2.4512

                     16                     17                     18
                      A                      A                      A
 Frequencies --    399.5724               414.3875               467.4113
 Red. masses --      2.2520                 2.2421                 3.0152
 Frc consts  --      0.2118                 0.2268                 0.3881
 IR Inten    --      1.8798                 1.1192                 1.6839

                     19                     20                     21
                      A                      A                      A
 Frequencies --    496.4624               523.3457               527.2939
 Red. masses --      4.0889                 3.8737                 2.9621
 Frc consts  --      0.5938                 0.6251                 0.4852
 IR Inten    --      3.3350                11.1306                 5.8706

                     22                     23                     24
                      A                      A                      A
 Frequencies --    589.7446               638.1202               697.2966
 Red. masses --      4.7267                 4.6471                 2.5917
 Frc consts  --      0.9686                 1.1149                 0.7425
 IR Inten    --     11.8931                 7.6243                 2.0274

                     25                     26                     27
                      A                      A                      A
 Frequencies --    726.3718               749.3469               788.8165
 Red. masses --      2.0332                 3.2556                 1.5229
 Frc consts  --      0.6321                 1.0771                 0.5583
 IR Inten    --      5.3462                11.3744                32.4517

                     28                     29                     30
                      A                      A                      A
 Frequencies --    828.6470               842.5322               872.3767
 Red. masses --      3.2198                 2.8413                 2.8678
 Frc consts  --      1.3026                 1.1883                 1.2859
 IR Inten    --      1.6405                 7.9127                 9.9813

                     31                     32                     33
                      A                      A                      A
 Frequencies --    907.4592               916.2372               942.6258
 Red. masses --      1.4469                 1.7845                 2.6564
 Frc consts  --      0.7020                 0.8826                 1.3906
 IR Inten    --      2.7161                18.8144                22.2153

                     34                     35                     36
                      A                      A                      A
 Frequencies --    961.9803              1009.6756              1032.8711
 Red. masses --      2.6436                 1.3926                 2.4947
 Frc consts  --      1.4414                 0.8365                 1.5681
 IR Inten    --     15.2977                19.6854               324.9735

                     37                     38                     39
                      A                      A                      A
 Frequencies --   1043.6458              1064.9257              1071.9638
 Red. masses --      1.9670                 1.9488                 2.2783
 Frc consts  --      1.2623                 1.3021                 1.5425
 IR Inten    --     72.2153                 0.2454                 9.2708

                     40                     41                     42
                      A                      A                      A
 Frequencies --   1105.5674              1133.9449              1147.9731
 Red. masses --      1.7155                 1.6361                 1.4834
 Frc consts  --      1.2354                 1.2395                 1.1518
 IR Inten    --     87.2524                54.3382                28.4340

                     43                     44                     45
                      A                      A                      A
 Frequencies --   1204.3126              1255.7748              1284.3061
 Red. masses --      2.7388                 1.5420                 1.6369
 Frc consts  --      2.3404                 1.4327                 1.5908
 IR Inten    --    230.3270                22.8845                49.3951

                     46                     47                     48
                      A                      A                      A
 Frequencies --   1307.2254              1310.4864              1341.3224
 Red. masses --      1.4528                 1.6525                 2.1147
 Frc consts  --      1.4627                 1.6721                 2.2417
 IR Inten    --     62.8209               134.1978                21.8750

                     49                     50                     51
                      A                      A                      A
 Frequencies --   1388.6690              1395.3689              1413.0859
 Red. masses --      1.4333                 1.4632                 1.3251
 Frc consts  --      1.6285                 1.6785                 1.5590
 IR Inten    --      9.8424                 4.1095                41.1828

                     52                     53                     54
                      A                      A                      A
 Frequencies --   1454.3284              1472.8702              1489.6654
 Red. masses --      1.2404                 1.2184                 1.0810
 Frc consts  --      1.5457                 1.5573                 1.4133
 IR Inten    --      2.6199                21.0066                12.2384

                     55                     56                     57
                      A                      A                      A
 Frequencies --   1500.5357              1501.4567              1514.5440
 Red. masses --      1.0769                 1.0516                 1.0932
 Frc consts  --      1.4286                 1.3967                 1.4774
 IR Inten    --     12.4929                10.3255                 3.3784

                     58                     59                     60
                      A                      A                      A
 Frequencies --   1519.1316              1533.0187              1549.0444
 Red. masses --      1.0810                 1.0566                 1.0494
 Frc consts  --      1.4698                 1.4631                 1.4836
 IR Inten    --      3.2008                 4.9889                 5.4768

                     61                     62                     63
                      A                      A                      A
 Frequencies --   1704.6859              1804.3516              1827.3577
 Red. masses --      4.6010                11.7253                10.4988
 Frc consts  --      7.8775                22.4914                20.6555
 IR Inten    --      5.9265               263.3610                92.0253

                     64                     65                     66
                      A                      A                      A
 Frequencies --   1869.4341              3034.7601              3052.0564
 Red. masses --     12.7086                 1.0606                 1.0376
 Frc consts  --     26.1678                 5.7548                 5.6944
 IR Inten    --    250.9402                30.0215                 1.9534

                     67                     68                     69
                      A                      A                      A
 Frequencies --   3054.8484              3061.4849              3072.9962
 Red. masses --      1.0382                 1.0713                 1.0913
 Frc consts  --      5.7082                 5.9158                 6.0716
 IR Inten    --     21.1458                13.0474                49.8397

                     70                     71                     72
                      A                      A                      A
 Frequencies --   3104.0460              3112.3461              3113.0623
 Red. masses --      1.0600                 1.1031                 1.0983
 Frc consts  --      6.0177                 6.2954                 6.2710
 IR Inten    --      1.6205                 9.4804                 3.5552

                     73                     74                     75
                      A                      A                      A
 Frequencies --   3118.6329              3139.4078              3174.2373
 Red. masses --      1.1021                 1.1015                 1.1030
 Frc consts  --      6.3154                 6.3962                 6.5476
 IR Inten    --     37.0036                14.4031                 6.6827

                     76                     77                     78
                      A                      A                      A
 Frequencies --   3177.7291              3178.2684              3269.5569
 Red. masses --      1.0721                 1.0962                 1.1152
 Frc consts  --      6.3787                 6.5240                 7.0237
 IR Inten    --      9.6892                 1.0463                 1.9174

 - Thermochemistry -
 -------------------
 Temperature   298.150 Kelvin.  Pressure   1.00000 Atm.
 Atom     1 has atomic number  6 and mass  12.00000

 Molecular mass:   198.08921 amu.
 Principal axes and moments of inertia in atomic units:
                           1         2         3
     Eigenvalues --  1581.384924529.943284609.16494
           X            0.99986   0.01661  -0.00258
           Y           -0.01626   0.99461   0.10239
           Z            0.00426  -0.10233   0.99474
 This molecule is an asymmetric top.
 Rotational symmetry number  1.
 Warning -- assumption of classical behavior for rotation
           may cause significant error
 Rotational temperatures (Kelvin)      0.05477     0.01912     0.01879
 Rotational constants (GHZ):           1.14124     0.39840     0.39155
 Zero-point vibrational energy     601421.1 (Joules/Mol)
                                  143.74310 (Kcal/Mol)
 Warning -- explicit consideration of  22 degrees of freedom as
           vibrations may cause significant error
 Vibrational temperatures:     43.73    56.33    68.69    76.79   110.24
          (Kelvin)            116.60   172.23   204.52   249.77   262.29
                              287.69   378.86   402.23   431.08   512.56
                              574.90   596.21   672.50   714.30   752.98
                              758.66   848.51   918.11  1003.25  1045.09
                             1078.14  1134.93  1192.24  1212.22  1255.16
                             1305.63  1318.26  1356.23  1384.08  1452.70
                             1486.07  1501.57  1532.19  1542.32  1590.66
                             1631.49  1651.68  1732.74  1806.78  1847.83
                             1880.81  1885.50  1929.86  1997.98  2007.62
                             2033.12  2092.45  2119.13  2143.30  2158.94
                             2160.26  2179.09  2185.69  2205.67  2228.73
                             2452.66  2596.06  2629.16  2689.70  4366.34
                             4391.23  4395.25  4404.79  4421.36  4466.03
                             4477.97  4479.00  4487.02  4516.91  4567.02
                             4572.04  4572.82  4704.16

 Zero-point correction=                           0.229069 (Hartree/Particle)
 Thermal correction to Energy=                    0.244601
 Thermal correction to Enthalpy=                  0.245545
 Thermal correction to Gibbs Free Energy=         0.184287
 Sum of electronic and zero-point Energies=           -690.207653
 Sum of electronic and thermal Energies=              -690.192122
 Sum of electronic and thermal Enthalpies=            -690.191177
 Sum of electronic and thermal Free Energies=         -690.252435

                     E (Thermal)             CV                S
                      KCal/Mol        Cal/Mol-Kelvin    Cal/Mol-Kelvin
 Total                  153.489             54.848            128.928
 Electronic               0.000              0.000              0.000
 Translational            0.889              2.981             41.756
 Rotational               0.889              2.981             31.868
 Vibrational            151.712             48.886             55.304
 Vibration     1          0.594              1.984              5.804
 Vibration     2          0.594              1.981              5.302
 Vibration     3          0.595              1.978              4.909
 Vibration     4          0.596              1.976              4.688
 Vibration     5          0.599              1.965              3.976
 Vibration     6          0.600              1.962              3.865
 Vibration     7          0.609              1.933              3.105
 Vibration     8          0.616              1.911              2.775
 Vibration     9          0.627              1.875              2.396
 Vibration    10          0.630              1.864              2.305
 Vibration    11          0.638              1.840              2.134
 Vibration    12          0.670              1.740              1.640
 Vibration    13          0.680              1.711              1.536
 Vibration    14          0.692              1.674              1.419
 Vibration    15          0.732              1.562              1.138
 Vibration    16          0.766              1.471              0.964
 Vibration    17          0.778              1.439              0.911
 Vibration    18          0.825              1.322              0.745
 Vibration    19          0.852              1.258              0.667
 Vibration    20          0.878              1.198              0.602
 Vibration    21          0.882              1.190              0.593
 Vibration    22          0.947              1.054              0.468

 Optimization completed.
    -- Stationary point found.
 Normal termination of Gaussian 16 at Thu Dec 10 09:33:30 2020.

 ----------------------------------------------------------------------
 # B3LYP/6-311++G(d,p) empiricaldispersion=gd3bj scf=xqc pop=npa geom=c
 heck
 ----------------------------------------------------------------------

 --------------------------------------
 CID_54297567_JID_4185_Energie_neutraal
 --------------------------------------
 Structure from the checkpoint file:  "JID_4185.chk"
 Charge =  0 Multiplicity = 1

 SCF Done:  E(RB3LYP) =  -690.639941405     A.U. after   15 cycles
 Normal termination of Gaussian 16 at Thu Dec 10 09:36:11 2020.

 ----------------------------------------------------------------------
 # B3LYP/6-311++G(d,p) empiricaldispersion=gd3bj scf=xqc pop=npa geom=c
 heck
 ----------------------------------------------------------------------

 ------------------------------------
 CID_54297567_JID_4185_Energie_kation
 ------------------------------------
 Structure from the checkpoint file:  "JID_4185.chk"
 Charge =  1 Multiplicity = 2

 SCF Done:  E(UB3LYP) =  -690.293611530     A.U. after   27 cycles
 Normal termination of Gaussian 16 at Thu Dec 10 09:42:45 2020.
 Gaussian 16:  ES64L-G16RevA.03 25-Dec-2016

 ----------------------------------------------------------------------
 # B3LYP/6-311++G(d,p) empiricaldispersion=gd3bj scf=xqc pop=npa geom=c
 heck
 ----------------------------------------------------------------------

 -----------------------------------
 CID_54297567_JID_4185_Energie_anion
 -----------------------------------
 Structure from the checkpoint file:  "JID_4185.chk"
 Charge = -1 Multiplicity = 2

                         Standard orientation:
 ---------------------------------------------------------------------
 Center     Atomic      Atomic             Coordinates (Angstroms)
 Number     Number       Type             X           Y           Z
 ---------------------------------------------------------------------
      1          6           0        2.867914    0.484492    1.766557
      2          6           0        3.195229    1.316783    0.524253
      3          6           0        2.932077    0.596131   -0.814497
      4          6           0        1.479925    0.229680   -1.019495
      5          6           0        0.592263    1.037750   -1.618665
      6          6           0        1.070578   -1.106653   -0.534874
      7          8           0        1.794762   -1.994941   -0.184351
      8          8           0       -0.337632   -1.345926   -0.596574
      9          6           0       -1.079933   -0.906538    0.447890
     10          8           0       -0.620552   -0.428680    1.459727
     11          6           0       -2.560946   -1.010798    0.144751
     12          6           0       -3.051897    0.425320   -0.129064
     13          8           0       -2.980221    0.894457   -1.246470
     14          6           0       -3.538918    1.195236    1.072690
     15          1           0        1.800151    0.254406    1.830739
     16          1           0        3.147584    1.027305    2.676362
     17          1           0        3.411989   -0.466573    1.757954
     18          1           0        2.613460    2.248310    0.539976
     19          1           0        4.253080    1.609444    0.543181
     20          1           0        3.248694    1.246363   -1.637565
     21          1           0        3.539283   -0.313715   -0.862098
     22          1           0       -0.449443    0.772404   -1.760168
     23          1           0        0.906097    2.005883   -2.000053
     24          1           0       -2.731731   -1.624864   -0.739504
     25          1           0       -3.062358   -1.434651    1.018532
     26          1           0       -4.434252    0.716741    1.488958
     27          1           0       -2.766914    1.164670    1.851214
     28          1           0       -3.764236    2.226579    0.796543
 ---------------------------------------------------------------------

 SCF Done:  E(UB3LYP) =  -690.657219306     A.U. after   28 cycles

 The electronic state is 2-A.
 Alpha  occ. eigenvalues --  -19.02711 -18.98774 -18.98245 -18.94454 -10.17649
 Alpha  occ. eigenvalues --  -10.13480 -10.12083 -10.06964 -10.06483 -10.04434
 Alpha  occ. eigenvalues --  -10.03625 -10.02762 -10.02560 -10.00422  -0.97949
 Alpha  occ. eigenvalues --   -0.92355  -0.90930  -0.86864  -0.67777  -0.66795
 Alpha  occ. eigenvalues --   -0.62628  -0.61504  -0.54966  -0.51883  -0.47647
 Alpha  occ. eigenvalues --   -0.43791  -0.42223  -0.38567  -0.36668  -0.35962
 Alpha  occ. eigenvalues --   -0.34800  -0.33825  -0.32787  -0.31870  -0.31589
 Alpha  occ. eigenvalues --   -0.30977  -0.29229  -0.28974  -0.27586  -0.26933
 Alpha  occ. eigenvalues --   -0.26235  -0.25450  -0.24558  -0.23615  -0.22514
 Alpha  occ. eigenvalues --   -0.21809  -0.20977  -0.19908  -0.18031  -0.15642
 Alpha  occ. eigenvalues --   -0.13586  -0.12399  -0.12181   0.04308
 Alpha virt. eigenvalues --    0.07087   0.08074   0.08923   0.10337   0.10518
 Alpha virt. eigenvalues --    0.11184   0.11740   0.11952   0.12577   0.13078
 Alpha virt. eigenvalues --    0.13411   0.14044   0.14432   0.15130   0.15504

  Beta  occ. eigenvalues --  -19.02719 -18.98618 -18.98182 -18.94014 -10.17533
  Beta  occ. eigenvalues --  -10.13247 -10.11740 -10.06989 -10.06501 -10.04431
  Beta  occ. eigenvalues --  -10.03627 -10.02760 -10.02552 -10.00013  -0.97782
  Beta  occ. eigenvalues --   -0.92018  -0.90554  -0.86403  -0.67586  -0.66588
  Beta  occ. eigenvalues --   -0.62343  -0.61374  -0.54777  -0.51291  -0.47290
  Beta  occ. eigenvalues --   -0.43329  -0.41860  -0.38303  -0.36468  -0.35727
  Beta  occ. eigenvalues --   -0.34650  -0.33687  -0.32412  -0.31669  -0.31262
  Beta  occ. eigenvalues --   -0.30822  -0.28971  -0.28771  -0.27426  -0.26748
  Beta  occ. eigenvalues --   -0.26020  -0.25096  -0.23903  -0.23156  -0.22125
  Beta  occ. eigenvalues --   -0.20975  -0.20573  -0.19637  -0.17852  -0.15551
  Beta  occ. eigenvalues --   -0.13434  -0.11889  -0.10431
  Beta virt. eigenvalues --    0.07587   0.08646   0.09094   0.10282   0.10570
  Beta virt. eigenvalues --    0.11004   0.11304   0.11746   0.11935   0.12556
  Beta virt. eigenvalues --    0.13221   0.13770   0.14041   0.14327   0.15130

 Mulliken charges and spin densities:
               1          2
     1  C   -0.616181   0.002561
     2  C   -0.147141  -0.000479
     3  C   -0.561262  -0.069360
     4  C    0.996468  -0.014578
     5  C   -0.514239   0.436544
     6  C   -0.532444   0.187989
     7  O   -0.306403   0.150781
     8  O    0.012103  -0.004873
     9  C   -0.004428  -0.003556
    10  O   -0.211246   0.017754
    11  C   -0.423383  -0.007569
    12  C    0.338960   0.114157
    13  O   -0.291418   0.059234
    14  C   -0.613346  -0.010761
    15  H    0.206937   0.000291
    16  H    0.098869   0.002463
    17  H    0.132007  -0.002075
    18  H    0.115755  -0.001428
    19  H    0.085481   0.005937
    20  H    0.074249   0.053382
    21  H    0.170946   0.008422
    22  H    0.175606  -0.013807
    23  H    0.098663  -0.025333
    24  H    0.157743   0.056021
    25  H    0.129119   0.020923
    26  H    0.111027   0.022489
    27  H    0.179745   0.011734
    28  H    0.137813   0.003133
 Sum of Mulliken charges =  -1.00000   1.00000

 Dipole moment (field-independent basis, Debye):
    X=             -2.0870    Y=              1.3543    Z=              2.4497  Tot=              3.4915
 Quadrupole moment (field-independent basis, Debye-Ang):
   XX=           -109.6278   YY=           -102.3539   ZZ=           -103.8220
   XY=              9.6663   XZ=             -6.3386   YZ=              2.6410

 Summary of Natural Population Analysis:

                                       Natural Population
                Natural  -----------------------------------------------
    Atom  No    Charge         Core      Valence    Rydberg      Total
 -----------------------------------------------------------------------
      C    1   -0.29250      0.99966     2.28829    0.00455     3.29250
      C    2   -0.18043      0.99964     2.17517    0.00562     3.18043
      C    3   -0.19772      0.99960     2.18737    0.01076     3.19772
      C    4   -0.08928      0.99946     2.07764    0.01219     3.08928
      C    5   -0.07356      0.99953     2.06598    0.00805     3.07356
      C    6    0.43533      0.99955     1.53961    0.02551     2.56467
      O    7   -0.24975      0.99986     3.24458    0.00531     4.24975
      O    8   -0.29495      0.99985     3.28640    0.00871     4.29495
      C    9    0.41989      0.99969     1.55244    0.02798     2.58011
      O   10   -0.30490      0.99986     3.29969    0.00534     4.30490
      C   11   -0.28043      0.99955     2.27145    0.00943     3.28043
      C   12    0.32081      0.99971     1.65956    0.01992     2.67919
      O   13   -0.27298      0.99987     3.26555    0.00756     4.27298
      C   14   -0.33677      0.99962     2.33316    0.00399     3.33677
      H   15    0.11632      0.00000     0.38283    0.00085     0.38368
      H   16    0.08599      0.00000     0.41306    0.00094     0.41401
      H   17    0.09755      0.00000     0.40162    0.00083     0.40245
      H   18    0.09131      0.00000     0.40763    0.00105     0.40869
      H   19    0.08186      0.00000     0.41618    0.00196     0.41814
      H   20    0.09221      0.00000     0.40611    0.00168     0.40779
      H   21    0.10466      0.00000     0.39388    0.00146     0.39534
      H   22    0.09903      0.00000     0.39992    0.00105     0.40097
      H   23    0.07745      0.00000     0.42162    0.00092     0.42255
      H   24    0.11802      0.00000     0.38068    0.00130     0.38198
      H   25    0.10652      0.00000     0.39232    0.00116     0.39348
      H   26    0.10232      0.00000     0.39679    0.00089     0.39768
      H   27    0.11957      0.00000     0.37952    0.00091     0.38043
      H   28    0.10441      0.00000     0.39442    0.00117     0.39559
 =======================================================================
   * Total *    0.00000     13.99546    38.83344    0.17110    53.00000

 Normal termination of Gaussian 16 at Thu Dec 10 09:49:29 2020.
