 Gaussian 16, Revision A.03,

 -----------------------------------------------------------
 # opt freq B3LYP/6-31G(d) empiricaldispersion=gd3bj scf=xqc
 -----------------------------------------------------------

 -------------------------------
 CID_116325445_JID_6630_neutraal
 -------------------------------
 Symbolic Z-matrix:
 Charge =  0 Multiplicity = 1

 SCF Done:  E(RB3LYP) =  -653.861805299     A.U. after   15 cycles
 SCF Done:  E(RB3LYP) =  -653.867660756     A.U. after   13 cycles
 SCF Done:  E(RB3LYP) =  -653.867210078     A.U. after   13 cycles
 SCF Done:  E(RB3LYP) =  -653.868349356     A.U. after   12 cycles
 SCF Done:  E(RB3LYP) =  -653.868781016     A.U. after   12 cycles
 SCF Done:  E(RB3LYP) =  -653.868929846     A.U. after   11 cycles
 SCF Done:  E(RB3LYP) =  -653.868966102     A.U. after   10 cycles
 SCF Done:  E(RB3LYP) =  -653.868982400     A.U. after   10 cycles
 SCF Done:  E(RB3LYP) =  -653.868997353     A.U. after   10 cycles
 SCF Done:  E(RB3LYP) =  -653.869034685     A.U. after   11 cycles
 SCF Done:  E(RB3LYP) =  -653.869230950     A.U. after    8 cycles
 SCF Done:  E(RB3LYP) =  -653.869231139     A.U. after    8 cycles
 SCF Done:  E(RB3LYP) =  -653.869231182     A.U. after    8 cycles
 SCF Done:  E(RB3LYP) =  -653.869231213     A.U. after    7 cycles
 SCF Done:  E(RB3LYP) =  -653.869231277     A.U. after    8 cycles
 Optimization completed.
    -- Stationary point found.
 Normal termination of Gaussian 16 at Fri Dec 11 00:15:36 2020.

 --------------------------------------------------------------------
 #N Geom=AllCheck Guess=TCheck SCRF=Check GenChk RB3LYP/6-31G(d) Freq
 --------------------------------------------------------------------

 Structure from the checkpoint file:  "JID_6630.chk"
 -------------------------------
 CID_116325445_JID_6630_neutraal
 -------------------------------
 Charge =  0 Multiplicity = 1

 SCF Done:  E(RB3LYP) =  -653.869231277     A.U. after    1 cycles

  Exact polarizability: 202.610  10.601 160.811  17.408  -3.638 108.000
 Approx polarizability: 288.771  25.736 273.846  35.391  -6.866 151.949

                      1                      2                      3
                      A                      A                      A
 Frequencies --     13.4416                57.5445                64.3831
 Red. masses --      4.5728                 1.0495                 3.7267
 Frc consts  --      0.0005                 0.0020                 0.0091
 IR Inten    --      1.8890                 0.0919                 0.6091

                      4                      5                      6
                      A                      A                      A
 Frequencies --     71.6856                92.8402               134.5576
 Red. masses --      2.5857                 5.2442                 2.4976
 Frc consts  --      0.0078                 0.0266                 0.0266
 IR Inten    --      0.1602                 1.4287                 0.4236

                      7                      8                      9
                      A                      A                      A
 Frequencies --    145.5696               164.5020               187.3151
 Red. masses --      3.7146                 6.7090                 3.3530
 Frc consts  --      0.0464                 0.1070                 0.0693
 IR Inten    --      2.0837                 6.5126                 0.0616

                     10                     11                     12
                      A                      A                      A
 Frequencies --    203.9873               240.0046               251.7262
 Red. masses --      2.7647                 1.8425                 2.6708
 Frc consts  --      0.0678                 0.0625                 0.0997
 IR Inten    --      0.4300                 1.0997                 0.1373

                     13                     14                     15
                      A                      A                      A
 Frequencies --    260.3713               311.9268               328.1241
 Red. masses --      1.9331                 3.0127                 2.6473
 Frc consts  --      0.0772                 0.1727                 0.1679
 IR Inten    --      1.2692                 2.5102                 0.3724

                     16                     17                     18
                      A                      A                      A
 Frequencies --    391.6011               401.6972               433.4436
 Red. masses --      2.2873                 1.5582                 3.0926
 Frc consts  --      0.2067                 0.1481                 0.3423
 IR Inten    --     26.5441                57.2240                 6.9146

                     19                     20                     21
                      A                      A                      A
 Frequencies --    454.7415               459.2454               540.0789
 Red. masses --      3.7038                 3.7811                 5.7877
 Frc consts  --      0.4513                 0.4698                 0.9947
 IR Inten    --      7.4983                 0.1208                 3.1336

                     22                     23                     24
                      A                      A                      A
 Frequencies --    555.1249               588.9988               603.2797
 Red. masses --      4.6522                 2.5111                 3.7158
 Frc consts  --      0.8447                 0.5133                 0.7968
 IR Inten    --      4.0534                 8.5799                 4.7602

                     25                     26                     27
                      A                      A                      A
 Frequencies --    633.0995               677.6615               715.1682
 Red. masses --      3.3099                 4.8730                 4.6203
 Frc consts  --      0.7816                 1.3185                 1.3923
 IR Inten    --      3.1856                 0.2047                 2.1270

                     28                     29                     30
                      A                      A                      A
 Frequencies --    730.9355               761.5026               770.5933
 Red. masses --      3.9356                 1.6168                 4.5142
 Frc consts  --      1.2389                 0.5524                 1.5794
 IR Inten    --      2.7595                 0.3118                 4.2940

                     31                     32                     33
                      A                      A                      A
 Frequencies --    797.3976               806.2229               854.1024
 Red. masses --      1.2113                 1.2995                 1.4781
 Frc consts  --      0.4538                 0.4977                 0.6353
 IR Inten    --      0.6525                23.3267                11.7133

                     34                     35                     36
                      A                      A                      A
 Frequencies --    897.0989               917.9131               944.7534
 Red. masses --      2.2896                 2.1028                 2.3053
 Frc consts  --      1.0857                 1.0439                 1.2123
 IR Inten    --      1.6770                 2.7487                 1.4176

                     37                     38                     39
                      A                      A                      A
 Frequencies --    951.5479               956.3470               965.1785
 Red. masses --      1.2774                 1.8828                 2.1434
 Frc consts  --      0.6815                 1.0146                 1.1765
 IR Inten    --      0.2192                 0.9582                 0.3344

                     40                     41                     42
                      A                      A                      A
 Frequencies --    991.1762              1010.7230              1036.8639
 Red. masses --      1.8118                 1.3087                 1.7053
 Frc consts  --      1.0487                 0.7877                 1.0802
 IR Inten    --      1.2465                 2.3848                 1.6432

                     43                     44                     45
                      A                      A                      A
 Frequencies --   1052.5637              1072.3109              1079.6258
 Red. masses --      2.0677                 1.5224                 2.2246
 Frc consts  --      1.3497                 1.0314                 1.5277
 IR Inten    --      2.3230                 5.0232                10.5361

                     46                     47                     48
                      A                      A                      A
 Frequencies --   1138.1160              1158.1285              1164.6621
 Red. masses --      2.1112                 2.5723                 1.7937
 Frc consts  --      1.6112                 2.0328                 1.4335
 IR Inten    --      0.9673                 5.2198                 6.3372

                     49                     50                     51
                      A                      A                      A
 Frequencies --   1205.3845              1214.7735              1219.1050
 Red. masses --      2.0510                 2.4255                 1.6962
 Frc consts  --      1.7558                 2.1089                 1.4853
 IR Inten    --     17.7476                 7.6768                 4.0872

                     52                     53                     54
                      A                      A                      A
 Frequencies --   1233.9195              1261.8441              1271.8359
 Red. masses --      1.8250                 1.3497                 1.3593
 Frc consts  --      1.6371                 1.2662                 1.2954
 IR Inten    --     34.4971                 0.6052                 0.0971

                     55                     56                     57
                      A                      A                      A
 Frequencies --   1279.7030              1293.9028              1300.3888
 Red. masses --      1.1549                 1.4385                 2.3604
 Frc consts  --      1.1143                 1.4190                 2.3517
 IR Inten    --      1.6484                 2.6546                17.8244

                     58                     59                     60
                      A                      A                      A
 Frequencies --   1302.9793              1305.8330              1357.6075
 Red. masses --      1.6376                 1.6406                 1.3853
 Frc consts  --      1.6381                 1.6482                 1.5044
 IR Inten    --     17.9457                22.1990                12.6124

                     61                     62                     63
                      A                      A                      A
 Frequencies --   1375.6322              1401.1498              1413.9313
 Red. masses --      1.5189                 1.6827                 2.3561
 Frc consts  --      1.6935                 1.9463                 2.7752
 IR Inten    --      4.4636                 3.3133                48.4618

                     64                     65                     66
                      A                      A                      A
 Frequencies --   1437.3523              1441.6049              1454.1276
 Red. masses --      1.2639                 1.2571                 2.0357
 Frc consts  --      1.5385                 1.5393                 2.5361
 IR Inten    --      8.0830                 0.0532                 8.4485

                     67                     68                     69
                      A                      A                      A
 Frequencies --   1506.3560              1512.3537              1515.4811
 Red. masses --      1.0926                 1.0442                 1.0894
 Frc consts  --      1.4608                 1.4072                 1.4742
 IR Inten    --      0.9115                 5.5786                 2.1648

                     70                     71                     72
                      A                      A                      A
 Frequencies --   1519.5723              1524.6476              1528.5011
 Red. masses --      1.1491                 1.0656                 1.0634
 Frc consts  --      1.5634                 1.4594                 1.4638
 IR Inten    --      0.8634                 9.3674                 3.0045

                     73                     74                     75
                      A                      A                      A
 Frequencies --   1540.3491              1549.4422              1576.9714
 Red. masses --      1.1929                 2.2794                 2.3525
 Frc consts  --      1.6676                 3.2241                 3.4468
 IR Inten    --     21.9885               151.1353               204.7068

                     76                     77                     78
                      A                      A                      A
 Frequencies --   1620.6996              1677.2289              2324.8693
 Red. masses --      3.3212                 5.5492                12.6687
 Frc consts  --      5.1398                 9.1975                40.3440
 IR Inten    --     24.1615               189.3487                74.2959

                     79                     80                     81
                      A                      A                      A
 Frequencies --   3044.9556              3047.5264              3051.8111
 Red. masses --      1.0430                 1.0372                 1.0717
 Frc consts  --      5.6976                 5.6755                 5.8810
 IR Inten    --      9.8165                28.3092                30.8280

                     82                     83                     84
                      A                      A                      A
 Frequencies --   3055.5568              3070.8325              3089.2824
 Red. masses --      1.0697                 1.0596                 1.0618
 Frc consts  --      5.8842                 5.8870                 5.9706
 IR Inten    --     33.2170                50.5594                21.0234

                     85                     86                     87
                      A                      A                      A
 Frequencies --   3100.8713              3107.1005              3110.5673
 Red. masses --      1.1007                 1.1035                 1.0947
 Frc consts  --      6.2356                 6.2768                 6.2408
 IR Inten    --     16.0583                26.5819                18.9326

                     88                     89                     90
                      A                      A                      A
 Frequencies --   3121.9228              3131.3028              3136.8237
 Red. masses --      1.1072                 1.1014                 1.1034
 Frc consts  --      6.3578                 6.3630                 6.3970
 IR Inten    --     48.0419                15.6054                26.1170

                     91                     92                     93
                      A                      A                      A
 Frequencies --   3144.7488              3148.0999              3164.7097
 Red. masses --      1.0863                 1.1071                 1.0894
 Frc consts  --      6.3296                 6.4643                 6.4282
 IR Inten    --     11.4043                33.3365                19.8216

                     94                     95                     96
                      A                      A                      A
 Frequencies --   3196.4722              3215.1016              3606.4390
 Red. masses --      1.0875                 1.0954                 1.0754
 Frc consts  --      6.5467                 6.6711                 8.2413
 IR Inten    --      4.7161                10.1590                20.6617

 - Thermochemistry -
 -------------------
 Temperature   298.150 Kelvin.  Pressure   1.00000 Atm.
 Atom     1 has atomic number  6 and mass  12.00000

 Molecular mass:   214.14700 amu.
 Principal axes and moments of inertia in atomic units:
                           1         2         3
     Eigenvalues --  2216.078745267.431915830.38842
           X            0.99998   0.00251   0.00496
           Y           -0.00236   0.99955  -0.02983
           Z           -0.00503   0.02982   0.99954
 This molecule is an asymmetric top.
 Rotational symmetry number  1.
 Warning -- assumption of classical behavior for rotation
           may cause significant error
 Rotational temperatures (Kelvin)      0.03908     0.01644     0.01486
 Rotational constants (GHZ):           0.81438     0.34262     0.30954
 Zero-point vibrational energy     770105.3 (Joules/Mol)
                                  184.05959 (Kcal/Mol)
 Warning -- explicit consideration of  24 degrees of freedom as
           vibrations may cause significant error
 Vibrational temperatures:     19.34    82.79    92.63   103.14   133.58
          (Kelvin)            193.60   209.44   236.68   269.50   293.49
                              345.31   362.18   374.62   448.79   472.10
                              563.43   577.95   623.63   654.27   660.75
                              777.05   798.70   847.44   867.98   910.89
                              975.00  1028.97  1051.65  1095.63  1108.71
                             1147.28  1159.97  1228.86  1290.73  1320.67
                             1359.29  1369.07  1375.97  1388.68  1426.08
                             1454.20  1491.82  1514.40  1542.82  1553.34
                             1637.50  1666.29  1675.69  1734.28  1747.79
                             1754.02  1775.33  1815.51  1829.89  1841.21
                             1861.64  1870.97  1874.70  1878.80  1953.29
                             1979.23  2015.94  2034.33  2068.03  2074.15
                             2092.17  2167.31  2175.94  2180.44  2186.33
                             2193.63  2199.17  2216.22  2229.30  2268.91
                             2331.83  2413.16  3344.97  4381.01  4384.71
                             4390.88  4396.26  4418.24  4444.79  4461.46
                             4470.42  4475.41  4491.75  4505.25  4513.19
                             4524.59  4529.41  4553.31  4599.01  4625.81
                             5188.86

 Zero-point correction=                           0.293318 (Hartree/Particle)
 Thermal correction to Energy=                    0.309318
 Thermal correction to Enthalpy=                  0.310262
 Thermal correction to Gibbs Free Energy=         0.248752
 Sum of electronic and zero-point Energies=           -653.575914
 Sum of electronic and thermal Energies=              -653.559914
 Sum of electronic and thermal Enthalpies=            -653.558969
 Sum of electronic and thermal Free Energies=         -653.620479

                     E (Thermal)             CV                S
                      KCal/Mol        Cal/Mol-Kelvin    Cal/Mol-Kelvin
 Total                  194.100             60.570            129.457
 Electronic               0.000              0.000              0.000
 Translational            0.889              2.981             41.988
 Rotational               0.889              2.981             32.587
 Vibrational            192.322             54.608             54.883
 Vibration     1          0.593              1.987              7.423
 Vibration     2          0.596              1.974              4.540
 Vibration     3          0.597              1.971              4.318
 Vibration     4          0.598              1.968              4.107
 Vibration     5          0.602              1.954              3.599
 Vibration     6          0.613              1.919              2.880
 Vibration     7          0.617              1.907              2.729
 Vibration     8          0.623              1.886              2.497
 Vibration     9          0.632              1.857              2.254
 Vibration    10          0.640              1.834              2.097
 Vibration    11          0.657              1.779              1.803
 Vibration    12          0.664              1.760              1.718
 Vibration    13          0.668              1.745              1.659
 Vibration    14          0.700              1.651              1.352
 Vibration    15          0.711              1.619              1.269
 Vibration    16          0.759              1.488              0.994
 Vibration    17          0.767              1.466              0.956
 Vibration    18          0.794              1.397              0.847
 Vibration    19          0.813              1.350              0.782
 Vibration    20          0.817              1.340              0.768
 Vibration    21          0.895              1.161              0.565
 Vibration    22          0.911              1.128              0.534
 Vibration    23          0.946              1.055              0.469
 Vibration    24          0.962              1.025              0.444

 Optimization completed.
    -- Stationary point found.
 Normal termination of Gaussian 16 at Fri Dec 11 00:28:49 2020.

 ----------------------------------------------------------------------
 # B3LYP/6-311++G(d,p) empiricaldispersion=gd3bj scf=xqc pop=npa geom=c
 heck
 ----------------------------------------------------------------------

 ---------------------------------------
 CID_116325445_JID_6630_Energie_neutraal
 ---------------------------------------
 Structure from the checkpoint file:  "JID_6630.chk"
 Charge =  0 Multiplicity = 1

 SCF Done:  E(RB3LYP) =  -654.042239850     A.U. after   16 cycles
 Normal termination of Gaussian 16 at Fri Dec 11 00:35:36 2020.

 ----------------------------------------------------------------------
 # B3LYP/6-311++G(d,p) empiricaldispersion=gd3bj scf=xqc pop=npa geom=c
 heck
 ----------------------------------------------------------------------

 -------------------------------------
 CID_116325445_JID_6630_Energie_kation
 -------------------------------------
 Structure from the checkpoint file:  "JID_6630.chk"
 Charge =  1 Multiplicity = 2

 SCF Done:  E(UB3LYP) =  -653.767193536     A.U. after   23 cycles
 Normal termination of Gaussian 16 at Fri Dec 11 00:49:41 2020.
 Gaussian 16:  ES64L-G16RevA.03 25-Dec-2016

 ----------------------------------------------------------------------
 # B3LYP/6-311++G(d,p) empiricaldispersion=gd3bj scf=xqc pop=npa geom=c
 heck
 ----------------------------------------------------------------------

 ------------------------------------
 CID_116325445_JID_6630_Energie_anion
 ------------------------------------
 Structure from the checkpoint file:  "JID_6630.chk"
 Charge = -1 Multiplicity = 2

                         Standard orientation:
 ---------------------------------------------------------------------
 Center     Atomic      Atomic             Coordinates (Angstroms)
 Number     Number       Type             X           Y           Z
 ---------------------------------------------------------------------
      1          6           0       -4.252986   -1.735457   -0.410701
      2          6           0       -3.149146   -0.729643   -0.202505
      3          6           0       -1.884743   -1.136267    0.189238
      4          6           0       -0.811156   -0.235700    0.401128
      5          6           0       -1.076915    1.144676    0.184419
      6          6           0       -2.372539    1.549487   -0.209812
      7          6           0       -3.394681    0.643343   -0.401974
      8          6           0       -0.105302    2.180632    0.313893
      9          7           0        0.643504    3.070614    0.390720
     10          7           0        0.383106   -0.773063    0.801100
     11          6           0        1.651518   -0.127973    1.135699
     12          6           0        2.299233   -0.907500    2.284543
     13          6           0        2.602826   -0.027491   -0.063435
     14          6           0        3.059661   -1.328714   -0.779889
     15          6           0        3.021825   -0.548078   -2.119092
     16          6           0        2.103682    0.497969   -1.435912
     17          1           0       -3.910075   -2.757367   -0.224297
     18          1           0       -4.637948   -1.688808   -1.436528
     19          1           0       -5.098357   -1.534405    0.258413
     20          1           0       -1.696306   -2.196113    0.349178
     21          1           0       -2.542855    2.610018   -0.365834
     22          1           0       -4.379235    0.983812   -0.707707
     23          1           0        0.393780   -1.782326    0.845702
     24          1           0        1.429099    0.879120    1.489320
     25          1           0        2.508833   -1.942788    1.985530
     26          1           0        3.251220   -0.447837    2.567853
     27          1           0        1.646326   -0.927118    3.162614
     28          1           0        3.481608    0.548365    0.253028
     29          1           0        4.005081   -1.784788   -0.469839
     30          1           0        2.274074   -2.093634   -0.749899
     31          1           0        2.632870   -1.069592   -2.998939
     32          1           0        4.002261   -0.128028   -2.366674
     33          1           0        1.048320    0.256189   -1.592629
     34          1           0        2.257379    1.556734   -1.655632
 ---------------------------------------------------------------------

 SCF Done:  E(UB3LYP) =  -654.034840598     A.U. after   33 cycles
 SCF Done:  E(UB3LYP) =  -654.034840597     a.u. after    1 cycles

 The electronic state is 2-A.
 Alpha  occ. eigenvalues --  -14.22142 -14.18135 -10.11942 -10.10613 -10.08585
 Alpha  occ. eigenvalues --  -10.07934 -10.07023 -10.06649 -10.06619 -10.06566
 Alpha  occ. eigenvalues --  -10.06541 -10.06539 -10.06367 -10.05799 -10.05331
 Alpha  occ. eigenvalues --  -10.05157  -0.84085  -0.78350  -0.75098  -0.73657
 Alpha  occ. eigenvalues --   -0.67820  -0.66839  -0.61432  -0.59724  -0.56864
 Alpha  occ. eigenvalues --   -0.55395  -0.51770  -0.50917  -0.48770  -0.45080
 Alpha  occ. eigenvalues --   -0.43437  -0.40799  -0.38538  -0.38036  -0.36821
 Alpha  occ. eigenvalues --   -0.34612  -0.33177  -0.32096  -0.31664  -0.31239
 Alpha  occ. eigenvalues --   -0.30490  -0.28913  -0.28743  -0.28627  -0.27782
 Alpha  occ. eigenvalues --   -0.27063  -0.25648  -0.24730  -0.24119  -0.23717
 Alpha  occ. eigenvalues --   -0.23090  -0.21778  -0.21284  -0.20663  -0.19664
 Alpha  occ. eigenvalues --   -0.18760  -0.13918  -0.09452   0.04443
 Alpha virt. eigenvalues --    0.06329   0.06900   0.07749   0.08014   0.08883
 Alpha virt. eigenvalues --    0.09439   0.09869   0.10109   0.10429   0.11006
 Alpha virt. eigenvalues --    0.11367   0.11607   0.11892   0.12863   0.13296

  Beta  occ. eigenvalues --  -14.22108 -14.18010 -10.11917 -10.10612 -10.08568
  Beta  occ. eigenvalues --  -10.07857 -10.07017 -10.06641 -10.06591 -10.06558
  Beta  occ. eigenvalues --  -10.06389 -10.06342 -10.06320 -10.05799 -10.05396
  Beta  occ. eigenvalues --  -10.05111  -0.84008  -0.78160  -0.75000  -0.73520
  Beta  occ. eigenvalues --   -0.67652  -0.66641  -0.61305  -0.59591  -0.56827
  Beta  occ. eigenvalues --   -0.55359  -0.51657  -0.50812  -0.48549  -0.45020
  Beta  occ. eigenvalues --   -0.43357  -0.40671  -0.38476  -0.37995  -0.36761
  Beta  occ. eigenvalues --   -0.34534  -0.33080  -0.31820  -0.31556  -0.31200
  Beta  occ. eigenvalues --   -0.30403  -0.28812  -0.28691  -0.28550  -0.27686
  Beta  occ. eigenvalues --   -0.26862  -0.25510  -0.24598  -0.24027  -0.23570
  Beta  occ. eigenvalues --   -0.22771  -0.21702  -0.21197  -0.20503  -0.19574
  Beta  occ. eigenvalues --   -0.18527  -0.12998  -0.09136
  Beta virt. eigenvalues --    0.06770   0.07185   0.07926   0.08231   0.08473
  Beta virt. eigenvalues --    0.08965   0.09695   0.10108   0.10288   0.10522
  Beta virt. eigenvalues --    0.11216   0.11575   0.11735   0.11972   0.12944

 Mulliken charges and spin densities:
               1          2
     1  C    0.872122  -1.432034
     2  C   -0.296479   0.922823
     3  C    0.011655  -0.310660
     4  C    0.503546  -0.611047
     5  C    1.570051  -0.202601
     6  C   -0.493129   0.157768
     7  C   -1.467249   0.864948
     8  C   -0.759778  -0.372560
     9  N   -0.287652   0.075011
    10  N   -0.099713   0.165526
    11  C   -0.280054   0.247405
    12  C    0.783918  -1.299022
    13  C   -0.798772   1.125722
    14  C    0.363914  -0.851271
    15  C   -0.195546  -0.238378
    16  C   -0.226122  -0.209972
    17  H   -0.211725   0.353169
    18  H   -0.034312   0.192579
    19  H    0.149687  -0.009010
    20  H   -0.555791   0.654464
    21  H    0.150125   0.007545
    22  H    0.048319   0.077212
    23  H    0.174468   0.089504
    24  H    0.283066  -0.088914
    25  H   -0.278684   0.437724
    26  H   -0.052119   0.190950
    27  H   -0.041988   0.207022
    28  H    0.116966   0.086500
    29  H   -0.216867   0.362560
    30  H   -0.134039   0.267643
    31  H    0.006671   0.139219
    32  H    0.063427   0.049875
    33  H    0.193920  -0.075540
    34  H    0.138167   0.025842
 Sum of Mulliken charges =  -1.00000   1.00000

 Dipole moment (field-independent basis, Debye):
    X=             -0.9308    Y=              1.8405    Z=             -0.2464  Tot=              2.0771
 Quadrupole moment (field-independent basis, Debye-Ang):
   XX=           -146.9327   YY=           -152.1582   ZZ=           -124.4916
   XY=             -0.9297   XZ=             -5.1022   YZ=             -1.6026

 Summary of Natural Population Analysis:

                                       Natural Population
                Natural  -----------------------------------------------
    Atom  No    Charge         Core      Valence    Rydberg      Total
 -----------------------------------------------------------------------
      C    1   -0.29425      0.99964     2.28916    0.00545     3.29425
      C    2    0.03897      0.99952     1.95312    0.00839     2.96103
      C    3   -0.12231      0.99948     2.11340    0.00943     3.12231
      C    4    0.12920      0.99948     1.85982    0.01149     2.87080
      C    5   -0.12607      0.99938     2.11862    0.00806     3.12607
      C    6   -0.03675      0.99955     2.02777    0.00943     3.03675
      C    7   -0.14774      0.99951     2.13846    0.00977     3.14774
      C    8    0.15265      0.99963     1.82912    0.01861     2.84735
      N    9   -0.18941      0.99979     2.67962    0.01000     3.68941
      N   10   -0.30459      0.99966     2.79355    0.01138     3.80459
      C   11   -0.01542      0.99955     2.00415    0.01172     3.01542
      C   12   -0.28455      0.99965     2.27938    0.00552     3.28455
      C   13   -0.10610      0.99958     2.09526    0.01126     3.10610
      C   14   -0.19122      0.99963     2.18326    0.00833     3.19122
      C   15   -0.18899      0.99965     2.18112    0.00821     3.18899
      C   16   -0.18969      0.99963     2.18185    0.00822     3.18969
      H   17    0.10198      0.00000     0.39721    0.00081     0.39802
      H   18    0.10429      0.00000     0.39457    0.00115     0.39571
      H   19    0.10018      0.00000     0.39902    0.00080     0.39982
      H   20    0.09597      0.00000     0.40229    0.00174     0.40403
      H   21    0.09823      0.00000     0.40103    0.00073     0.40177
      H   22    0.09611      0.00000     0.40309    0.00081     0.40389
      H   23    0.18864      0.00000     0.30842    0.00294     0.31136
      H   24    0.10907      0.00000     0.38878    0.00215     0.39093
      H   25    0.09931      0.00000     0.39932    0.00137     0.40069
      H   26    0.10050      0.00000     0.39871    0.00079     0.39950
      H   27    0.10226      0.00000     0.39694    0.00080     0.39774
      H   28    0.09635      0.00000     0.40257    0.00108     0.40365
      H   29    0.09563      0.00000     0.40318    0.00119     0.40437
      H   30    0.09744      0.00000     0.40063    0.00193     0.40256
      H   31    0.09418      0.00000     0.40502    0.00080     0.40582
      H   32    0.09124      0.00000     0.40776    0.00100     0.40876
      H   33    0.10305      0.00000     0.39541    0.00153     0.39695
      H   34    0.10185      0.00000     0.39732    0.00083     0.39815
 =======================================================================
   * Total *   -0.00000     15.99333    41.82895    0.17772    58.00000

 Normal termination of Gaussian 16 at Fri Dec 11 01:10:16 2020.
