 Gaussian 16, Revision A.03,

 -----------------------------------------------------------
 # opt freq B3LYP/6-31G(d) empiricaldispersion=gd3bj scf=xqc
 -----------------------------------------------------------

 -------------------------------
 CID_137096263_JID_3116_neutraal
 -------------------------------
 Symbolic Z-matrix:
 Charge =  0 Multiplicity = 1

 SCF Done:  E(RB3LYP) =  -569.216901419     A.U. after   14 cycles
 SCF Done:  E(RB3LYP) =  -569.218550576     A.U. after   12 cycles
 SCF Done:  E(RB3LYP) =  -569.218887992     A.U. after   11 cycles
 SCF Done:  E(RB3LYP) =  -569.219150408     A.U. after   11 cycles
 SCF Done:  E(RB3LYP) =  -569.219360546     A.U. after   12 cycles
 SCF Done:  E(RB3LYP) =  -569.219509264     A.U. after   10 cycles
 SCF Done:  E(RB3LYP) =  -569.219559236     A.U. after   10 cycles
 SCF Done:  E(RB3LYP) =  -569.219580165     A.U. after   11 cycles
 SCF Done:  E(RB3LYP) =  -569.219587342     A.U. after    9 cycles
 SCF Done:  E(RB3LYP) =  -569.219602136     A.U. after   11 cycles
 SCF Done:  E(RB3LYP) =  -569.219612529     A.U. after   10 cycles
 SCF Done:  E(RB3LYP) =  -569.219616180     A.U. after   10 cycles
 SCF Done:  E(RB3LYP) =  -569.219617608     A.U. after    9 cycles
 SCF Done:  E(RB3LYP) =  -569.219618490     A.U. after    8 cycles
 SCF Done:  E(RB3LYP) =  -569.219618726     A.U. after    9 cycles
 SCF Done:  E(RB3LYP) =  -569.219618848     A.U. after    8 cycles
 Optimization completed.
    -- Stationary point found.

 1\1\GINC-NODE204\FOpt\RB3LYP\6-31G(d)\C9H12N4\VSC10255\09-Dec-2020\0\\
 # opt freq B3LYP/6-31G(d) empiricaldispersion=gd3bj scf=xqc\\CID_13709
 6263_JID_3116_neutraal\\0,1\C,0.7542755287,-0.1946099306,0.1119232494\
 C,1.2185520374,-1.6389848888,-0.0829925328\C,2.2140296735,-2.103007017
 8,1.0010814569\C,1.6450522589,-2.061260237,2.3824984845\N,1.9813919444
 ,-1.2194675626,3.3435504861\C,1.1630900524,-1.5109054331,4.4100788178\
 C,0.3050550961,-2.5460883998,4.1052926691\N,0.639110352,-2.8974477212,
 2.8013104273\C,-0.7220013149,-3.2191401832,4.8690475616\C,-1.615269202

 Normal termination of Gaussian 16 at Wed Dec  9 22:26:51 2020.

 --------------------------------------------------------------------
 #N Geom=AllCheck Guess=TCheck SCRF=Check GenChk RB3LYP/6-31G(d) Freq
 --------------------------------------------------------------------

 Structure from the checkpoint file:  "JID_3116.chk"
 -------------------------------
 CID_137096263_JID_3116_neutraal
 -------------------------------
 Charge =  0 Multiplicity = 1

 SCF Done:  E(RB3LYP) =  -569.219618848     A.U. after    1 cycles

  Exact polarizability: 172.079  -5.131 104.218  16.033  10.599  78.338
 Approx polarizability: 234.527 -21.182 183.253  28.617  23.704 119.122

                      1                      2                      3
                      A                      A                      A
 Frequencies --     20.8484                48.3782                78.6091
 Red. masses --      3.4948                 3.8172                 3.3949
 Frc consts  --      0.0009                 0.0053                 0.0124
 IR Inten    --      0.3429                 0.2036                 2.2051

                      4                      5                      6
                      A                      A                      A
 Frequencies --     89.8399               104.8523               149.8355
 Red. masses --      3.4602                 3.9505                 2.0851
 Frc consts  --      0.0165                 0.0256                 0.0276
 IR Inten    --      2.4027                 2.5015                 1.5424

                      7                      8                      9
                      A                      A                      A
 Frequencies --    242.9943               264.0784               335.0377
 Red. masses --      1.3867                 4.5437                 2.7579
 Frc consts  --      0.0482                 0.1867                 0.1824
 IR Inten    --      1.2815                 3.2307                 1.2787

                     10                     11                     12
                      A                      A                      A
 Frequencies --    370.7079               378.9714               448.0139
 Red. masses --      3.2207                 5.5118                 3.0583
 Frc consts  --      0.2608                 0.4664                 0.3617
 IR Inten    --      3.6211                 3.2575                33.8875

                     13                     14                     15
                      A                      A                      A
 Frequencies --    467.4952               489.4419               522.5882
 Red. masses --      3.1121                 1.5924                 1.2802
 Frc consts  --      0.4007                 0.2248                 0.2060
 IR Inten    --      6.5400                42.7240                53.0697

                     16                     17                     18
                      A                      A                      A
 Frequencies --    659.7997               673.9248               677.3869
 Red. masses --      3.4344                 3.4969                 3.4571
 Frc consts  --      0.8809                 0.9357                 0.9346
 IR Inten    --      5.8469                 0.9747                19.0566

                     19                     20                     21
                      A                      A                      A
 Frequencies --    701.1120               723.7856               801.1931
 Red. masses --      3.2879                 2.7788                 1.2467
 Frc consts  --      0.9522                 0.8577                 0.4715
 IR Inten    --      9.3710                 0.0848                52.5660

                     22                     23                     24
                      A                      A                      A
 Frequencies --    822.1666               843.3206               871.7738
 Red. masses --      1.5348                 1.3882                 2.3332
 Frc consts  --      0.6113                 0.5817                 1.0447
 IR Inten    --      5.2470                15.5259                 0.0440

                     25                     26                     27
                      A                      A                      A
 Frequencies --    887.3705               906.4394               938.6599
 Red. masses --      1.3167                 1.4827                 7.5119
 Frc consts  --      0.6109                 0.7178                 3.8996
 IR Inten    --      4.1989                 2.7309                 1.3265

                     28                     29                     30
                      A                      A                      A
 Frequencies --    944.6141              1010.4749              1047.1641
 Red. masses --      5.2132                 3.6685                 2.9560
 Frc consts  --      2.7407                 2.2069                 1.9098
 IR Inten    --     51.8936                 7.9365                 0.2626

                     31                     32                     33
                      A                      A                      A
 Frequencies --   1053.5193              1067.7329              1096.2250
 Red. masses --      2.3403                 1.4055                 1.5912
 Frc consts  --      1.5304                 0.9441                 1.1266
 IR Inten    --      3.8484                10.9581                 6.8360

                     34                     35                     36
                      A                      A                      A
 Frequencies --   1111.5152              1125.1786              1150.3091
 Red. masses --      1.8292                 2.0164                 3.4360
 Frc consts  --      1.3315                 1.5041                 2.6788
 IR Inten    --      1.0150                45.4733                 5.8868

                     37                     38                     39
                      A                      A                      A
 Frequencies --   1194.5704              1238.1752              1263.0618
 Red. masses --      2.4795                 1.8264                 1.6576
 Frc consts  --      2.0847                 1.6497                 1.5580
 IR Inten    --     12.9815                14.3677                 0.9832

                     40                     41                     42
                      A                      A                      A
 Frequencies --   1279.8441              1303.9555              1321.0574
 Red. masses --      1.6206                 1.2512                 2.5910
 Frc consts  --      1.5640                 1.2535                 2.6641
 IR Inten    --      1.4671                 0.9761                19.2058

                     43                     44                     45
                      A                      A                      A
 Frequencies --   1349.3290              1375.5559              1389.6999
 Red. masses --      2.9809                 1.4178                 1.6427
 Frc consts  --      3.1977                 1.5806                 1.8691
 IR Inten    --      8.7489                 7.0818                11.7024

                     46                     47                     48
                      A                      A                      A
 Frequencies --   1407.5391              1447.6842              1448.0989
 Red. masses --      2.8476                 2.7798                 1.2968
 Frc consts  --      3.3239                 3.4325                 1.6023
 IR Inten    --     21.8741                12.3506                 6.1950

                     49                     50                     51
                      A                      A                      A
 Frequencies --   1461.7337              1481.7659              1504.8452
 Red. masses --      3.3219                 3.6809                 1.1021
 Frc consts  --      4.1819                 4.7617                 1.4705
 IR Inten    --     19.2233                 6.2871                 3.9371

                     52                     53                     54
                      A                      A                      A
 Frequencies --   1518.8871              1529.3182              1534.5705
 Red. masses --      1.0719                 1.0415                 1.1173
 Frc consts  --      1.4570                 1.4352                 1.5502
 IR Inten    --      3.0201                 4.3218                 2.6292

                     55                     56                     57
                      A                      A                      A
 Frequencies --   1551.1433              1597.2828              1673.4413
 Red. masses --      4.1731                 4.1536                 6.0066
 Frc consts  --      5.9157                 6.2437                 9.9105
 IR Inten    --      6.1309                60.2470                10.9407

                     58                     59                     60
                      A                      A                      A
 Frequencies --   3025.9408              3040.1207              3053.7256
 Red. masses --      1.0663                 1.0690                 1.0359
 Frc consts  --      5.7525                 5.8210                 5.6916
 IR Inten    --     26.6138                38.1893                19.6192

                     61                     62                     63
                      A                      A                      A
 Frequencies --   3071.3031              3115.3255              3120.9563
 Red. masses --      1.0961                 1.0965                 1.1011
 Frc consts  --      6.0921                 6.2699                 6.3191
 IR Inten    --     40.9126                 4.2699                39.4347

                     64                     65                     66
                      A                      A                      A
 Frequencies --   3127.6358              3259.9584              3266.9540
 Red. masses --      1.1024                 1.0938                 1.0969
 Frc consts  --      6.3535                 6.8485                 6.8977
 IR Inten    --     47.1264                11.8710                 5.6440

                     67                     68                     69
                      A                      A                      A
 Frequencies --   3287.3847              3638.8086              3659.7489
 Red. masses --      1.1001                 1.0801                 1.0807
 Frc consts  --      7.0048                 8.4259                 8.5283
 IR Inten    --      1.1457                26.5472                51.4109

 - Thermochemistry -
 -------------------
 Temperature   298.150 Kelvin.  Pressure   1.00000 Atm.
 Atom     1 has atomic number  6 and mass  12.00000

 Molecular mass:   176.10620 amu.
 Principal axes and moments of inertia in atomic units:
                           1         2         3
     Eigenvalues --   892.172324765.539704987.10331
           X            0.99986   0.01598  -0.00436
           Y           -0.01571   0.99825   0.05693
           Z            0.00526  -0.05686   0.99837
 This molecule is an asymmetric top.
 Rotational symmetry number  1.
 Warning -- assumption of classical behavior for rotation
           may cause significant error
 Rotational temperatures (Kelvin)      0.09708     0.01818     0.01737
 Rotational constants (GHZ):           2.02286     0.37871     0.36188
 Zero-point vibrational energy     548277.1 (Joules/Mol)
                                  131.04138 (Kcal/Mol)
 Warning -- explicit consideration of  15 degrees of freedom as
           vibrations may cause significant error
 Vibrational temperatures:     30.00    69.61   113.10   129.26   150.86
          (Kelvin)            215.58   349.61   379.95   482.04   533.37
                              545.26   644.59   672.62   704.20   751.89
                              949.30   969.63   974.61  1008.74  1041.37
                             1152.74  1182.91  1213.35  1254.29  1276.73
                             1304.16  1350.52  1359.09  1453.85  1506.64
                             1515.78  1536.23  1577.22  1599.22  1618.88
                             1655.04  1718.72  1781.46  1817.26  1841.41
                             1876.10  1900.71  1941.38  1979.12  1999.47
                             2025.13  2082.89  2083.49  2103.11  2131.93
                             2165.14  2185.34  2200.35  2207.90  2231.75
                             2298.13  2407.71  4353.65  4374.06  4393.63
                             4418.92  4482.26  4490.36  4499.97  4690.35
                             4700.42  4729.81  5235.43  5265.56

 Zero-point correction=                           0.208828 (Hartree/Particle)
 Thermal correction to Energy=                    0.220709
 Thermal correction to Enthalpy=                  0.221653
 Thermal correction to Gibbs Free Energy=         0.168773
 Sum of electronic and zero-point Energies=           -569.010791
 Sum of electronic and thermal Energies=              -568.998910
 Sum of electronic and thermal Enthalpies=            -568.997966
 Sum of electronic and thermal Free Energies=         -569.050845

                     E (Thermal)             CV                S
                      KCal/Mol        Cal/Mol-Kelvin    Cal/Mol-Kelvin
 Total                  138.497             44.188            111.294
 Electronic               0.000              0.000              0.000
 Translational            0.889              2.981             41.405
 Rotational               0.889              2.981             31.428
 Vibrational            136.719             38.227             38.461
 Vibration     1          0.593              1.986              6.552
 Vibration     2          0.595              1.978              4.883
 Vibration     3          0.600              1.964              3.925
 Vibration     4          0.602              1.956              3.664
 Vibration     5          0.605              1.945              3.362
 Vibration     6          0.618              1.903              2.674
 Vibration     7          0.659              1.774              1.781
 Vibration     8          0.671              1.739              1.635
 Vibration     9          0.716              1.606              1.236
 Vibration    10          0.743              1.532              1.077
 Vibration    11          0.749              1.515              1.043
 Vibration    12          0.807              1.365              0.802
 Vibration    13          0.825              1.322              0.745
 Vibration    14          0.845              1.273              0.685
 Vibration    15          0.878              1.200              0.604

                           ! Non-Optimized Parameters !

 1\1\GINC-NODE204\Freq\RB3LYP\6-31G(d)\C9H12N4\VSC10255\09-Dec-2020\0\\
 #N Geom=AllCheck Guess=TCheck SCRF=Check GenChk RB3LYP/6-31G(d) Freq\\
 CID_137096263_JID_3116_neutraal\\0,1\C,0.7542755287,-0.1946099306,0.11
 19232494\C,1.2185520374,-1.6389848888,-0.0829925328\C,2.2140296735,-2.
 1030070178,1.0010814569\C,1.6450522589,-2.061260237,2.3824984845\N,1.9
 813919444,-1.2194675626,3.3435504861\C,1.1630900524,-1.5109054331,4.41
 00788178\C,0.3050550961,-2.5460883998,4.1052926691\N,0.639110352,-2.89
 74477212,2.8013104273\C,-0.7220013149,-3.2191401832,4.8690475616\C,-1.

 Normal termination of Gaussian 16 at Wed Dec  9 22:32:17 2020.

 ----------------------------------------------------------------------
 # B3LYP/6-311++G(d,p) empiricaldispersion=gd3bj scf=xqc pop=npa geom=c
 heck
 ----------------------------------------------------------------------

 ---------------------------------------
 CID_137096263_JID_3116_Energie_neutraal
 ---------------------------------------
 Structure from the checkpoint file:  "JID_3116.chk"
 Charge =  0 Multiplicity = 1

 SCF Done:  E(RB3LYP) =  -569.376183874     A.U. after   15 cycles
 Normal termination of Gaussian 16 at Wed Dec  9 22:34:45 2020.

 ----------------------------------------------------------------------
 # B3LYP/6-311++G(d,p) empiricaldispersion=gd3bj scf=xqc pop=npa geom=c
 heck
 ----------------------------------------------------------------------

 -------------------------------------
 CID_137096263_JID_3116_Energie_kation
 -------------------------------------
 Structure from the checkpoint file:  "JID_3116.chk"
 Charge =  1 Multiplicity = 2

 SCF Done:  E(UB3LYP) =  -569.089861004     A.U. after   21 cycles
 Normal termination of Gaussian 16 at Wed Dec  9 22:39:40 2020.
 Gaussian 16:  ES64L-G16RevA.03 25-Dec-2016

 ------------------------------------
 CID_137096263_JID_3116_Energie_anion
 ------------------------------------
 Structure from the checkpoint file:  "JID_3116.chk"
 Charge = -1 Multiplicity = 2

                         Standard orientation:
 ---------------------------------------------------------------------
 Center     Atomic      Atomic             Coordinates (Angstroms)
 Number     Number       Type             X           Y           Z
 ---------------------------------------------------------------------
      1          6           0       -3.715155   -0.261335    1.534830
      2          6           0       -3.486967   -1.146224    0.308183
      3          6           0       -2.960055   -0.360846   -0.911266
      4          6           0       -1.644943    0.304231   -0.662381
      5          7           0       -1.433523    1.602873   -0.543257
      6          6           0       -0.094749    1.747605   -0.262592
      7          6           0        0.532512    0.521303   -0.203862
      8          7           0       -0.477463   -0.395383   -0.477824
      9          6           0        1.904416    0.138022    0.045419
     10          6           0        2.879817    0.680348    0.871302
     11          6           0        4.016483   -0.134945    0.678739
     12          7           0        3.790596   -1.116810   -0.193802
     13          7           0        2.498802   -0.939711   -0.555523
     14          1           0       -2.787992    0.230645    1.846933
     15          1           0       -4.092125   -0.847828    2.379523
     16          1           0       -4.444584    0.526977    1.316216
     17          1           0       -2.780908   -1.951280    0.557912
     18          1           0       -4.423328   -1.641334    0.022226
     19          1           0       -2.884094   -1.034462   -1.775840
     20          1           0       -3.667978    0.429702   -1.177999
     21          1           0        0.358804    2.721562   -0.141567
     22          1           0       -0.395297   -1.398501   -0.392212
     23          1           0        2.760853    1.522246    1.536704
     24          1           0        4.988024   -0.053168    1.147785
     25          1           0        2.131594   -1.490289   -1.317083
 ---------------------------------------------------------------------

 SCF Done:  E(UB3LYP) =  -569.371214604     A.U. after   30 cycles

 The electronic state is 2-A.
 Alpha  occ. eigenvalues --  -14.28127 -14.25768 -14.23243 -14.19061 -10.12618
 Alpha  occ. eigenvalues --  -10.12307 -10.11059 -10.09504 -10.08542 -10.07295
 Alpha  occ. eigenvalues --  -10.07073 -10.06729 -10.05817  -0.94714  -0.91194
 Alpha  occ. eigenvalues --   -0.77079  -0.72738  -0.70377  -0.68969  -0.63981
 Alpha  occ. eigenvalues --   -0.58814  -0.52739  -0.51191  -0.50728  -0.49297
 Alpha  occ. eigenvalues --   -0.48036  -0.45220  -0.38588  -0.36250  -0.35704
 Alpha  occ. eigenvalues --   -0.35043  -0.34293  -0.33984  -0.33109  -0.31458
 Alpha  occ. eigenvalues --   -0.30919  -0.29765  -0.28654  -0.24768  -0.24277
 Alpha  occ. eigenvalues --   -0.23513  -0.20219  -0.19090  -0.17624  -0.16975
 Alpha  occ. eigenvalues --   -0.16620  -0.11082   0.04272
 Alpha virt. eigenvalues --    0.07099   0.07481   0.07810   0.08823   0.09029
 Alpha virt. eigenvalues --    0.09609   0.10842   0.10962   0.11237   0.12296
 Alpha virt. eigenvalues --    0.12815   0.13065   0.13640   0.14380   0.14933

  Beta  occ. eigenvalues --  -14.28038 -14.25681 -14.23216 -14.19061 -10.12603
  Beta  occ. eigenvalues --  -10.12302 -10.11043 -10.09509 -10.08541 -10.07272
  Beta  occ. eigenvalues --  -10.07057 -10.06687 -10.05802  -0.94633  -0.91134
  Beta  occ. eigenvalues --   -0.76996  -0.72657  -0.70304  -0.68907  -0.63938
  Beta  occ. eigenvalues --   -0.58757  -0.52668  -0.51124  -0.50612  -0.49194
  Beta  occ. eigenvalues --   -0.47975  -0.45153  -0.38534  -0.36183  -0.35637
  Beta  occ. eigenvalues --   -0.34992  -0.34248  -0.33870  -0.33064  -0.31401
  Beta  occ. eigenvalues --   -0.30882  -0.29733  -0.28627  -0.24710  -0.24223
  Beta  occ. eigenvalues --   -0.23466  -0.20174  -0.19023  -0.17563  -0.16913
  Beta  occ. eigenvalues --   -0.16491  -0.10995
  Beta virt. eigenvalues --    0.06921   0.07390   0.07981   0.08854   0.09030
  Beta virt. eigenvalues --    0.09520   0.10023   0.10939   0.11650   0.11844
  Beta virt. eigenvalues --    0.12418   0.12843   0.13189   0.13699   0.14625

 Mulliken charges and spin densities:
               1          2
     1  C    0.047611  -0.608138
     2  C    0.219463  -0.296350
     3  C   -0.967383   0.580139
     4  C    0.910795  -1.191626
     5  N   -0.021540   0.008487
     6  C   -0.242757  -0.014976
     7  C    1.554176  -1.395084
     8  N   -0.120102   0.098451
     9  C    0.051565  -0.517483
    10  C   -0.602028   0.921305
    11  C   -0.094618  -0.218276
    12  N   -0.247544   0.073309
    13  N    0.122927  -0.165732
    14  H    0.071596   0.097709
    15  H   -0.071456   0.202160
    16  H    0.065220   0.047973
    17  H   -0.264985   0.389623
    18  H   -0.445957   0.611087
    19  H   -0.562686   0.748141
    20  H    0.144983   0.005478
    21  H    0.044331   0.091137
    22  H   -0.238842   0.559714
    23  H   -0.032556   0.186859
    24  H    0.008561   0.130171
    25  H   -0.328774   0.655921
 Sum of Mulliken charges =  -1.00000   1.00000

 Dipole moment (field-independent basis, Debye):
    X=              2.0429    Y=              5.7727    Z=              3.1016  Tot=              6.8642
 Quadrupole moment (field-independent basis, Debye-Ang):
   XX=           -138.8642   YY=           -119.0286   ZZ=           -105.3517
   XY=              0.3538   XZ=              2.5679   YZ=             -4.1942

 Summary of Natural Population Analysis:

                                       Natural Population
                Natural  -----------------------------------------------
    Atom  No    Charge         Core      Valence    Rydberg      Total
 -----------------------------------------------------------------------
      C    1   -0.28744      0.99966     2.28183    0.00595     3.28744
      C    2   -0.18477      0.99964     2.17696    0.00818     3.18477
      C    3   -0.21262      0.99959     2.20268    0.01035     3.21262
      C    4    0.20122      0.99961     1.77966    0.01950     2.79878
      N    5   -0.26219      0.99970     2.75377    0.00872     3.76219
      C    6   -0.01904      0.99953     2.00762    0.01189     3.01904
      C    7    0.03182      0.99950     1.95596    0.01272     2.96818
      N    8   -0.26881      0.99963     2.75837    0.01081     3.76881
      C    9    0.06164      0.99952     1.92570    0.01314     2.93836
      C   10   -0.15528      0.99952     2.14857    0.00718     3.15528
      C   11   -0.01980      0.99964     2.00608    0.01409     3.01980
      N   12   -0.15120      0.99974     2.63791    0.01354     3.65120
      N   13   -0.16034      0.99966     2.64678    0.01389     3.66034
      H   14    0.10081      0.00000     0.39824    0.00095     0.39919
      H   15    0.09695      0.00000     0.40229    0.00076     0.40305
      H   16    0.09453      0.00000     0.40462    0.00085     0.40547
      H   17    0.09803      0.00000     0.39935    0.00261     0.40197
      H   18    0.09625      0.00000     0.40215    0.00160     0.40375
      H   19    0.11209      0.00000     0.38539    0.00252     0.38791
      H   20    0.10705      0.00000     0.39151    0.00144     0.39295
      H   21    0.09521      0.00000     0.40384    0.00095     0.40479
      H   22    0.21651      0.00000     0.26735    0.01614     0.28349
      H   23    0.10776      0.00000     0.39148    0.00076     0.39224
      H   24    0.09465      0.00000     0.40459    0.00076     0.40535
      H   25    0.20698      0.00000     0.28397    0.00906     0.29302
 =======================================================================
   * Total *   -0.00000     12.99494    33.81669    0.18837    47.00000

 Normal termination of Gaussian 16 at Wed Dec  9 22:46:26 2020.
