 Gaussian 16, Revision A.03,

 -----------------------------------------------------------
 # opt freq B3LYP/6-31G(d) empiricaldispersion=gd3bj scf=xqc
 -----------------------------------------------------------

 -------------------------------
 CID_106824561_JID_2667_neutraal
 -------------------------------
 Symbolic Z-matrix:
 Charge =  0 Multiplicity = 1

 SCF Done:  E(RB3LYP) =  -522.440654693     A.U. after   13 cycles
 SCF Done:  E(RB3LYP) =  -522.448085907     A.U. after   11 cycles
 SCF Done:  E(RB3LYP) =  -522.448678362     A.U. after   10 cycles
 SCF Done:  E(RB3LYP) =  -522.448782748     A.U. after    9 cycles
 SCF Done:  E(RB3LYP) =  -522.448794353     A.U. after    8 cycles
 SCF Done:  E(RB3LYP) =  -522.448798693     A.U. after    8 cycles
 SCF Done:  E(RB3LYP) =  -522.448799168     A.U. after    7 cycles
 SCF Done:  E(RB3LYP) =  -522.448799315     A.U. after    7 cycles
 SCF Done:  E(RB3LYP) =  -522.448799342     A.U. after    6 cycles
 Optimization completed.
    -- Stationary point found.
 Normal termination of Gaussian 16 at Wed Dec  9 17:57:49 2020.

 --------------------------------------------------------------------
 #N Geom=AllCheck Guess=TCheck SCRF=Check GenChk RB3LYP/6-31G(d) Freq
 --------------------------------------------------------------------

 Structure from the checkpoint file:  "JID_2667.chk"
 -------------------------------
 CID_106824561_JID_2667_neutraal
 -------------------------------
 Charge =  0 Multiplicity = 1

 SCF Done:  E(RB3LYP) =  -522.448799342     A.U. after    1 cycles

  Exact polarizability: 145.961   1.581 101.484   0.359  -0.883  94.631
 Approx polarizability: 158.602   0.833 146.408  -0.453   0.309 145.861

                      1                      2                      3
                      A                      A                      A
 Frequencies --     33.0964                41.2649                46.7011
 Red. masses --      3.6140                 3.5644                 2.5480
 Frc consts  --      0.0023                 0.0036                 0.0033
 IR Inten    --      0.1767                 0.6531                 0.8030

                      4                      5                      6
                      A                      A                      A
 Frequencies --     81.2489               104.7587               114.2519
 Red. masses --      2.4424                 3.4610                 2.9349
 Frc consts  --      0.0095                 0.0224                 0.0226
 IR Inten    --      0.2236                 0.4236                 0.1110

                      7                      8                      9
                      A                      A                      A
 Frequencies --    151.8313               221.7434               250.8746
 Red. masses --      2.8203                 1.5063                 2.4685
 Frc consts  --      0.0383                 0.0436                 0.0915
 IR Inten    --      1.6528                 1.6326                 0.6172

                     10                     11                     12
                      A                      A                      A
 Frequencies --    283.6433               331.0064               342.2821
 Red. masses --      1.8140                 2.7319                 2.5520
 Frc consts  --      0.0860                 0.1764                 0.1762
 IR Inten    --      1.5785                 0.5156                 1.7099

                     13                     14                     15
                      A                      A                      A
 Frequencies --    410.2731               427.2200               472.4848
 Red. masses --      2.5309                 2.5418                 2.0231
 Frc consts  --      0.2510                 0.2733                 0.2661
 IR Inten    --      2.7079                 1.5612                 5.0313

                     16                     17                     18
                      A                      A                      A
 Frequencies --    476.2847               498.1435               633.4486
 Red. masses --      2.8785                 2.8511                 2.5622
 Frc consts  --      0.3847                 0.4168                 0.6057
 IR Inten    --      1.4644                 3.3343                 2.0665

                     19                     20                     21
                      A                      A                      A
 Frequencies --    776.3635               785.5159               805.4886
 Red. masses --      1.2170                 1.7154                 1.3646
 Frc consts  --      0.4322                 0.6236                 0.5217
 IR Inten    --     24.0447                33.6286                17.6513

                     22                     23                     24
                      A                      A                      A
 Frequencies --    817.4516               822.9396               844.5289
 Red. masses --      1.2742                 1.2653                 1.4324
 Frc consts  --      0.5017                 0.5049                 0.6019
 IR Inten    --      7.6512                 0.5264                 5.0980

                     25                     26                     27
                      A                      A                      A
 Frequencies --    853.9768               893.8872               911.5950
 Red. masses --      1.7539                 2.4112                 1.9273
 Frc consts  --      0.7536                 1.1351                 0.9436
 IR Inten    --      9.4874                 5.9741                 3.4948

                     28                     29                     30
                      A                      A                      A
 Frequencies --    954.1531               958.1007               970.2800
 Red. masses --      1.6894                 2.7079                 2.3900
 Frc consts  --      0.9062                 1.4645                 1.3257
 IR Inten    --      2.0355                 4.7355                10.4803

                     31                     32                     33
                      A                      A                      A
 Frequencies --   1015.6028              1040.6980              1059.4058
 Red. masses --      1.7953                 2.3987                 1.3923
 Frc consts  --      1.0910                 1.5306                 0.9207
 IR Inten    --      0.1255                 9.3980                 8.3524

                     34                     35                     36
                      A                      A                      A
 Frequencies --   1068.5468              1077.9387              1080.4703
 Red. masses --      1.8555                 2.2303                 1.6242
 Frc consts  --      1.2483                 1.5269                 1.1172
 IR Inten    --      8.2461                12.6763                 8.3711

                     37                     38                     39
                      A                      A                      A
 Frequencies --   1103.4682              1134.2747              1143.9616
 Red. masses --      2.2228                 2.0819                 1.3714
 Frc consts  --      1.5947                 1.5781                 1.0574
 IR Inten    --     17.5421                 8.5973                 7.9576

                     40                     41                     42
                      A                      A                      A
 Frequencies --   1149.0823              1166.9357              1182.5970
 Red. masses --      2.2401                 2.0655                 3.1514
 Frc consts  --      1.7427                 1.6572                 2.5967
 IR Inten    --     25.1667                11.4059               155.4032

                     43                     44                     45
                      A                      A                      A
 Frequencies --   1195.6423              1209.8664              1215.3447
 Red. masses --      1.5963                 1.3652                 1.9562
 Frc consts  --      1.3446                 1.1774                 1.7024
 IR Inten    --      3.7933                 0.8261                40.5977

                     46                     47                     48
                      A                      A                      A
 Frequencies --   1235.8742              1240.9891              1254.1212
 Red. masses --      1.4109                 1.7532                 1.7389
 Frc consts  --      1.2697                 1.5909                 1.6114
 IR Inten    --      5.8258                36.6002                 2.9908

                     49                     50                     51
                      A                      A                      A
 Frequencies --   1270.8512              1280.5109              1293.5428
 Red. masses --      1.2060                 1.3989                 1.2949
 Frc consts  --      1.1476                 1.3515                 1.2765
 IR Inten    --     11.7750                 4.6099                 8.7036

                     52                     53                     54
                      A                      A                      A
 Frequencies --   1321.5715              1343.4695              1363.0570
 Red. masses --      1.4334                 1.1495                 1.3632
 Frc consts  --      1.4751                 1.2224                 1.4923
 IR Inten    --      8.9547                38.3640                25.6075

                     55                     56                     57
                      A                      A                      A
 Frequencies --   1404.9840              1413.3921              1429.6627
 Red. masses --      1.2983                 1.4144                 1.3107
 Frc consts  --      1.5100                 1.6648                 1.5784
 IR Inten    --      8.9217                59.2753                42.6363

                     58                     59                     60
                      A                      A                      A
 Frequencies --   1437.8176              1448.8515              1479.8502
 Red. masses --      1.4411                 1.3435                 1.1029
 Frc consts  --      1.7553                 1.6617                 1.4231
 IR Inten    --      3.6099                12.1464                 4.0465

                     61                     62                     63
                      A                      A                      A
 Frequencies --   1496.5781              1498.6230              1518.6639
 Red. masses --      1.2491                 1.1022                 1.0470
 Frc consts  --      1.6484                 1.4584                 1.4227
 IR Inten    --     27.8044                 0.7936                 5.1844

                     64                     65                     66
                      A                      A                      A
 Frequencies --   1519.8520              1525.5301              1533.1063
 Red. masses --      1.0613                 1.1410                 1.3690
 Frc consts  --      1.4445                 1.5645                 1.8958
 IR Inten    --      0.3036                 1.9050                 6.4024

                     67                     68                     69
                      A                      A                      A
 Frequencies --   1541.6511              1545.6837              2921.6544
 Red. masses --      1.0946                 1.1283                 1.0736
 Frc consts  --      1.5328                 1.5882                 5.3996
 IR Inten    --      3.6789                 5.9559                68.5777

                     70                     71                     72
                      A                      A                      A
 Frequencies --   2989.3521              3000.0540              3048.0125
 Red. masses --      1.0728                 1.0831                 1.0862
 Frc consts  --      5.6484                 5.7435                 5.9453
 IR Inten    --     37.9192                72.4700                60.8968

                     73                     74                     75
                      A                      A                      A
 Frequencies --   3054.6137              3057.9486              3061.1691
 Red. masses --      1.0362                 1.0849                 1.0584
 Frc consts  --      5.6966                 5.9775                 5.8433
 IR Inten    --     12.2598                21.7578                39.6024

                     76                     77                     78
                      A                      A                      A
 Frequencies --   3067.6226              3075.5181              3090.3655
 Red. masses --      1.0603                 1.0856                 1.0931
 Frc consts  --      5.8789                 6.0500                 6.1508
 IR Inten    --     12.7917                25.4434                28.5914

                     79                     80                     81
                      A                      A                      A
 Frequencies --   3120.3255              3122.2335              3124.8850
 Red. masses --      1.1084                 1.1009                 1.1068
 Frc consts  --      6.3586                 6.3233                 6.3676
 IR Inten    --     24.9757                40.3767                46.9890

                     82                     83                     84
                      A                      A                      A
 Frequencies --   3136.9824              3150.8239              3155.5013
 Red. masses --      1.1033                 1.0504                 1.0588
 Frc consts  --      6.3967                 6.1441                 6.2118
 IR Inten    --     47.4149                21.0117                 9.9259

                     85                     86                     87
                      A                      A                      A
 Frequencies --   3230.7321              3243.5323              3473.4155
 Red. masses --      1.1199                 1.1168                 1.0734
 Frc consts  --      6.8867                 6.9222                 7.6297
 IR Inten    --      0.2834                24.0733                 1.4231

 - Thermochemistry -
 -------------------
 Temperature   298.150 Kelvin.  Pressure   1.00000 Atm.
 Atom     1 has atomic number  6 and mass  12.00000

 Molecular mass:   169.14666 amu.
 Principal axes and moments of inertia in atomic units:
                           1         2         3
     Eigenvalues --   510.662626317.406376563.49704
           X            0.99998   0.00579   0.00262
           Y           -0.00573   0.99975  -0.02157
           Z           -0.00274   0.02156   0.99976
 This molecule is an asymmetric top.
 Rotational symmetry number  1.
 Warning -- assumption of classical behavior for rotation
           may cause significant error
 Rotational temperatures (Kelvin)      0.16961     0.01371     0.01320
 Rotational constants (GHZ):           3.53412     0.28568     0.27497
 Zero-point vibrational energy     739780.6 (Joules/Mol)
                                  176.81180 (Kcal/Mol)
 Warning -- explicit consideration of  17 degrees of freedom as
           vibrations may cause significant error
 Vibrational temperatures:     47.62    59.37    67.19   116.90   150.72
          (Kelvin)            164.38   218.45   319.04   360.95   408.10
                              476.24   492.47   590.29   614.67   679.80
                              685.27   716.72   911.39  1117.01  1130.18
                             1158.92  1176.13  1184.03  1215.09  1228.68
                             1286.10  1311.58  1372.81  1378.49  1396.02
                             1461.23  1497.33  1524.25  1537.40  1550.91
                             1554.56  1587.64  1631.97  1645.91  1653.27
                             1678.96  1701.49  1720.26  1740.73  1748.61
                             1778.15  1785.51  1804.40  1828.47  1842.37
                             1861.12  1901.45  1932.95  1961.14  2021.46
                             2033.56  2056.97  2068.70  2084.57  2129.17
                             2153.24  2156.18  2185.02  2186.73  2194.90
                             2205.80  2218.09  2223.89  4203.61  4301.01
                             4316.41  4385.41  4394.91  4399.71  4404.34
                             4413.62  4424.98  4446.35  4489.45  4492.20
                             4496.01  4513.42  4533.33  4540.06  4648.30
                             4666.72  4997.47

 Zero-point correction=                           0.281768 (Hartree/Particle)
 Thermal correction to Energy=                    0.294945
 Thermal correction to Enthalpy=                  0.295889
 Thermal correction to Gibbs Free Energy=         0.240393
 Sum of electronic and zero-point Energies=           -522.167032
 Sum of electronic and thermal Energies=              -522.153854
 Sum of electronic and thermal Enthalpies=            -522.152910
 Sum of electronic and thermal Free Energies=         -522.208407

                     E (Thermal)             CV                S
                      KCal/Mol        Cal/Mol-Kelvin    Cal/Mol-Kelvin
 Total                  185.081             48.953            116.803
 Electronic               0.000              0.000              0.000
 Translational            0.889              2.981             41.285
 Rotational               0.889              2.981             31.427
 Vibrational            183.304             42.992             44.091
 Vibration     1          0.594              1.983              5.635
 Vibration     2          0.594              1.981              5.197
 Vibration     3          0.595              1.979              4.952
 Vibration     4          0.600              1.962              3.860
 Vibration     5          0.605              1.945              3.364
 Vibration     6          0.607              1.938              3.195
 Vibration     7          0.619              1.901              2.649
 Vibration     8          0.648              1.808              1.945
 Vibration     9          0.663              1.761              1.724
 Vibration    10          0.682              1.704              1.512
 Vibration    11          0.713              1.614              1.255
 Vibration    12          0.721              1.591              1.201
 Vibration    13          0.774              1.448              0.926
 Vibration    14          0.789              1.411              0.868
 Vibration    15          0.829              1.311              0.731
 Vibration    16          0.833              1.303              0.720
 Vibration    17          0.854              1.254              0.663

 Optimization completed.
    -- Stationary point found.
 Normal termination of Gaussian 16 at Wed Dec  9 18:05:19 2020.

 ----------------------------------------------------------------------
 # B3LYP/6-311++G(d,p) empiricaldispersion=gd3bj scf=xqc pop=npa geom=c
 heck
 ----------------------------------------------------------------------

 ---------------------------------------
 CID_106824561_JID_2667_Energie_neutraal
 ---------------------------------------
 Structure from the checkpoint file:  "JID_2667.chk"
 Charge =  0 Multiplicity = 1

 SCF Done:  E(RB3LYP) =  -522.599737936     A.U. after   13 cycles
 Normal termination of Gaussian 16 at Wed Dec  9 18:07:57 2020.

 ----------------------------------------------------------------------
 # B3LYP/6-311++G(d,p) empiricaldispersion=gd3bj scf=xqc pop=npa geom=c
 heck
 ----------------------------------------------------------------------

 -------------------------------------
 CID_106824561_JID_2667_Energie_kation
 -------------------------------------
 Structure from the checkpoint file:  "JID_2667.chk"
 Charge =  1 Multiplicity = 2

 SCF Done:  E(UB3LYP) =  -522.295815550     A.U. after   23 cycles
 Normal termination of Gaussian 16 at Wed Dec  9 18:14:59 2020.
 Gaussian 16:  ES64L-G16RevA.03 25-Dec-2016

 ----------------------------------------------------------------------
 # B3LYP/6-311++G(d,p) empiricaldispersion=gd3bj scf=xqc pop=npa geom=c
 heck
 ----------------------------------------------------------------------

 ------------------------------------
 CID_106824561_JID_2667_Energie_anion
 ------------------------------------
 Structure from the checkpoint file:  "JID_2667.chk"
 Charge = -1 Multiplicity = 2

                         Standard orientation:
 ---------------------------------------------------------------------
 Center     Atomic      Atomic             Coordinates (Angstroms)
 Number     Number       Type             X           Y           Z
 ---------------------------------------------------------------------
      1          6           0        4.564094    1.123981   -0.250659
      2          6           0        4.337200   -0.383641   -0.161391
      3          8           0        3.024089   -0.790185   -0.517636
      4          6           0        2.027267   -0.490681    0.429095
      5          6           0        1.279561    0.870170    0.361526
      6          6           0       -0.041776    0.099410    0.618616
      7          6           0        0.686774   -1.201468    0.171281
      8          6           0       -1.283202    0.525889   -0.144332
      9          7           0       -2.397907   -0.378967    0.127843
     10          6           0       -3.597752   -0.040799   -0.589053
     11          6           0       -4.903609   -0.526500   -0.021504
     12          6           0       -4.536562    0.935846    0.071866
     13          1           0        4.295762    1.490214   -1.247067
     14          1           0        5.619109    1.359339   -0.067090
     15          1           0        3.964561    1.666963    0.486675
     16          1           0        4.998884   -0.904049   -0.861814
     17          1           0        4.577281   -0.743902    0.852937
     18          1           0        2.399710   -0.685015    1.447319
     19          1           0        1.562803    1.660745    1.063528
     20          1           0        1.318333    1.262311   -0.660679
     21          1           0       -0.274210    0.059514    1.688532
     22          1           0        0.568825   -1.368481   -0.905929
     23          1           0        0.487465   -2.134378    0.706927
     24          1           0       -1.587510    1.533625    0.167049
     25          1           0       -1.038105    0.591072   -1.223401
     26          1           0       -2.120167   -1.332204   -0.103707
     27          1           0       -3.529946    0.022550   -1.681568
     28          1           0       -5.688062   -0.823531   -0.711700
     29          1           0       -4.848608   -1.112394    0.890859
     30          1           0       -4.236707    1.311243    1.045485
     31          1           0       -5.068756    1.647389   -0.552837
 ---------------------------------------------------------------------

 SCF Done:  E(UB3LYP) =  -522.581041555     A.U. after   33 cycles
 SCF Done:  E(UB3LYP) =  -522.581041555     a.u. after    1 cycles

 The electronic state is 2-A.
 Alpha  occ. eigenvalues --  -19.02670 -14.20882 -10.12474 -10.11769 -10.10785
 Alpha  occ. eigenvalues --  -10.09694 -10.08053 -10.07861 -10.07773 -10.07140
 Alpha  occ. eigenvalues --  -10.06917 -10.06061  -0.94101  -0.82906  -0.75880
 Alpha  occ. eigenvalues --   -0.73486  -0.65534  -0.60811  -0.56984  -0.54252
 Alpha  occ. eigenvalues --   -0.51261  -0.48989  -0.48592  -0.46146  -0.42215
 Alpha  occ. eigenvalues --   -0.40414  -0.40058  -0.38041  -0.37659  -0.36089
 Alpha  occ. eigenvalues --   -0.33854  -0.32308  -0.31083  -0.29993  -0.29609
 Alpha  occ. eigenvalues --   -0.28526  -0.27591  -0.27307  -0.26754  -0.23997
 Alpha  occ. eigenvalues --   -0.22579  -0.22029  -0.21057  -0.21043  -0.19529
 Alpha  occ. eigenvalues --   -0.15923  -0.14175   0.04580
 Alpha virt. eigenvalues --    0.05745   0.07100   0.07345   0.07790   0.08306
 Alpha virt. eigenvalues --    0.08507   0.09540   0.10055   0.10572   0.10615
 Alpha virt. eigenvalues --    0.11399   0.11514   0.12389   0.12408   0.13463

  Beta  occ. eigenvalues --  -19.02659 -14.20869 -10.12463 -10.11745 -10.10771
  Beta  occ. eigenvalues --  -10.09686 -10.08049 -10.07843 -10.07758 -10.07129
  Beta  occ. eigenvalues --  -10.06903 -10.06023  -0.94081  -0.82886  -0.75859
  Beta  occ. eigenvalues --   -0.73462  -0.65488  -0.60785  -0.56950  -0.54197
  Beta  occ. eigenvalues --   -0.51210  -0.48931  -0.48543  -0.46112  -0.42181
  Beta  occ. eigenvalues --   -0.40372  -0.40013  -0.37993  -0.37630  -0.36055
  Beta  occ. eigenvalues --   -0.33800  -0.32280  -0.31049  -0.29963  -0.29587
  Beta  occ. eigenvalues --   -0.28482  -0.27564  -0.27275  -0.26710  -0.23973
  Beta  occ. eigenvalues --   -0.22553  -0.22001  -0.21033  -0.21011  -0.19505
  Beta  occ. eigenvalues --   -0.15875  -0.14128
  Beta virt. eigenvalues --    0.06652   0.07071   0.07529   0.07663   0.08244
  Beta virt. eigenvalues --    0.08659   0.08970   0.10057   0.10424   0.10860
  Beta virt. eigenvalues --    0.10910   0.11468   0.11906   0.12609   0.12694

 Mulliken charges and spin densities:
               1          2
     1  C    0.475636  -0.923070
     2  C    0.258092  -0.343354
     3  O   -0.096494   0.045476
     4  C   -1.003574   0.781044
     5  C    0.402965  -0.946657
     6  C   -0.849493   1.272369
     7  C    1.050565  -1.566420
     8  C    0.451077  -1.146326
     9  N   -0.001000   0.036150
    10  C   -0.873149   0.729666
    11  C    0.934443  -1.278577
    12  C    0.111326  -0.397269
    13  H    0.136681   0.001727
    14  H   -0.821427   0.968072
    15  H   -0.299366   0.448719
    16  H   -0.316292   0.479269
    17  H   -0.061400   0.165278
    18  H   -0.074037   0.210849
    19  H   -0.098809   0.235159
    20  H    0.138618   0.037001
    21  H   -0.002092   0.192506
    22  H    0.042437   0.147904
    23  H   -0.046264   0.193659
    24  H   -0.018477   0.173597
    25  H   -0.064613   0.162882
    26  H    0.202829   0.014835
    27  H   -0.370683   0.554193
    28  H   -0.278475   0.420895
    29  H    0.114495   0.014816
    30  H    0.126309   0.004303
    31  H   -0.169826   0.311299
 Sum of Mulliken charges =  -1.00000   1.00000

 Dipole moment (field-independent basis, Debye):
    X=             -3.1583    Y=             -1.3975    Z=              1.0610  Tot=              3.6130
 Quadrupole moment (field-independent basis, Debye-Ang):
   XX=           -211.8757   YY=           -107.3989   ZZ=           -109.1208
   XY=             -5.9878   XZ=            -13.5519   YZ=             -1.7003

 Summary of Natural Population Analysis:

                                       Natural Population
                Natural  -----------------------------------------------
    Atom  No    Charge         Core      Valence    Rydberg      Total
 -----------------------------------------------------------------------
      C    1   -0.30104      0.99967     2.29625    0.00512     3.30104
      C    2   -0.00762      0.99959     1.99497    0.01307     3.00762
      O    3   -0.29976      0.99987     3.29034    0.00955     4.29976
      C    4    0.06668      0.99952     1.91779    0.01600     2.93332
      C    5   -0.19951      0.99960     2.19035    0.00955     3.19951
      C    6   -0.11397      0.99960     2.10377    0.01060     3.11397
      C    7   -0.19394      0.99961     2.18597    0.00835     3.19394
      C    8   -0.08011      0.99959     2.07145    0.00907     3.08011
      N    9   -0.33665      0.99972     2.82643    0.01050     3.83665
      C   10   -0.02089      0.99958     2.00797    0.01334     3.02089
      C   11   -0.20136      0.99962     2.19159    0.01014     3.20136
      C   12   -0.20315      0.99962     2.19350    0.01004     3.20315
      H   13    0.09823      0.00000     0.40075    0.00102     0.40177
      H   14    0.10335      0.00000     0.39432    0.00233     0.39665
      H   15    0.09877      0.00000     0.39949    0.00174     0.40123
      H   16    0.08694      0.00000     0.41175    0.00131     0.41306
      H   17    0.07691      0.00000     0.42118    0.00192     0.42309
      H   18    0.08040      0.00000     0.41772    0.00188     0.41960
      H   19    0.09971      0.00000     0.39904    0.00125     0.40029
      H   20    0.10052      0.00000     0.39812    0.00137     0.39948
      H   21    0.09986      0.00000     0.39871    0.00142     0.40014
      H   22    0.10090      0.00000     0.39735    0.00174     0.39910
      H   23    0.09814      0.00000     0.40069    0.00117     0.40186
      H   24    0.09388      0.00000     0.40455    0.00157     0.40612
      H   25    0.07793      0.00000     0.42022    0.00185     0.42207
      H   26    0.17261      0.00000     0.32410    0.00330     0.32739
      H   27    0.08944      0.00000     0.40845    0.00211     0.41056
      H   28    0.10347      0.00000     0.39515    0.00137     0.39653
      H   29    0.10356      0.00000     0.39537    0.00108     0.39644
      H   30    0.10390      0.00000     0.39512    0.00099     0.39610
      H   31    0.10280      0.00000     0.39597    0.00123     0.39720
 =======================================================================
   * Total *    0.00000     11.99560    34.84841    0.15599    47.00000

 Normal termination of Gaussian 16 at Wed Dec  9 18:24:04 2020.
