 Gaussian 16, Revision A.03,

 -----------------------------------------------------------
 # opt freq B3LYP/6-31G(d) empiricaldispersion=gd3bj scf=xqc
 -----------------------------------------------------------

 -------------------------------
 CID_154167971_JID_9773_neutraal
 -------------------------------
 Symbolic Z-matrix:
 Charge =  0 Multiplicity = 1

 SCF Done:  E(RB3LYP) =  -804.138912269     A.U. after   15 cycles
 SCF Done:  E(RB3LYP) =  -804.144726803     A.U. after   13 cycles
 SCF Done:  E(RB3LYP) =  -804.145818533     A.U. after   13 cycles
 SCF Done:  E(RB3LYP) =  -804.146231693     A.U. after   12 cycles
 SCF Done:  E(RB3LYP) =  -804.146410673     A.U. after   12 cycles
 SCF Done:  E(RB3LYP) =  -804.146505669     A.U. after   10 cycles
 SCF Done:  E(RB3LYP) =  -804.146614150     A.U. after   11 cycles
 SCF Done:  E(RB3LYP) =  -804.146643635     A.U. after   11 cycles
 SCF Done:  E(RB3LYP) =  -804.146652581     A.U. after    9 cycles
 SCF Done:  E(RB3LYP) =  -804.146656727     A.U. after    9 cycles
 SCF Done:  E(RB3LYP) =  -804.146658264     A.U. after    8 cycles
 SCF Done:  E(RB3LYP) =  -804.146658855     A.U. after    8 cycles
 SCF Done:  E(RB3LYP) =  -804.146658901     A.U. after    7 cycles
 Optimization completed.
    -- Stationary point found.
 Normal termination of Gaussian 16 at Sun Dec 13 16:13:36 2020.

 --------------------------------------------------------------------
 #N Geom=AllCheck Guess=TCheck SCRF=Check GenChk RB3LYP/6-31G(d) Freq
 --------------------------------------------------------------------

 Structure from the checkpoint file:  "JID_9773.chk"
 -------------------------------
 CID_154167971_JID_9773_neutraal
 -------------------------------
 Charge =  0 Multiplicity = 1

 SCF Done:  E(RB3LYP) =  -804.146658901     A.U. after    1 cycles

  Exact polarizability: 355.460 -18.106 191.063   0.896  -8.709  79.777
 Approx polarizability: 509.542 -37.506 333.733   2.414 -23.501 124.362

                      1                      2                      3
                      A                      A                      A
 Frequencies --     35.1056                43.1513                77.4970
 Red. masses --      3.4259                 4.0765                 3.8590
 Frc consts  --      0.0025                 0.0045                 0.0137
 IR Inten    --      0.6082                 2.4101                 0.7099

                      4                      5                      6
                      A                      A                      A
 Frequencies --     92.6866                96.5035               102.7775
 Red. masses --      3.4089                 3.7365                 4.3589
 Frc consts  --      0.0173                 0.0205                 0.0271
 IR Inten    --      0.6327                 0.4952                 0.9628

                      7                      8                      9
                      A                      A                      A
 Frequencies --    160.7997               191.9318               218.1567
 Red. masses --      5.2381                 2.5996                 1.6185
 Frc consts  --      0.0798                 0.0564                 0.0454
 IR Inten    --      1.5567                 0.4068                 0.4252

                     10                     11                     12
                      A                      A                      A
 Frequencies --    233.3352               261.0198               270.9634
 Red. masses --      1.9978                 1.2747                 5.8134
 Frc consts  --      0.0641                 0.0512                 0.2515
 IR Inten    --      2.3821                 0.0737                 0.3489

                     13                     14                     15
                      A                      A                      A
 Frequencies --    278.5112               311.4022               331.9421
 Red. masses --      5.5708                 2.1078                 4.4249
 Frc consts  --      0.2546                 0.1204                 0.2873
 IR Inten    --      1.0314                 0.8403                 1.5743

                     16                     17                     18
                      A                      A                      A
 Frequencies --    354.5973               405.3028               417.9001
 Red. masses --      4.6070                 5.0185                 3.5881
 Frc consts  --      0.3413                 0.4857                 0.3692
 IR Inten    --      1.0265                 0.9040                 1.4996

                     19                     20                     21
                      A                      A                      A
 Frequencies --    440.2849               453.1193               535.2239
 Red. masses --      3.3038                 3.8720                 3.6786
 Frc consts  --      0.3773                 0.4684                 0.6209
 IR Inten    --      0.2955                 0.3959                 4.5726

                     22                     23                     24
                      A                      A                      A
 Frequencies --    551.4667               560.5390               571.3252
 Red. masses --      1.1648                 4.4954                 4.1711
 Frc consts  --      0.2087                 0.8322                 0.8022
 IR Inten    --     95.3750                12.3537                14.8098

                     25                     26                     27
                      A                      A                      A
 Frequencies --    617.3824               638.0899               644.9294
 Red. masses --      4.7935                 7.0155                 3.0442
 Frc consts  --      1.0765                 1.6830                 0.7460
 IR Inten    --      0.5850                 4.4013                 0.2506

                     28                     29                     30
                      A                      A                      A
 Frequencies --    682.9432               708.0573               727.4022
 Red. masses --      4.0967                 4.0918                 6.2933
 Frc consts  --      1.1258                 1.2086                 1.9619
 IR Inten    --     10.2987                 4.9376                 5.9802

                     31                     32                     33
                      A                      A                      A
 Frequencies --    756.2652               759.9583               788.7622
 Red. masses --      1.6532                 2.8360                 4.4812
 Frc consts  --      0.5571                 0.9650                 1.6426
 IR Inten    --     10.7286                 1.3652                 1.7237

                     34                     35                     36
                      A                      A                      A
 Frequencies --    795.6929               801.4245               806.3488
 Red. masses --      1.5109                 2.2919                 2.1657
 Frc consts  --      0.5636                 0.8673                 0.8296
 IR Inten    --      1.7935                47.6061                 2.3970

                     37                     38                     39
                      A                      A                      A
 Frequencies --    842.0852               880.4390               892.1740
 Red. masses --      1.5301                 2.7391                 1.3776
 Frc consts  --      0.6393                 1.2510                 0.6461
 IR Inten    --     28.3106                 1.8817                 0.8863

                     40                     41                     42
                      A                      A                      A
 Frequencies --    921.7050               961.4100               970.6294
 Red. masses --      1.2698                 2.9666                 2.6989
 Frc consts  --      0.6356                 1.6156                 1.4981
 IR Inten    --      0.0056                 0.1077                 4.9459

                     43                     44                     45
                      A                      A                      A
 Frequencies --    974.5326               998.4471              1009.6821
 Red. masses --      1.3965                 1.2844                 6.5371
 Frc consts  --      0.7814                 0.7544                 3.9265
 IR Inten    --      0.1354                 0.1289                11.8778

                     46                     47                     48
                      A                      A                      A
 Frequencies --   1059.6343              1077.4752              1087.1393
 Red. masses --      3.0846                 3.0985                 2.1570
 Frc consts  --      2.0406                 2.1194                 1.5020
 IR Inten    --      3.5513                28.5391                 8.7350

                     49                     50                     51
                      A                      A                      A
 Frequencies --   1095.1587              1118.7932              1129.3735
 Red. masses --      1.7443                 2.0666                 1.5930
 Frc consts  --      1.2326                 1.5241                 1.1971
 IR Inten    --      7.6209                19.7357                 1.4023

                     52                     53                     54
                      A                      A                      A
 Frequencies --   1181.4439              1186.0006              1192.3817
 Red. masses --      1.4386                 1.2692                 1.1238
 Frc consts  --      1.1830                 1.0518                 0.9414
 IR Inten    --     15.1687                 0.7283                12.6501

                     55                     56                     57
                      A                      A                      A
 Frequencies --   1200.6412              1211.4198              1232.9973
 Red. masses --      1.7716                 2.0973                 1.7957
 Frc consts  --      1.5047                 1.8134                 1.6084
 IR Inten    --     76.1163                32.1902                 5.5955

                     58                     59                     60
                      A                      A                      A
 Frequencies --   1265.8292              1292.2305              1303.4951
 Red. masses --      2.0114                 3.0538                 1.4405
 Frc consts  --      1.8989                 3.0045                 1.4420
 IR Inten    --     23.1913               288.8770               115.6835

                     61                     62                     63
                      A                      A                      A
 Frequencies --   1314.3939              1339.2101              1360.2217
 Red. masses --      2.8122                 1.8467                 1.8328
 Frc consts  --      2.8626                 1.9514                 1.9980
 IR Inten    --    194.8688                 4.6595                18.3851

                     64                     65                     66
                      A                      A                      A
 Frequencies --   1368.9261              1383.7742              1404.8858
 Red. masses --      3.2918                 2.0948                 4.5072
 Frc consts  --      3.6345                 2.3633                 5.2413
 IR Inten    --      6.1164                 7.2120               146.1721

                     67                     68                     69
                      A                      A                      A
 Frequencies --   1435.0663              1455.2235              1488.9026
 Red. masses --      1.2553                 2.6714                 2.4327
 Frc consts  --      1.5232                 3.3330                 3.1774
 IR Inten    --      4.7669                10.9342                 6.3827

                     70                     71                     72
                      A                      A                      A
 Frequencies --   1497.9674              1503.4720              1512.2233
 Red. masses --      2.8602                 1.4330                 2.3993
 Frc consts  --      3.7813                 1.9085                 3.2327
 IR Inten    --     31.9772                 5.8546               122.5128

                     73                     74                     75
                      A                      A                      A
 Frequencies --   1520.9435              1525.1814              1527.9784
 Red. masses --      1.0484                 1.0434                 1.0637
 Frc consts  --      1.4289                 1.4300                 1.4633
 IR Inten    --      4.7837                 7.4908                 5.2173

                     76                     77                     78
                      A                      A                      A
 Frequencies --   1536.0472              1542.6114              1562.1910
 Red. masses --      1.0960                 1.1158                 3.0216
 Frc consts  --      1.5235                 1.5644                 4.3446
 IR Inten    --     60.4184                 8.7877                23.5170

                     79                     80                     81
                      A                      A                      A
 Frequencies --   1608.2022              1622.6887              1624.8737
 Red. masses --      7.7007                 6.4439                 5.4138
 Frc consts  --     11.7345                 9.9971                 8.4216
 IR Inten    --    190.3364                30.3757                 4.3215

                     82                     83                     84
                      A                      A                      A
 Frequencies --   1651.7118              1691.5072              3022.1197
 Red. masses --      5.5020                 6.9886                 1.0348
 Frc consts  --      8.8439                11.7811                 5.5686
 IR Inten    --    172.9966               159.2033                90.6820

                     85                     86                     87
                      A                      A                      A
 Frequencies --   3048.3012              3048.8158              3076.9065
 Red. masses --      1.0571                 1.0385                 1.1022
 Frc consts  --      5.7873                 5.6876                 6.1480
 IR Inten    --     29.1665                35.4563                13.7430

                     88                     89                     90
                      A                      A                      A
 Frequencies --   3079.3090              3117.0333              3125.5369
 Red. masses --      1.1065                 1.1022                 1.1030
 Frc consts  --      6.1817                 6.3097                 6.3484
 IR Inten    --     47.5360                48.1470                29.7941

                     91                     92                     93
                      A                      A                      A
 Frequencies --   3153.2276              3169.2112              3188.7954
 Red. masses --      1.0994                 1.0894                 1.0888
 Frc consts  --      6.4405                 6.4465                 6.5232
 IR Inten    --     35.6225                39.1178                12.6242

                     94                     95                     96
                      A                      A                      A
 Frequencies --   3195.8800              3217.5774              3219.5220
 Red. masses --      1.0892                 1.0914                 1.0959
 Frc consts  --      6.5543                 6.6573                 6.6926
 IR Inten    --     13.7764                 6.1070                25.0751

                     97                     98                     99
                      A                      A                      A
 Frequencies --   3231.9838              3262.3555              3649.7494
 Red. masses --      1.0909                 1.0909                 1.0793
 Frc consts  --      6.7138                 6.8409                 8.4703
 IR Inten    --     19.4278                 4.3469                96.3533

 - Thermochemistry -
 -------------------
 Temperature   298.150 Kelvin.  Pressure   1.00000 Atm.
 Atom     1 has atomic number  6 and mass  12.00000

 Molecular mass:   252.12626 amu.
 Principal axes and moments of inertia in atomic units:
                           1         2         3
     Eigenvalues --  2026.517559454.47386**********
           X            0.99999   0.00308   0.00091
           Y           -0.00309   0.99999   0.00410
           Z           -0.00090  -0.00410   0.99999
 This molecule is an asymmetric top.
 Rotational symmetry number  1.
 Warning -- assumption of classical behavior for rotation
           may cause significant error
 Rotational temperatures (Kelvin)      0.04274     0.00916     0.00766
 Rotational constants (GHZ):           0.89056     0.19089     0.15961
 Zero-point vibrational energy     760181.6 (Joules/Mol)
                                  181.68777 (Kcal/Mol)
 Warning -- explicit consideration of  25 degrees of freedom as
           vibrations may cause significant error
 Vibrational temperatures:     50.51    62.09   111.50   133.36   138.85
          (Kelvin)            147.87   231.35   276.15   313.88   335.72
                              375.55   389.86   400.72   448.04   477.59
                              510.19   583.14   601.27   633.47   651.94
                              770.07   793.44   806.49   822.01   888.28
                              918.07   927.91   982.60  1018.74  1046.57
                             1088.10  1093.41  1134.85  1144.82  1153.07
                             1160.16  1211.57  1266.76  1283.64  1326.13
                             1383.25  1396.52  1402.14  1436.54  1452.71
                             1524.58  1550.25  1564.15  1575.69  1609.69
                             1624.92  1699.83  1706.39  1715.57  1727.45
                             1742.96  1774.01  1821.25  1859.23  1875.44
                             1891.12  1926.82  1957.06  1969.58  1990.94
                             2021.32  2064.74  2093.74  2142.20  2155.24
                             2163.16  2175.75  2188.30  2194.40  2198.42
                             2210.03  2219.47  2247.64  2313.84  2334.69
                             2337.83  2376.44  2433.70  4348.16  4385.83
                             4386.57  4426.98  4430.44  4484.72  4496.95
                             4536.79  4559.79  4587.97  4598.16  4629.38
                             4632.17  4650.10  4693.80  5251.18

 Zero-point correction=                           0.289538 (Hartree/Particle)
 Thermal correction to Energy=                    0.305822
 Thermal correction to Enthalpy=                  0.306766
 Thermal correction to Gibbs Free Energy=         0.245209
 Sum of electronic and zero-point Energies=           -803.857121
 Sum of electronic and thermal Energies=              -803.840837
 Sum of electronic and thermal Enthalpies=            -803.839892
 Sum of electronic and thermal Free Energies=         -803.901450

                     E (Thermal)             CV                S
                      KCal/Mol        Cal/Mol-Kelvin    Cal/Mol-Kelvin
 Total                  191.906             63.958            129.559
 Electronic               0.000              0.000              0.000
 Translational            0.889              2.981             42.475
 Rotational               0.889              2.981             33.737
 Vibrational            190.129             57.996             53.347
 Vibration     1          0.594              1.982              5.518
 Vibration     2          0.595              1.980              5.109
 Vibration     3          0.599              1.964              3.953
 Vibration     4          0.602              1.954              3.603
 Vibration     5          0.603              1.952              3.524
 Vibration     6          0.605              1.947              3.401
 Vibration     7          0.622              1.890              2.540
 Vibration     8          0.634              1.851              2.209
 Vibration     9          0.646              1.813              1.974
 Vibration    10          0.654              1.790              1.853
 Vibration    11          0.669              1.744              1.655
 Vibration    12          0.675              1.727              1.590
 Vibration    13          0.679              1.713              1.543
 Vibration    14          0.700              1.652              1.355
 Vibration    15          0.714              1.612              1.251
 Vibration    16          0.730              1.566              1.146
 Vibration    17          0.770              1.459              0.943
 Vibration    18          0.781              1.431              0.899
 Vibration    19          0.800              1.382              0.826
 Vibration    20          0.812              1.354              0.786
 Vibration    21          0.890              1.172              0.576
 Vibration    22          0.907              1.136              0.541
 Vibration    23          0.916              1.117              0.523
 Vibration    24          0.927              1.093              0.502
 Vibration    25          0.977              0.995              0.421

 Optimization completed.
    -- Stationary point found.
 Normal termination of Gaussian 16 at Sun Dec 13 16:30:55 2020.

 ----------------------------------------------------------------------
 # B3LYP/6-311++G(d,p) empiricaldispersion=gd3bj scf=xqc pop=npa geom=c
 heck
 ----------------------------------------------------------------------

 ---------------------------------------
 CID_154167971_JID_9773_Energie_neutraal
 ---------------------------------------
 Structure from the checkpoint file:  "JID_9773.chk"
 Charge =  0 Multiplicity = 1

 SCF Done:  E(RB3LYP) =  -804.354361573     A.U. after   15 cycles
 Normal termination of Gaussian 16 at Sun Dec 13 16:38:30 2020.

 ----------------------------------------------------------------------
 # B3LYP/6-311++G(d,p) empiricaldispersion=gd3bj scf=xqc pop=npa geom=c
 heck
 ----------------------------------------------------------------------

 -------------------------------------
 CID_154167971_JID_9773_Energie_kation
 -------------------------------------
 Structure from the checkpoint file:  "JID_9773.chk"
 Charge =  1 Multiplicity = 2

 SCF Done:  E(UB3LYP) =  -804.107816749     A.U. after   22 cycles
 Normal termination of Gaussian 16 at Sun Dec 13 16:54:28 2020.
 Gaussian 16:  ES64L-G16RevA.03 25-Dec-2016

 ----------------------------------------------------------------------
 # B3LYP/6-311++G(d,p) empiricaldispersion=gd3bj scf=xqc pop=npa geom=c
 heck
 ----------------------------------------------------------------------

 ------------------------------------
 CID_154167971_JID_9773_Energie_anion
 ------------------------------------
 Structure from the checkpoint file:  "JID_9773.chk"
 Charge = -1 Multiplicity = 2

                         Standard orientation:
 ---------------------------------------------------------------------
 Center     Atomic      Atomic             Coordinates (Angstroms)
 Number     Number       Type             X           Y           Z
 ---------------------------------------------------------------------
      1          6           0        1.108981    3.215103    0.849945
      2          6           0        0.798415    2.492271   -0.472546
      3          6           0        0.312166    1.085981   -0.273588
      4          6           0        1.038021   -0.085510   -0.094733
      5          7           0        0.149035   -1.142983    0.075133
      6          6           0       -1.140244   -0.690840    0.018931
      7          6           0       -1.075841    0.718431   -0.195357
      8          6           0       -2.277223    1.435459   -0.288751
      9          6           0       -3.490162    0.768391   -0.174219
     10          6           0       -3.524124   -0.630833    0.036376
     11          6           0       -2.349855   -1.375347    0.134947
     12          8           0       -4.683635   -1.349022    0.157918
     13          6           0       -5.914671   -0.656137    0.066262
     14          6           0        2.461264   -0.403949   -0.060573
     15          6           0        3.483152    0.561975   -0.106327
     16          6           0        4.808345    0.145339   -0.073723
     17          6           0        5.096571   -1.216859    0.013503
     18          6           0        4.021914   -2.103920    0.069231
     19          7           0        2.744208   -1.724875    0.033170
     20          1           0        0.220140    3.238069    1.489065
     21          1           0        1.432048    4.247376    0.671519
     22          1           0        1.898975    2.699133    1.406596
     23          1           0        0.024904    3.054274   -1.010195
     24          1           0        1.679100    2.509752   -1.125331
     25          1           0        0.483926   -2.088939    0.186003
     26          1           0       -2.268642    2.510320   -0.448274
     27          1           0       -4.412531    1.331185   -0.246883
     28          1           0       -2.405477   -2.446418    0.296897
     29          1           0       -6.016081    0.098314    0.857923
     30          1           0       -6.034365   -0.168192   -0.910344
     31          1           0       -6.693099   -1.411722    0.188250
     32          1           0        3.244622    1.615434   -0.154212
     33          1           0        5.608595    0.879310   -0.109752
     34          1           0        6.117801   -1.582138    0.044104
     35          1           0        4.196213   -3.175912    0.146901
 ---------------------------------------------------------------------

 SCF Done:  E(UB3LYP) =  -804.359559783     A.U. after   31 cycles

 The electronic state is 2-A.
 Alpha  occ. eigenvalues --  -19.04056 -14.20467 -14.15240 -10.12976 -10.10122
 Alpha  occ. eigenvalues --  -10.07525 -10.06732 -10.05592 -10.05550 -10.05256
 Alpha  occ. eigenvalues --  -10.04753 -10.04275 -10.04114 -10.03787 -10.03778
 Alpha  occ. eigenvalues --  -10.03751 -10.03248 -10.02670 -10.02050  -0.95629
 Alpha  occ. eigenvalues --   -0.84212  -0.79433  -0.71332  -0.67811  -0.65998
 Alpha  occ. eigenvalues --   -0.64180  -0.63445  -0.60807  -0.60377  -0.56315
 Alpha  occ. eigenvalues --   -0.51753  -0.51339  -0.49033  -0.47459  -0.45449
 Alpha  occ. eigenvalues --   -0.42998  -0.41415  -0.39747  -0.36966  -0.36956
 Alpha  occ. eigenvalues --   -0.36332  -0.34430  -0.34328  -0.33335  -0.31750
 Alpha  occ. eigenvalues --   -0.31247  -0.30679  -0.29946  -0.29317  -0.28291
 Alpha  occ. eigenvalues --   -0.26539  -0.26371  -0.25947  -0.25417  -0.25256
 Alpha  occ. eigenvalues --   -0.24290  -0.23341  -0.23152  -0.21186  -0.20285
 Alpha  occ. eigenvalues --   -0.18908  -0.15704  -0.14867  -0.12584  -0.12117
 Alpha  occ. eigenvalues --   -0.09156  -0.06226   0.04504
 Alpha virt. eigenvalues --    0.06651   0.07894   0.08602   0.09223   0.09807
 Alpha virt. eigenvalues --    0.10282   0.10520   0.10596   0.10775   0.11157
 Alpha virt. eigenvalues --    0.12107   0.12336   0.12803   0.13107   0.13798

  Beta  occ. eigenvalues --  -19.04040 -14.20409 -14.14902 -10.12974 -10.10023
  Beta  occ. eigenvalues --  -10.07549 -10.06822 -10.05520 -10.05271 -10.05267
  Beta  occ. eigenvalues --  -10.04728 -10.04158 -10.04128 -10.03804 -10.03695
  Beta  occ. eigenvalues --  -10.03574 -10.03301 -10.02393 -10.01843  -0.95575
  Beta  occ. eigenvalues --   -0.84074  -0.78916  -0.71165  -0.67598  -0.65533
  Beta  occ. eigenvalues --   -0.64032  -0.63117  -0.60701  -0.60202  -0.56099
  Beta  occ. eigenvalues --   -0.51528  -0.51069  -0.48861  -0.47259  -0.45281
  Beta  occ. eigenvalues --   -0.42890  -0.41245  -0.39628  -0.36887  -0.36867
  Beta  occ. eigenvalues --   -0.36204  -0.34348  -0.34172  -0.33158  -0.31616
  Beta  occ. eigenvalues --   -0.31115  -0.30598  -0.29842  -0.28967  -0.28181
  Beta  occ. eigenvalues --   -0.26341  -0.25809  -0.25612  -0.25341  -0.25032
  Beta  occ. eigenvalues --   -0.23880  -0.23219  -0.23088  -0.21103  -0.20195
  Beta  occ. eigenvalues --   -0.18348  -0.14356  -0.13923  -0.11720  -0.11694
  Beta  occ. eigenvalues --   -0.08652  -0.05136
  Beta virt. eigenvalues --    0.06617   0.07755   0.08539   0.09163   0.09521
  Beta virt. eigenvalues --    0.09758   0.10247   0.10557   0.10779   0.10987
  Beta virt. eigenvalues --    0.11187   0.12120   0.12751   0.13051   0.13160

 Mulliken charges and spin densities:
               1          2
     1  C   -0.481619  -0.159256
     2  C   -0.477002   0.127148
     3  C    0.769007   0.044806
     4  C    0.363947   0.026488
     5  N   -0.045695   0.028983
     6  C    0.024968  -0.019674
     7  C    1.129956  -0.009953
     8  C   -0.771667   0.159704
     9  C   -0.262939  -0.056955
    10  C   -0.653225   0.049762
    11  C   -1.007526   0.057205
    12  O   -0.178348   0.003909
    13  C   -0.323225  -0.008329
    14  C   -0.264099   0.156791
    15  C   -0.105670  -0.028275
    16  C   -0.256721   0.095836
    17  C   -0.294853   0.216287
    18  C   -0.002184  -0.045426
    19  N   -0.097205   0.164618
    20  H    0.118876   0.016573
    21  H    0.004489   0.086664
    22  H    0.111349   0.026441
    23  H    0.114767   0.039676
    24  H    0.111077   0.029757
    25  H    0.295481  -0.001360
    26  H    0.083454  -0.003210
    27  H    0.128484   0.003884
    28  H    0.129803  -0.004257
    29  H    0.120630   0.011560
    30  H    0.130393   0.001767
    31  H    0.148625  -0.000189
    32  H    0.082485  -0.011404
    33  H    0.120478   0.012707
    34  H    0.102450  -0.017449
    35  H    0.131257   0.005172
 Sum of Mulliken charges =  -1.00000   1.00000

 Dipole moment (field-independent basis, Debye):
    X=             -4.3401    Y=              1.1960    Z=              0.0340  Tot=              4.5020
 Quadrupole moment (field-independent basis, Debye-Ang):
   XX=           -161.7245   YY=           -130.2125   ZZ=           -126.5052
   XY=              1.8658   XZ=             -0.1896   YZ=             -1.7399

 Summary of Natural Population Analysis:

                                       Natural Population
                Natural  -----------------------------------------------
    Atom  No    Charge         Core      Valence    Rydberg      Total
 -----------------------------------------------------------------------
      C    1   -0.28734      0.99968     2.27979    0.00786     3.28734
      C    2   -0.17628      0.99962     2.17140    0.00526     3.17628
      C    3   -0.02052      0.99950     2.00937    0.01165     3.02052
      C    4    0.09051      0.99942     1.89708    0.01299     2.90949
      N    5   -0.26674      0.99959     2.75455    0.01259     3.76674
      C    6    0.08612      0.99943     1.90135    0.01310     2.91388
      C    7   -0.06749      0.99943     2.05583    0.01223     3.06749
      C    8   -0.03205      0.99958     2.02763    0.00485     3.03205
      C    9   -0.17942      0.99957     2.16761    0.01224     3.17942
      C   10    0.15745      0.99944     1.82851    0.01460     2.84255
      C   11   -0.12056      0.99951     2.11606    0.00499     3.12056
      O   12   -0.28146      0.99986     3.27025    0.01135     4.28146
      C   13   -0.09870      0.99961     2.09071    0.00838     3.09870
      C   14    0.12779      0.99952     1.86072    0.01198     2.87221
      C   15   -0.11854      0.99954     2.11141    0.00759     3.11854
      C   16   -0.07357      0.99958     2.06513    0.00886     3.07357
      C   17   -0.09191      0.99957     2.08273    0.00961     3.09191
      C   18    0.00693      0.99961     1.97881    0.01465     2.99307
      N   19   -0.20953      0.99968     2.69876    0.01108     3.70953
      H   20    0.09626      0.00000     0.40223    0.00151     0.40374
      H   21    0.08553      0.00000     0.41123    0.00324     0.41447
      H   22    0.09814      0.00000     0.40011    0.00175     0.40186
      H   23    0.09221      0.00000     0.40557    0.00222     0.40779
      H   24    0.09461      0.00000     0.40334    0.00205     0.40539
      H   25    0.20902      0.00000     0.28972    0.00126     0.29098
      H   26    0.09056      0.00000     0.40741    0.00203     0.40944
      H   27    0.09363      0.00000     0.40485    0.00152     0.40637
      H   28    0.09701      0.00000     0.40139    0.00160     0.40299
      H   29    0.07979      0.00000     0.41841    0.00181     0.42021
      H   30    0.07962      0.00000     0.41858    0.00180     0.42038
      H   31    0.08576      0.00000     0.41340    0.00084     0.41424
      H   32    0.09630      0.00000     0.40146    0.00223     0.40370
      H   33    0.08906      0.00000     0.40956    0.00138     0.41094
      H   34    0.08933      0.00000     0.40950    0.00118     0.41067
      H   35    0.07874      0.00000     0.42001    0.00125     0.42126
 =======================================================================
   * Total *    0.00025     18.99174    47.78447    0.22353    66.99975

 Normal termination of Gaussian 16 at Sun Dec 13 17:16:42 2020.
