 Gaussian 16, Revision A.03,

 -----------------------------------------------------------
 # opt freq B3LYP/6-31G(d) empiricaldispersion=gd3bj scf=xqc
 -----------------------------------------------------------

 -------------------------------
 CID_137703746_JID_1323_neutraal
 -------------------------------
 Symbolic Z-matrix:
 Charge =  0 Multiplicity = 1

 SCF Done:  E(RB3LYP) =  -514.048485205     A.U. after   14 cycles
 SCF Done:  E(RB3LYP) =  -514.050734003     A.U. after   12 cycles
 SCF Done:  E(RB3LYP) =  -514.051016950     A.U. after   11 cycles
 SCF Done:  E(RB3LYP) =  -514.051085098     A.U. after   11 cycles
 SCF Done:  E(RB3LYP) =  -514.051139444     A.U. after   10 cycles
 SCF Done:  E(RB3LYP) =  -514.051149454     A.U. after    9 cycles
 SCF Done:  E(RB3LYP) =  -514.051153847     A.U. after   10 cycles
 SCF Done:  E(RB3LYP) =  -514.051158409     A.U. after   10 cycles
 SCF Done:  E(RB3LYP) =  -514.051168628     A.U. after   10 cycles
 SCF Done:  E(RB3LYP) =  -514.051176529     A.U. after   10 cycles
 SCF Done:  E(RB3LYP) =  -514.051184032     A.U. after    7 cycles
 SCF Done:  E(RB3LYP) =  -514.051184068     A.U. after    8 cycles
 SCF Done:  E(RB3LYP) =  -514.051184036     A.U. after    7 cycles
 SCF Done:  E(RB3LYP) =  -514.051184011     A.U. after    7 cycles
 SCF Done:  E(RB3LYP) =  -514.051183940     A.U. after    8 cycles
 SCF Done:  E(RB3LYP) =  -514.051183917     A.U. after    7 cycles
 Optimization completed.
    -- Stationary point found.
 Normal termination of Gaussian 16 at Tue Dec  8 19:44:25 2020.

 --------------------------------------------------------------------
 #N Geom=AllCheck Guess=TCheck SCRF=Check GenChk RB3LYP/6-31G(d) Freq
 --------------------------------------------------------------------

 Structure from the checkpoint file:  "JID_1323.chk"
 -------------------------------
 CID_137703746_JID_1323_neutraal
 -------------------------------
 Charge =  0 Multiplicity = 1

 SCF Done:  E(RB3LYP) =  -514.051183917     A.U. after    1 cycles

  Exact polarizability: 123.544  -6.025  81.933   2.504   7.201  75.712
 Approx polarizability: 161.232  -7.957 135.113   5.944  22.779 112.636

                      1                      2                      3
                      A                      A                      A
 Frequencies --     23.2189                36.7871                65.1754
 Red. masses --      2.7694                 3.0383                 3.6303
 Frc consts  --      0.0009                 0.0024                 0.0091
 IR Inten    --      2.8445                 3.5605                 3.1511

                      4                      5                      6
                      A                      A                      A
 Frequencies --     83.7139               143.7151               208.0122
 Red. masses --      3.9154                 4.0432                 1.2943
 Frc consts  --      0.0162                 0.0492                 0.0330
 IR Inten    --      3.3226                 0.1555                 1.5722

                      7                      8                      9
                      A                      A                      A
 Frequencies --    244.9198               274.3153               295.0618
 Red. masses --      1.1124                 2.1161                 1.2255
 Frc consts  --      0.0393                 0.0938                 0.0629
 IR Inten    --      1.9978                 1.9936                65.9488

                     10                     11                     12
                      A                      A                      A
 Frequencies --    315.2722               345.4360               400.5708
 Red. masses --      2.6091                 2.9789                 3.0251
 Frc consts  --      0.1528                 0.2094                 0.2860
 IR Inten    --      4.2483                37.1154                21.7798

                     13                     14                     15
                      A                      A                      A
 Frequencies --    419.4291               454.6788               467.8283
 Red. masses --      2.5353                 2.7401                 2.9146
 Frc consts  --      0.2628                 0.3338                 0.3758
 IR Inten    --      5.4790                 1.6973                 4.8195

                     16                     17                     18
                      A                      A                      A
 Frequencies --    639.0352               687.8748               722.1807
 Red. masses --      3.7244                 3.9381                 5.1433
 Frc consts  --      0.8961                 1.0979                 1.5805
 IR Inten    --      2.8427                 2.6404                 2.0871

                     19                     20                     21
                      A                      A                      A
 Frequencies --    773.4606               800.0151               809.0192
 Red. masses --      1.4893                 1.5991                 2.0475
 Frc consts  --      0.5249                 0.6030                 0.7896
 IR Inten    --     12.9940                 5.0997                 6.3208

                     22                     23                     24
                      A                      A                      A
 Frequencies --    848.0942               906.2129               963.5978
 Red. masses --      2.8075                 1.3953                 2.1184
 Frc consts  --      1.1897                 0.6751                 1.1589
 IR Inten    --      1.4041                 4.1942                21.3698

                     25                     26                     27
                      A                      A                      A
 Frequencies --    979.5277              1043.3485              1061.0838
 Red. masses --      2.2601                 4.0079                 2.4633
 Frc consts  --      1.2777                 2.5706                 1.6341
 IR Inten    --      4.8051                29.2511                54.7880

                     28                     29                     30
                      A                      A                      A
 Frequencies --   1069.1425              1096.4022              1107.0456
 Red. masses --      2.2732                 2.1455                 2.4149
 Frc consts  --      1.5310                 1.5195                 1.7437
 IR Inten    --      8.6598                41.2779                29.6330

                     31                     32                     33
                      A                      A                      A
 Frequencies --   1118.1594              1141.8153              1169.5735
 Red. masses --      1.9069                 1.8853                 1.9652
 Frc consts  --      1.4047                 1.4482                 1.5839
 IR Inten    --      3.8625                48.5658                26.0036

                     34                     35                     36
                      A                      A                      A
 Frequencies --   1218.0866              1259.1303              1290.4397
 Red. masses --      1.6130                 1.8683                 2.0071
 Frc consts  --      1.4101                 1.7452                 1.9692
 IR Inten    --      9.8804                 8.3680                12.7202

                     37                     38                     39
                      A                      A                      A
 Frequencies --   1302.1048              1353.1005              1363.7750
 Red. masses --      2.2829                 1.6540                 1.6598
 Frc consts  --      2.2805                 1.7842                 1.8188
 IR Inten    --     17.8276                19.5872                 6.4067

                     40                     41                     42
                      A                      A                      A
 Frequencies --   1386.7762              1402.0727              1408.9259
 Red. masses --      1.5579                 1.4690                 2.0883
 Frc consts  --      1.7653                 1.7014                 2.4424
 IR Inten    --      3.7947                 4.4862                37.9416

                     43                     44                     45
                      A                      A                      A
 Frequencies --   1433.5969              1439.3940              1445.3612
 Red. masses --      1.1934                 1.2624                 1.3147
 Frc consts  --      1.4451                 1.5410                 1.6182
 IR Inten    --     31.8111                 7.1948                36.7746

                     46                     47                     48
                      A                      A                      A
 Frequencies --   1492.4690              1505.2468              1516.3465
 Red. masses --      2.4523                 1.1072                 1.2776
 Frc consts  --      3.2184                 1.4780                 1.7308
 IR Inten    --     17.4031                 2.2469                 7.9520

                     49                     50                     51
                      A                      A                      A
 Frequencies --   1519.9763              1521.1417              1525.8673
 Red. masses --      1.0497                 1.0631                 1.0720
 Frc consts  --      1.4289                 1.4493                 1.4706
 IR Inten    --      9.9186                 4.2208                 7.5579

                     52                     53                     54
                      A                      A                      A
 Frequencies --   1534.0268              1596.9771              3041.5854
 Red. masses --      1.0662                 6.2354                 1.0454
 Frc consts  --      1.4782                 9.3693                 5.6983
 IR Inten    --      2.6209                 6.3068                13.8784

                     55                     56                     57
                      A                      A                      A
 Frequencies --   3047.6592              3061.8393              3065.4591
 Red. masses --      1.0653                 1.0351                 1.0797
 Frc consts  --      5.8296                 5.7175                 5.9781
 IR Inten    --     15.1126                15.0368                34.9003

                     58                     59                     60
                      A                      A                      A
 Frequencies --   3084.4362              3104.0126              3116.1488
 Red. masses --      1.0643                 1.1011                 1.0943
 Frc consts  --      5.9659                 6.2507                 6.2605
 IR Inten    --     24.8684                18.9106                36.2501

                     61                     62                     63
                      A                      A                      A
 Frequencies --   3127.7290              3140.2541              3147.9346
 Red. masses --      1.1030                 1.1008                 1.1027
 Frc consts  --      6.3576                 6.3956                 6.4379
 IR Inten    --     11.7101                22.5523                18.5374

                     64                     65                     66
                      A                      A                      A
 Frequencies --   3153.8906              3291.4436              3721.1871
 Red. masses --      1.1048                 1.0989                 1.0657
 Frc consts  --      6.4746                 7.0140                 8.6950
 IR Inten    --     16.9854                 0.2241                 9.4168

 - Thermochemistry -
 -------------------
 Temperature   298.150 Kelvin.  Pressure   1.00000 Atm.
 Atom     1 has atomic number  6 and mass  12.00000

 Molecular mass:   155.10586 amu.
 Principal axes and moments of inertia in atomic units:
                           1         2         3
     Eigenvalues --   716.403023553.202213636.80446
           X            0.99975  -0.02238  -0.00163
           Y            0.02220   0.99713  -0.07240
           Z            0.00325   0.07235   0.99737
 This molecule is an asymmetric top.
 Rotational symmetry number  1.
 Warning -- assumption of classical behavior for rotation
           may cause significant error
 Rotational temperatures (Kelvin)      0.12090     0.02438     0.02382
 Rotational constants (GHZ):           2.51917     0.50792     0.49624
 Zero-point vibrational energy     540306.1 (Joules/Mol)
                                  129.13625 (Kcal/Mol)
 Warning -- explicit consideration of  15 degrees of freedom as
           vibrations may cause significant error
 Vibrational temperatures:     33.41    52.93    93.77   120.45   206.77
          (Kelvin)            299.28   352.39   394.68   424.53   453.61
                              497.01   576.33   603.46   654.18   673.10
                              919.43   989.70  1039.06  1112.84  1151.04
                             1164.00  1220.22  1303.84  1386.40  1409.32
                             1501.15  1526.66  1538.26  1577.48  1592.79
                             1608.78  1642.82  1682.76  1752.55  1811.61
                             1856.65  1873.44  1946.81  1962.17  1995.26
                             2017.27  2027.13  2062.63  2070.97  2079.55
                             2147.33  2165.71  2181.68  2186.91  2188.58
                             2195.38  2207.12  2297.69  4376.16  4384.90
                             4405.30  4410.51  4437.82  4465.98  4483.44
                             4500.10  4518.13  4529.18  4537.75  4735.65
                             5353.96

 Zero-point correction=                           0.205792 (Hartree/Particle)
 Thermal correction to Energy=                    0.217551
 Thermal correction to Enthalpy=                  0.218495
 Thermal correction to Gibbs Free Energy=         0.166237
 Sum of electronic and zero-point Energies=           -513.845392
 Sum of electronic and thermal Energies=              -513.833633
 Sum of electronic and thermal Enthalpies=            -513.832689
 Sum of electronic and thermal Free Energies=         -513.884947

                     E (Thermal)             CV                S
                      KCal/Mol        Cal/Mol-Kelvin    Cal/Mol-Kelvin
 Total                  136.515             42.329            109.987
 Electronic               0.000              0.000              0.000
 Translational            0.889              2.981             41.026
 Rotational               0.889              2.981             30.605
 Vibrational            134.738             36.367             38.356
 Vibration     1          0.593              1.985              6.338
 Vibration     2          0.594              1.982              5.425
 Vibration     3          0.597              1.971              4.294
 Vibration     4          0.601              1.960              3.802
 Vibration     5          0.616              1.909              2.754
 Vibration     6          0.641              1.828              2.061
 Vibration     7          0.660              1.771              1.767
 Vibration     8          0.677              1.721              1.569
 Vibration     9          0.689              1.683              1.445
 Vibration    10          0.703              1.644              1.335
 Vibration    11          0.724              1.585              1.187
 Vibration    12          0.766              1.469              0.961
 Vibration    13          0.782              1.428              0.894
 Vibration    14          0.813              1.351              0.782
 Vibration    15          0.825              1.321              0.744

 Optimization completed.
    -- Stationary point found.
 Normal termination of Gaussian 16 at Tue Dec  8 19:49:02 2020.

 ----------------------------------------------------------------------
 # B3LYP/6-311++G(d,p) empiricaldispersion=gd3bj scf=xqc pop=npa geom=c
 heck
 ----------------------------------------------------------------------

 ---------------------------------------
 CID_137703746_JID_1323_Energie_neutraal
 ---------------------------------------
 Structure from the checkpoint file:  "JID_1323.chk"
 Charge =  0 Multiplicity = 1

 SCF Done:  E(RB3LYP) =  -514.203336660     A.U. after   14 cycles
 Normal termination of Gaussian 16 at Tue Dec  8 19:51:19 2020.

 ----------------------------------------------------------------------
 # B3LYP/6-311++G(d,p) empiricaldispersion=gd3bj scf=xqc pop=npa geom=c
 heck
 ----------------------------------------------------------------------

 -------------------------------------
 CID_137703746_JID_1323_Energie_kation
 -------------------------------------
 Structure from the checkpoint file:  "JID_1323.chk"
 Charge =  1 Multiplicity = 2

 SCF Done:  E(UB3LYP) =  -513.878414304     A.U. after   23 cycles
 Normal termination of Gaussian 16 at Tue Dec  8 19:56:13 2020.
 Gaussian 16:  ES64L-G16RevA.03 25-Dec-2016

 ----------------------------------------------------------------------
 # B3LYP/6-311++G(d,p) empiricaldispersion=gd3bj scf=xqc pop=npa geom=c
 heck
 ----------------------------------------------------------------------

 ------------------------------------
 CID_137703746_JID_1323_Energie_anion
 ------------------------------------
 Structure from the checkpoint file:  "JID_1323.chk"
 Charge = -1 Multiplicity = 2

                         Standard orientation:
 ---------------------------------------------------------------------
 Center     Atomic      Atomic             Coordinates (Angstroms)
 Number     Number       Type             X           Y           Z
 ---------------------------------------------------------------------
      1          6           0        3.518473   -1.262185    0.772603
      2          6           0        3.286654   -0.172926   -0.273691
      3          7           0        1.894651    0.255104   -0.320987
      4          6           0        0.832645   -0.340556   -0.921628
      5          6           0       -0.250677    0.442964   -0.576704
      6          7           0        0.206927    1.459741    0.217227
      7          7           0        1.499209    1.344450    0.373109
      8          6           0       -1.698695    0.272760   -0.907384
      9          6           0       -2.478352   -0.563107    0.131490
     10          6           0       -2.560829    0.114638    1.496062
     11          8           0       -3.775568   -0.884844   -0.371035
     12          1           0        3.230083   -0.901473    1.764309
     13          1           0        4.576890   -1.542035    0.796484
     14          1           0        2.930970   -2.158018    0.546228
     15          1           0        3.867023    0.723108   -0.043504
     16          1           0        3.569590   -0.515176   -1.274161
     17          1           0        0.929966   -1.226342   -1.530664
     18          1           0       -2.162671    1.264600   -0.985417
     19          1           0       -1.810396   -0.220621   -1.878650
     20          1           0       -1.977321   -1.532959    0.235122
     21          1           0       -3.090377    1.073551    1.412646
     22          1           0       -3.105439   -0.520986    2.201058
     23          1           0       -1.566448    0.330682    1.896636
     24          1           0       -4.288151   -0.060175   -0.381736
 ---------------------------------------------------------------------

 SCF Done:  E(UB3LYP) =  -514.192239167     A.U. after   31 cycles

 The electronic state is 2-A.
 Alpha  occ. eigenvalues --  -19.03036 -14.29570 -14.26031 -14.22561 -10.13057
 Alpha  occ. eigenvalues --  -10.11596 -10.10597 -10.09734 -10.07940 -10.06685
 Alpha  occ. eigenvalues --  -10.06651  -0.99135  -0.93280  -0.81365  -0.72119
 Alpha  occ. eigenvalues --   -0.67762  -0.66156  -0.60729  -0.56258  -0.52657
 Alpha  occ. eigenvalues --   -0.49683  -0.48341  -0.42180  -0.39714  -0.38027
 Alpha  occ. eigenvalues --   -0.37515  -0.35415  -0.35152  -0.34032  -0.32321
 Alpha  occ. eigenvalues --   -0.30526  -0.29262  -0.28281  -0.27498  -0.26844
 Alpha  occ. eigenvalues --   -0.26267  -0.23845  -0.22505  -0.19443  -0.18420
 Alpha  occ. eigenvalues --   -0.17000  -0.14948   0.04427
 Alpha virt. eigenvalues --    0.06028   0.07813   0.07955   0.08820   0.09480
 Alpha virt. eigenvalues --    0.09959   0.10037   0.11008   0.11543   0.11764
 Alpha virt. eigenvalues --    0.12823   0.13208   0.13997   0.14848   0.15092

  Beta  occ. eigenvalues --  -19.03013 -14.29557 -14.25986 -14.22556 -10.13053
  Beta  occ. eigenvalues --  -10.11558 -10.10541 -10.09736 -10.07927 -10.06635
  Beta  occ. eigenvalues --  -10.06634  -0.99090  -0.93236  -0.81322  -0.72071
  Beta  occ. eigenvalues --   -0.67706  -0.66107  -0.60693  -0.56161  -0.52612
  Beta  occ. eigenvalues --   -0.49625  -0.48269  -0.42093  -0.39661  -0.37973
  Beta  occ. eigenvalues --   -0.37431  -0.35373  -0.35078  -0.34002  -0.32281
  Beta  occ. eigenvalues --   -0.30477  -0.29198  -0.28213  -0.27468  -0.26817
  Beta  occ. eigenvalues --   -0.26218  -0.23806  -0.22464  -0.19411  -0.18313
  Beta  occ. eigenvalues --   -0.16966  -0.14818
  Beta virt. eigenvalues --    0.06574   0.07578   0.08241   0.08848   0.09179
  Beta virt. eigenvalues --    0.09812   0.10251   0.10669   0.11580   0.11746
  Beta virt. eigenvalues --    0.12230   0.13124   0.13314   0.14447   0.14900

 Mulliken charges and spin densities:
               1          2
     1  C    1.229422  -1.671939
     2  C    0.061971  -0.283828
     3  N    0.170728   0.123623
     4  C    0.223752  -0.725989
     5  C   -0.020527   0.181072
     6  N   -0.110055  -0.039443
     7  N   -0.167464   0.125575
     8  C    0.519255  -0.850901
     9  C   -0.300576   0.099155
    10  C    0.001217  -0.555130
    11  O   -0.225235   0.010489
    12  H    0.012456   0.135416
    13  H   -0.586624   0.733044
    14  H   -0.304452   0.457432
    15  H   -0.119981   0.291694
    16  H   -0.670363   0.852034
    17  H   -0.935898   1.125039
    18  H    0.003106   0.170468
    19  H   -0.053786   0.240006
    20  H    0.132507   0.049806
    21  H   -0.008520   0.146244
    22  H   -0.016710   0.154164
    23  H    0.124553   0.034775
    24  H    0.041225   0.197195
 Sum of Mulliken charges =  -1.00000   1.00000

 Dipole moment (field-independent basis, Debye):
    X=             -5.7057    Y=              2.9312    Z=              2.5026  Tot=              6.8855
 Quadrupole moment (field-independent basis, Debye-Ang):
   XX=           -150.6961   YY=           -105.6292   ZZ=            -98.7451
   XY=              9.5534   XZ=              4.2291   YZ=             -8.1053

 Summary of Natural Population Analysis:

                                       Natural Population
                Natural  -----------------------------------------------
    Atom  No    Charge         Core      Valence    Rydberg      Total
 -----------------------------------------------------------------------
      C    1   -0.28759      0.99966     2.28288    0.00505     3.28759
      C    2   -0.08610      0.99961     2.07453    0.01195     3.08610
      N    3   -0.10054      0.99966     2.58625    0.01463     3.60054
      C    4   -0.01534      0.99947     2.00448    0.01139     3.01534
      C    5    0.03637      0.99956     1.94858    0.01550     2.96363
      N    6   -0.14914      0.99972     2.63572    0.01370     3.64914
      N    7   -0.04140      0.99978     2.52686    0.01476     3.54140
      C    8   -0.21604      0.99958     2.20564    0.01082     3.21604
      C    9    0.06765      0.99958     1.92016    0.01261     2.93235
      C   10   -0.30072      0.99964     2.29598    0.00510     3.30072
      O   11   -0.37130      0.99990     3.36432    0.00708     4.37130
      H   12    0.09958      0.00000     0.39936    0.00106     0.40042
      H   13    0.10677      0.00000     0.39037    0.00287     0.39323
      H   14    0.10171      0.00000     0.39659    0.00170     0.39829
      H   15    0.10568      0.00000     0.39244    0.00188     0.39432
      H   16    0.10662      0.00000     0.38745    0.00593     0.39338
      H   17    0.11458      0.00000     0.38315    0.00226     0.38542
      H   18    0.10324      0.00000     0.39529    0.00147     0.39676
      H   19    0.11029      0.00000     0.38841    0.00130     0.38971
      H   20    0.08560      0.00000     0.41292    0.00148     0.41440
      H   21    0.09454      0.00000     0.40411    0.00135     0.40546
      H   22    0.09927      0.00000     0.39968    0.00105     0.40073
      H   23    0.11191      0.00000     0.38699    0.00110     0.38809
      H   24    0.22433      0.00000     0.27230    0.00337     0.27567
 =======================================================================
   * Total *   -0.00000     10.99616    30.85446    0.14938    42.00000

 Normal termination of Gaussian 16 at Tue Dec  8 20:02:33 2020.
