 Gaussian 16, Revision A.03,

 -----------------------------------------------------------
 # opt freq B3LYP/6-31G(d) empiricaldispersion=gd3bj scf=xqc
 -----------------------------------------------------------

 ------------------------------
 CID_63554148_JID_6358_neutraal
 ------------------------------
 Symbolic Z-matrix:
 Charge =  0 Multiplicity = 1

 SCF Done:  E(RB3LYP) =  -721.842870802     A.U. after   15 cycles
 SCF Done:  E(RB3LYP) =  -721.846997080     A.U. after   12 cycles
 SCF Done:  E(RB3LYP) =  -721.847662779     A.U. after   12 cycles
 SCF Done:  E(RB3LYP) =  -721.847908753     A.U. after   12 cycles
 SCF Done:  E(RB3LYP) =  -721.847991061     A.U. after   12 cycles
 SCF Done:  E(RB3LYP) =  -721.848031239     A.U. after   10 cycles
 SCF Done:  E(RB3LYP) =  -721.848041610     A.U. after   10 cycles
 SCF Done:  E(RB3LYP) =  -721.848046455     A.U. after    9 cycles
 SCF Done:  E(RB3LYP) =  -721.848047146     A.U. after    8 cycles
 SCF Done:  E(RB3LYP) =  -721.848047496     A.U. after    8 cycles
 SCF Done:  E(RB3LYP) =  -721.848047644     A.U. after    7 cycles
 SCF Done:  E(RB3LYP) =  -721.848047737     A.U. after    7 cycles
 SCF Done:  E(RB3LYP) =  -721.848047837     A.U. after    8 cycles
 SCF Done:  E(RB3LYP) =  -721.848047922     A.U. after    8 cycles
 SCF Done:  E(RB3LYP) =  -721.848047980     A.U. after    8 cycles
 SCF Done:  E(RB3LYP) =  -721.848048002     A.U. after    7 cycles
 Optimization completed.
    -- Stationary point found.
 Normal termination of Gaussian 16 at Mon Dec 14 13:15:15 2020.

 --------------------------------------------------------------------
 #N Geom=AllCheck Guess=TCheck SCRF=Check GenChk RB3LYP/6-31G(d) Freq
 --------------------------------------------------------------------

 Structure from the checkpoint file:  "JID_6358.chk"
 ------------------------------
 CID_63554148_JID_6358_neutraal
 ------------------------------
 Charge =  0 Multiplicity = 1

 SCF Done:  E(RB3LYP) =  -721.848048002     A.U. after    1 cycles

  Exact polarizability: 215.596   2.680 138.328  10.496  -7.389  81.485
 Approx polarizability: 279.002  -4.576 237.971  24.239 -22.752 125.860

 ******    1 imaginary frequencies (negative Signs) ******

                      1                      2                      3
                      A                      A                      A
 Frequencies --    -32.9891                15.2330                33.0398
 Red. masses --      1.0264                 4.6543                 4.0646
 Frc consts  --      0.0007                 0.0006                 0.0026
 IR Inten    --      0.2447                 0.5167                 0.2598

                      4                      5                      6
                      A                      A                      A
 Frequencies --     71.6356                90.8895                99.7034
 Red. masses --      4.3498                 5.0490                 2.4595
 Frc consts  --      0.0132                 0.0246                 0.0144
 IR Inten    --      1.8397                 1.1678                 2.8452

                      7                      8                      9
                      A                      A                      A
 Frequencies --    128.2993               157.7420               202.1644
 Red. masses --      3.0081                 3.5955                 3.1159
 Frc consts  --      0.0292                 0.0527                 0.0750
 IR Inten    --      1.6664                 1.0527                 2.5662

                     10                     11                     12
                      A                      A                      A
 Frequencies --    229.2790               253.4097               270.3365
 Red. masses --      4.5458                 1.3652                 3.4152
 Frc consts  --      0.1408                 0.0517                 0.1471
 IR Inten    --      0.0258                 1.1718                 0.6669

                     13                     14                     15
                      A                      A                      A
 Frequencies --    286.7161               348.0080               365.5733
 Red. masses --      2.3528                 4.3214                 3.3057
 Frc consts  --      0.1140                 0.3084                 0.2603
 IR Inten    --      1.9173                 1.7550                 4.2124

                     16                     17                     18
                      A                      A                      A
 Frequencies --    383.1152               444.6277               481.4360
 Red. masses --      5.0599                 3.6077                 4.3498
 Frc consts  --      0.4376                 0.4202                 0.5940
 IR Inten    --      0.0946                 0.3545                 3.8802

                     19                     20                     21
                      A                      A                      A
 Frequencies --    521.8640               566.2846               579.1302
 Red. masses --      2.9742                 5.3264                 4.2240
 Frc consts  --      0.4772                 1.0064                 0.8347
 IR Inten    --      1.8985                 4.0069                 2.2404

                     22                     23                     24
                      A                      A                      A
 Frequencies --    660.7699               694.9306               725.4047
 Red. masses --      4.8804                 6.6727                 5.2574
 Frc consts  --      1.2555                 1.8986                 1.6300
 IR Inten    --      5.0307                 9.4028                 1.9407

                     25                     26                     27
                      A                      A                      A
 Frequencies --    759.2793               780.5593               799.2923
 Red. masses --      2.9524                 2.4026                 1.6465
 Frc consts  --      1.0028                 0.8625                 0.6198
 IR Inten    --      0.5682                29.2278                76.1159

                     28                     29                     30
                      A                      A                      A
 Frequencies --    835.8193               868.3103               878.0135
 Red. masses --      2.3813                 1.6319                 4.9979
 Frc consts  --      0.9802                 0.7249                 2.2701
 IR Inten    --     10.6711                14.4444                23.8227

                     31                     32                     33
                      A                      A                      A
 Frequencies --    920.0505               935.4628               972.1246
 Red. masses --      6.7857                 1.3710                 1.9371
 Frc consts  --      3.3843                 0.7069                 1.0785
 IR Inten    --     43.3654                 0.9861                18.1890

                     34                     35                     36
                      A                      A                      A
 Frequencies --    995.6207              1007.3286              1009.5031
 Red. masses --      2.7740                 1.2975                 2.9350
 Frc consts  --      1.6201                 0.7757                 1.7623
 IR Inten    --      4.8640                 0.1622                 1.7382

                     37                     38                     39
                      A                      A                      A
 Frequencies --   1014.5785              1025.9603              1057.5219
 Red. masses --      6.9753                 2.4167                 3.0019
 Frc consts  --      4.2304                 1.4988                 1.9780
 IR Inten    --      5.1029                 9.6741                15.1433

                     40                     41                     42
                      A                      A                      A
 Frequencies --   1073.2348              1076.3804              1123.1186
 Red. masses --      1.5627                 2.0937                 1.5239
 Frc consts  --      1.0605                 1.4292                 1.1326
 IR Inten    --      3.8374                 3.1152                 8.8029

                     43                     44                     45
                      A                      A                      A
 Frequencies --   1156.6215              1169.7315              1178.5718
 Red. masses --      2.0102                 1.5908                 1.8474
 Frc consts  --      1.5845                 1.2825                 1.5119
 IR Inten    --     17.6899                28.4997                 9.6310

                     46                     47                     48
                      A                      A                      A
 Frequencies --   1186.8375              1212.4197              1230.6062
 Red. masses --      1.5071                 2.1520                 1.5471
 Frc consts  --      1.2508                 1.8638                 1.3804
 IR Inten    --      1.7947                17.1879                13.5348

                     49                     50                     51
                      A                      A                      A
 Frequencies --   1274.8641              1297.2417              1326.6334
 Red. masses --      2.5749                 1.8940                 6.1363
 Frc consts  --      2.4657                 1.8779                 6.3629
 IR Inten    --      4.0427                17.9773                15.8632

                     52                     53                     54
                      A                      A                      A
 Frequencies --   1339.5020              1367.9859              1382.8304
 Red. masses --      1.8700                 1.9517                 2.5115
 Frc consts  --      1.9769                 2.1519                 2.8296
 IR Inten    --      0.7327                71.5354                59.3313

                     55                     56                     57
                      A                      A                      A
 Frequencies --   1406.9826              1432.2637              1477.3442
 Red. masses --      1.3891                 1.2821                 2.4198
 Frc consts  --      1.6202                 1.5496                 3.1116
 IR Inten    --     23.3655                 1.2606                26.2841

                     58                     59                     60
                      A                      A                      A
 Frequencies --   1485.0438              1489.5139              1491.1583
 Red. masses --      1.1875                 2.2441                 1.1748
 Frc consts  --      1.5430                 2.9334                 1.5390
 IR Inten    --      2.0634                52.6084                17.6101

                     61                     62                     63
                      A                      A                      A
 Frequencies --   1516.2283              1517.6311              1520.2402
 Red. masses --      1.0458                 1.0712                 1.3567
 Frc consts  --      1.4165                 1.4536                 1.8474
 IR Inten    --      6.7404                29.3952                 9.6757

                     64                     65                     66
                      A                      A                      A
 Frequencies --   1527.1503              1548.5910              1550.4294
 Red. masses --      1.1486                 1.0979                 1.0802
 Frc consts  --      1.5782                 1.5513                 1.5299
 IR Inten    --     12.4580                25.5958                21.0478

                     67                     68                     69
                      A                      A                      A
 Frequencies --   1564.1801              1634.8657              1638.6671
 Red. masses --      7.3881                 7.9128                 5.8697
 Frc consts  --     10.6502                12.4608                 9.2864
 IR Inten    --     20.5732                39.3583                68.5659

                     70                     71                     72
                      A                      A                      A
 Frequencies --   1654.5161              2931.3635              2955.7622
 Red. masses --      6.8602                 1.0737                 1.0609
 Frc consts  --     11.0644                 5.4360                 5.4611
 IR Inten    --     67.6788                58.7258               107.9676

                     73                     74                     75
                      A                      A                      A
 Frequencies --   3050.6370              3061.6154              3072.1345
 Red. masses --      1.0392                 1.0835                 1.0748
 Frc consts  --      5.6982                 5.9839                 5.9768
 IR Inten    --     19.1760                28.4993                54.0601

                     76                     77                     78
                      A                      A                      A
 Frequencies --   3076.6621              3102.5780              3125.0793
 Red. masses --      1.0674                 1.1006                 1.1010
 Frc consts  --      5.9531                 6.2422                 6.3350
 IR Inten    --     19.5612                16.9362                29.0500

                     79                     80                     81
                      A                      A                      A
 Frequencies --   3140.4155              3163.7285              3192.1155
 Red. masses --      1.1000                 1.0997                 1.0876
 Frc consts  --      6.3917                 6.4853                 6.5294
 IR Inten    --      5.2875                 5.2889                 6.8731

                     82                     83                     84
                      A                      A                      A
 Frequencies --   3208.4410              3242.2263              3510.8187
 Red. masses --      1.0950                 1.0935                 1.0740
 Frc consts  --      6.6410                 6.7726                 7.7994
 IR Inten    --     21.4280                 0.9277                 7.9547

 - Thermochemistry -
 -------------------
 Temperature   298.150 Kelvin.  Pressure   1.00000 Atm.
 Atom     1 has atomic number  6 and mass  12.00000

 Molecular mass:   218.11676 amu.
 Principal axes and moments of inertia in atomic units:
                           1         2         3
     Eigenvalues --  1175.732068557.476399311.39959
           X            0.99998   0.00360  -0.00578
           Y           -0.00352   0.99990   0.01360
           Z            0.00583  -0.01358   0.99989
 This molecule is an asymmetric top.
 Rotational symmetry number  1.
 Warning -- assumption of classical behavior for rotation
           may cause significant error
 Rotational temperatures (Kelvin)      0.07367     0.01012     0.00930
 Rotational constants (GHZ):           1.53499     0.21090     0.19382
    1 imaginary frequencies ignored.
 Zero-point vibrational energy     646904.5 (Joules/Mol)
                                  154.61388 (Kcal/Mol)
 Warning -- explicit consideration of  20 degrees of freedom as
           vibrations may cause significant error
 Vibrational temperatures:     21.92    47.54   103.07   130.77   143.45
          (Kelvin)            184.59   226.96   290.87   329.88   364.60
                              388.95   412.52   500.71   525.98   551.22
                              639.72   692.68   750.85   814.76   833.24
                              950.70   999.85  1043.70  1092.43  1123.05
                             1150.00  1202.56  1249.30  1263.27  1323.75
                             1345.92  1398.67  1432.48  1449.32  1452.45
                             1459.75  1476.13  1521.54  1544.15  1548.67
                             1615.92  1664.12  1682.98  1695.70  1707.59
                             1744.40  1770.57  1834.25  1866.44  1908.73
                             1927.24  1968.23  1989.58  2024.33  2060.71
                             2125.57  2136.65  2143.08  2145.44  2181.51
                             2183.53  2187.29  2197.23  2228.08  2230.72
                             2250.51  2352.21  2357.68  2380.48  4217.58
                             4252.68  4389.19  4404.98  4420.12  4426.63
                             4463.92  4496.29  4518.36  4551.90  4592.74
                             4616.23  4664.84  5051.29

 Zero-point correction=                           0.246393 (Hartree/Particle)
 Thermal correction to Energy=                    0.260597
 Thermal correction to Enthalpy=                  0.261541
 Thermal correction to Gibbs Free Energy=         0.202864
 Sum of electronic and zero-point Energies=           -721.601655
 Sum of electronic and thermal Energies=              -721.587451
 Sum of electronic and thermal Enthalpies=            -721.586507
 Sum of electronic and thermal Free Energies=         -721.645184

                     E (Thermal)             CV                S
                      KCal/Mol        Cal/Mol-Kelvin    Cal/Mol-Kelvin
 Total                  163.527             52.909            123.495
 Electronic               0.000              0.000              0.000
 Translational            0.889              2.981             42.043
 Rotational               0.889              2.981             32.904
 Vibrational            161.749             46.948             48.548
 Vibration     1          0.593              1.986              7.175
 Vibration     2          0.594              1.983              5.638
 Vibration     3          0.598              1.968              4.108
 Vibration     4          0.602              1.956              3.641
 Vibration     5          0.604              1.949              3.460
 Vibration     6          0.611              1.925              2.971
 Vibration     7          0.621              1.894              2.577
 Vibration     8          0.639              1.837              2.113
 Vibration     9          0.652              1.796              1.885
 Vibration    10          0.665              1.757              1.707
 Vibration    11          0.674              1.728              1.594
 Vibration    12          0.684              1.698              1.493
 Vibration    13          0.726              1.579              1.175
 Vibration    14          0.739              1.543              1.098
 Vibration    15          0.752              1.506              1.027
 Vibration    16          0.804              1.373              0.812
 Vibration    17          0.838              1.291              0.706
 Vibration    18          0.877              1.202              0.606
 Vibration    19          0.922              1.104              0.511
 Vibration    20          0.936              1.076              0.487

                           ! Non-Optimized Parameters !
 Normal termination of Gaussian 16 at Mon Dec 14 13:22:53 2020.

 ----------------------------------------------------------------------
 # B3LYP/6-311++G(d,p) empiricaldispersion=gd3bj scf=xqc pop=npa geom=c
 heck
 ----------------------------------------------------------------------

 --------------------------------------
 CID_63554148_JID_6358_Energie_neutraal
 --------------------------------------
 Structure from the checkpoint file:  "JID_6358.chk"
 Charge =  0 Multiplicity = 1

 SCF Done:  E(RB3LYP) =  -722.040328031     A.U. after   15 cycles
 Normal termination of Gaussian 16 at Mon Dec 14 13:26:46 2020.

 ----------------------------------------------------------------------
 # B3LYP/6-311++G(d,p) empiricaldispersion=gd3bj scf=xqc pop=npa geom=c
 heck
 ----------------------------------------------------------------------

 ------------------------------------
 CID_63554148_JID_6358_Energie_kation
 ------------------------------------
 Structure from the checkpoint file:  "JID_6358.chk"
 Charge =  1 Multiplicity = 2

 SCF Done:  E(UB3LYP) =  -721.737406439     A.U. after   29 cycles
 Normal termination of Gaussian 16 at Mon Dec 14 13:37:11 2020.
 Gaussian 16:  ES64L-G16RevA.03 25-Dec-2016

 ----------------------------------------------------------------------
 # B3LYP/6-311++G(d,p) empiricaldispersion=gd3bj scf=xqc pop=npa geom=c
 heck
 ----------------------------------------------------------------------

 -----------------------------------
 CID_63554148_JID_6358_Energie_anion
 -----------------------------------
 Structure from the checkpoint file:  "JID_6358.chk"
 Charge = -1 Multiplicity = 2

                         Standard orientation:
 ---------------------------------------------------------------------
 Center     Atomic      Atomic             Coordinates (Angstroms)
 Number     Number       Type             X           Y           Z
 ---------------------------------------------------------------------
      1          6           0        4.678847    1.974555    0.034218
      2          6           0        3.851956    0.717282    0.124040
      3          7           0        2.542239    0.835651   -0.113660
      4          6           0        1.777758   -0.266956   -0.040402
      5          6           0        2.277381   -1.533579    0.271840
      6          6           0        3.644289   -1.651416    0.518868
      7          6           0        4.442859   -0.516980    0.445020
      8          6           0        0.338165   -0.103806   -0.308051
      9          7           0       -0.218919    1.045961   -0.615683
     10          8           0       -1.576666    0.701954   -0.778249
     11          6           0       -1.683614   -0.623506   -0.544456
     12          7           0       -0.542346   -1.172049   -0.250653
     13          6           0       -3.031958   -1.254049   -0.616335
     14          6           0       -4.026436   -0.680527    0.409055
     15          7           0       -4.484096    0.645781    0.025071
     16          6           0       -5.407453    1.221133    0.994499
     17          1           0        4.038529    2.814673   -0.240640
     18          1           0        5.163553    2.197951    0.992404
     19          1           0        5.472833    1.873333   -0.715442
     20          1           0        1.606881   -2.383330    0.314886
     21          1           0        4.076582   -2.617119    0.764961
     22          1           0        5.511475   -0.573951    0.631408
     23          1           0       -3.450592   -1.111155   -1.619282
     24          1           0       -2.889801   -2.324251   -0.448441
     25          1           0       -4.900197   -1.343638    0.438720
     26          1           0       -3.569706   -0.717281    1.417831
     27          1           0       -3.680663    1.260965   -0.085567
     28          1           0       -5.011304    1.268572    2.026246
     29          1           0       -5.676078    2.235120    0.682879
     30          1           0       -6.327094    0.624166    1.020730
 ---------------------------------------------------------------------

 SCF Done:  E(UB3LYP) =  -722.049055931     A.U. after   31 cycles

 The electronic state is 2-A.
 Alpha  occ. eigenvalues --  -19.06272 -14.20195 -14.19405 -14.17964 -14.15092
 Alpha  occ. eigenvalues --  -10.13204 -10.10183 -10.09885 -10.08195 -10.07576
 Alpha  occ. eigenvalues --  -10.07528 -10.05781 -10.04894 -10.04306 -10.03437
 Alpha  occ. eigenvalues --  -10.02817  -1.01275  -0.81304  -0.80539  -0.78843
 Alpha  occ. eigenvalues --   -0.72885  -0.66272  -0.65948  -0.64644  -0.58019
 Alpha  occ. eigenvalues --   -0.57709  -0.52909  -0.51856  -0.47888  -0.45689
 Alpha  occ. eigenvalues --   -0.44720  -0.40296  -0.38703  -0.36702  -0.35991
 Alpha  occ. eigenvalues --   -0.35053  -0.34398  -0.33827  -0.32115  -0.30975
 Alpha  occ. eigenvalues --   -0.30723  -0.29964  -0.28030  -0.27789  -0.27041
 Alpha  occ. eigenvalues --   -0.26526  -0.25674  -0.25314  -0.24818  -0.22738
 Alpha  occ. eigenvalues --   -0.19680  -0.19243  -0.16166  -0.15487  -0.14392
 Alpha  occ. eigenvalues --   -0.13606  -0.11182  -0.11031   0.04325
 Alpha virt. eigenvalues --    0.06180   0.07961   0.08182   0.09442   0.09521
 Alpha virt. eigenvalues --    0.09832   0.10666   0.11110   0.11292   0.11683
 Alpha virt. eigenvalues --    0.12253   0.12438   0.12779   0.13955   0.14002

  Beta  occ. eigenvalues --  -19.06018 -14.20193 -14.18842 -14.18027 -14.14829
  Beta  occ. eigenvalues --  -10.13122 -10.10161 -10.09873 -10.08201 -10.07656
  Beta  occ. eigenvalues --  -10.07467 -10.05564 -10.04889 -10.04197 -10.03450
  Beta  occ. eigenvalues --  -10.02569  -1.00816  -0.81287  -0.80181  -0.78665
  Beta  occ. eigenvalues --   -0.72335  -0.66044  -0.65678  -0.64328  -0.57895
  Beta  occ. eigenvalues --   -0.57526  -0.52823  -0.51300  -0.47731  -0.45543
  Beta  occ. eigenvalues --   -0.44476  -0.40202  -0.38576  -0.36663  -0.35884
  Beta  occ. eigenvalues --   -0.34456  -0.34214  -0.33540  -0.31928  -0.30850
  Beta  occ. eigenvalues --   -0.30520  -0.29859  -0.27971  -0.27675  -0.26908
  Beta  occ. eigenvalues --   -0.26417  -0.25575  -0.24682  -0.24358  -0.22558
  Beta  occ. eigenvalues --   -0.18908  -0.18874  -0.15107  -0.14738  -0.13586
  Beta  occ. eigenvalues --   -0.13185  -0.10836  -0.09356
  Beta virt. eigenvalues --    0.06346   0.08010   0.08153   0.09386   0.09481
  Beta virt. eigenvalues --    0.09873   0.09997   0.10784   0.11133   0.11289
  Beta virt. eigenvalues --    0.11754   0.12522   0.12727   0.13339   0.13878

 Mulliken charges and spin densities:
               1          2
     1  C   -0.321184   0.017257
     2  C   -0.141983  -0.050923
     3  N    0.094915   0.126169
     4  C   -0.475714   0.119341
     5  C    0.049804   0.009156
     6  C   -0.859295   0.102852
     7  C    0.050899   0.192130
     8  C    0.525582  -0.069734
     9  N   -0.499516   0.276728
    10  O    0.184242   0.051429
    11  C    0.162625  -0.005060
    12  N   -0.002421  -0.031818
    13  C   -1.013621   0.253874
    14  C    0.057202  -0.352426
    15  N   -0.207655   0.065049
    16  C   -0.038140  -0.301490
    17  H    0.149630  -0.001139
    18  H    0.126380   0.000955
    19  H    0.122533   0.002677
    20  H    0.188912   0.004020
    21  H    0.117318  -0.007418
    22  H    0.122589  -0.017844
    23  H    0.130777   0.051365
    24  H    0.139391   0.024262
    25  H   -0.056145   0.212203
    26  H    0.087979   0.017103
    27  H    0.247995   0.006315
    28  H    0.053427   0.059751
    29  H    0.045094   0.075579
    30  H   -0.041621   0.169636
 Sum of Mulliken charges =  -1.00000   1.00000

 Dipole moment (field-independent basis, Debye):
    X=             -1.2585    Y=             -1.5343    Z=              1.0423  Tot=              2.2416
 Quadrupole moment (field-independent basis, Debye-Ang):
   XX=           -152.7801   YY=           -111.3824   ZZ=           -107.4227
   XY=              0.7180   XZ=             -0.9524   YZ=              2.8782

 Summary of Natural Population Analysis:

                                       Natural Population
                Natural  -----------------------------------------------
    Atom  No    Charge         Core      Valence    Rydberg      Total
 -----------------------------------------------------------------------
      C    1   -0.29648      0.99964     2.29220    0.00465     3.29648
      C    2    0.08618      0.99956     1.90031    0.01395     2.91382
      N    3   -0.19626      0.99965     2.68515    0.01146     3.69626
      C    4    0.11791      0.99939     1.86984    0.01286     2.88209
      C    5   -0.11295      0.99945     2.10510    0.00840     3.11295
      C    6   -0.07807      0.99960     2.06835    0.01013     3.07807
      C    7   -0.08937      0.99951     2.08110    0.00876     3.08937
      C    8    0.14985      0.99963     1.83240    0.01812     2.85015
      N    9    0.00556      0.99968     2.48361    0.01115     3.49444
      O   10   -0.17145      0.99985     3.16139    0.01021     4.17145
      C   11    0.27990      0.99963     1.70005    0.02042     2.72010
      N   12   -0.28062      0.99967     2.77311    0.00784     3.78062
      C   13   -0.22175      0.99958     2.21342    0.00875     3.22175
      C   14   -0.08266      0.99963     2.06982    0.01320     3.08266
      N   15   -0.34609      0.99974     2.83415    0.01219     3.84609
      C   16   -0.17686      0.99967     2.17031    0.00687     3.17686
      H   17    0.10831      0.00000     0.39051    0.00118     0.39169
      H   18    0.09516      0.00000     0.40383    0.00102     0.40484
      H   19    0.09499      0.00000     0.40399    0.00101     0.40501
      H   20    0.10585      0.00000     0.39250    0.00165     0.39415
      H   21    0.08893      0.00000     0.40989    0.00119     0.41107
      H   22    0.08824      0.00000     0.41052    0.00124     0.41176
      H   23    0.10989      0.00000     0.38838    0.00173     0.39011
      H   24    0.11136      0.00000     0.38706    0.00159     0.38864
      H   25    0.08916      0.00000     0.40929    0.00155     0.41084
      H   26    0.08059      0.00000     0.41791    0.00150     0.41941
      H   27    0.18378      0.00000     0.31295    0.00327     0.31622
      H   28    0.07657      0.00000     0.42147    0.00196     0.42343
      H   29    0.09288      0.00000     0.40616    0.00096     0.40712
      H   30    0.08752      0.00000     0.41081    0.00166     0.41248
 =======================================================================
   * Total *    0.00007     15.99389    41.80559    0.20046    57.99993

 Normal termination of Gaussian 16 at Mon Dec 14 13:47:39 2020.
