 Gaussian 16, Revision A.03,

 -----------------------------------------------------------
 # opt freq B3LYP/6-31G(d) empiricaldispersion=gd3bj scf=xqc
 -----------------------------------------------------------

 ------------------------------
 CID_65903891_JID_8722_neutraal
 ------------------------------
 Symbolic Z-matrix:
 Charge =  0 Multiplicity = 1

 SCF Done:  E(RB3LYP) =  -754.802904508     A.U. after   13 cycles
 SCF Done:  E(RB3LYP) =  -754.805574866     A.U. after   11 cycles
 SCF Done:  E(RB3LYP) =  -754.805888631     A.U. after   10 cycles
 SCF Done:  E(RB3LYP) =  -754.806021376     A.U. after   11 cycles
 SCF Done:  E(RB3LYP) =  -754.806096474     A.U. after   10 cycles
 SCF Done:  E(RB3LYP) =  -754.806160560     A.U. after   10 cycles
 SCF Done:  E(RB3LYP) =  -754.806198280     A.U. after   10 cycles
 SCF Done:  E(RB3LYP) =  -754.806224606     A.U. after   10 cycles
 SCF Done:  E(RB3LYP) =  -754.806240588     A.U. after   10 cycles
 SCF Done:  E(RB3LYP) =  -754.806265010     A.U. after   10 cycles
 SCF Done:  E(RB3LYP) =  -754.807035401     A.U. after    7 cycles
 SCF Done:  E(RB3LYP) =  -754.807035835     A.U. after    9 cycles
 SCF Done:  E(RB3LYP) =  -754.807036502     A.U. after    8 cycles
 SCF Done:  E(RB3LYP) =  -754.807036569     A.U. after    7 cycles
 SCF Done:  E(RB3LYP) =  -754.807036600     A.U. after    6 cycles
 Optimization completed.
    -- Stationary point found.
 Normal termination of Gaussian 16 at Fri Dec 11 22:38:31 2020.

 --------------------------------------------------------------------
 #N Geom=AllCheck Guess=TCheck SCRF=Check GenChk RB3LYP/6-31G(d) Freq
 --------------------------------------------------------------------

 Structure from the checkpoint file:  "JID_8722.chk"
 ------------------------------
 CID_65903891_JID_8722_neutraal
 ------------------------------
 Charge =  0 Multiplicity = 1

 SCF Done:  E(RB3LYP) =  -754.807036600     A.U. after    1 cycles

  Exact polarizability: 219.651   7.028 152.306   3.658 -20.366 144.018
 Approx polarizability: 283.281  14.310 229.530   6.810 -46.044 231.787

                      1                      2                      3
                      A                      A                      A
 Frequencies --     19.2156                23.4814                45.4351
 Red. masses --      4.2043                 4.1475                 3.9134
 Frc consts  --      0.0009                 0.0013                 0.0048
 IR Inten    --      0.1964                 0.1864                 0.0276

                      4                      5                      6
                      A                      A                      A
 Frequencies --     79.7729                94.3847               115.9975
 Red. masses --      3.4825                 3.5539                 3.7849
 Frc consts  --      0.0131                 0.0187                 0.0300
 IR Inten    --      0.1346                 1.2859                 0.8437

                      7                      8                      9
                      A                      A                      A
 Frequencies --    157.7660               168.9028               177.0162
 Red. masses --      3.1460                 1.2595                 2.2249
 Frc consts  --      0.0461                 0.0212                 0.0411
 IR Inten    --      0.5560                 0.1336                 1.8089

                     10                     11                     12
                      A                      A                      A
 Frequencies --    181.6914               199.4459               225.7418
 Red. masses --      2.6242                 2.3261                 2.9227
 Frc consts  --      0.0510                 0.0545                 0.0878
 IR Inten    --      1.6509                 5.3633                 0.6286

                     13                     14                     15
                      A                      A                      A
 Frequencies --    256.3097               274.6494               306.2732
 Red. masses --      2.4837                 2.1294                 1.2583
 Frc consts  --      0.0961                 0.0946                 0.0695
 IR Inten    --      5.8929                11.5408                97.9615

                     16                     17                     18
                      A                      A                      A
 Frequencies --    320.0644               340.5320               362.0893
 Red. masses --      2.7286                 1.9182                 3.8161
 Frc consts  --      0.1647                 0.1311                 0.2948
 IR Inten    --      4.0843                 3.2985                 0.4577

                     19                     20                     21
                      A                      A                      A
 Frequencies --    384.7370               441.3306               451.3153
 Red. masses --      2.2909                 2.9464                 2.8722
 Frc consts  --      0.1998                 0.3381                 0.3447
 IR Inten    --      2.5408                 0.3240                 3.5812

                     22                     23                     24
                      A                      A                      A
 Frequencies --    460.7609               482.7683               501.3249
 Red. masses --      3.1231                 2.4759                 3.3908
 Frc consts  --      0.3906                 0.3400                 0.5021
 IR Inten    --      2.9492                 1.8760                 1.3920

                     25                     26                     27
                      A                      A                      A
 Frequencies --    519.4621               536.7098               572.3763
 Red. masses --      3.3112                 3.4937                 3.4226
 Frc consts  --      0.5264                 0.5929                 0.6606
 IR Inten    --      0.3057                 1.9753                 1.7655

                     28                     29                     30
                      A                      A                      A
 Frequencies --    601.0803               633.2613               721.3637
 Red. masses --      1.9537                 4.8192                 2.5697
 Frc consts  --      0.4159                 1.1386                 0.7878
 IR Inten    --      6.6386                 0.2106                16.3920

                     31                     32                     33
                      A                      A                      A
 Frequencies --    738.7086               766.7011               794.7320
 Red. masses --      2.0839                 1.1866                 3.8340
 Frc consts  --      0.6700                 0.4110                 1.4267
 IR Inten    --     36.5767                37.0052                 3.1997

                     34                     35                     36
                      A                      A                      A
 Frequencies --    804.3947               817.9635               841.3102
 Red. masses --      1.9617                 1.6148                 3.2948
 Frc consts  --      0.7479                 0.6366                 1.3740
 IR Inten    --     46.5673                11.0490                 0.9481

                     37                     38                     39
                      A                      A                      A
 Frequencies --    858.5473               871.1660               889.6457
 Red. masses --      2.4571                 1.8427                 1.2782
 Frc consts  --      1.0671                 0.8240                 0.5961
 IR Inten    --      0.5358                10.5885                 0.0794

                     40                     41                     42
                      A                      A                      A
 Frequencies --    903.8113               929.6759               949.6104
 Red. masses --      1.6000                 2.1439                 1.3394
 Frc consts  --      0.7701                 1.0917                 0.7116
 IR Inten    --      1.3853                 3.4139                 2.4671

                     43                     44                     45
                      A                      A                      A
 Frequencies --    966.3986               988.9131               994.1866
 Red. masses --      1.9989                 1.3884                 1.4632
 Frc consts  --      1.0999                 0.8000                 0.8521
 IR Inten    --      2.3223                 3.3344                10.9761

                     46                     47                     48
                      A                      A                      A
 Frequencies --    997.1143              1009.9676              1020.1083
 Red. masses --      1.9615                 1.8516                 1.6018
 Frc consts  --      1.1490                 1.1128                 0.9821
 IR Inten    --      2.5957                 4.8257                 3.6708

                     49                     50                     51
                      A                      A                      A
 Frequencies --   1059.0038              1066.4680              1073.6497
 Red. masses --      2.3272                 2.0707                 1.7553
 Frc consts  --      1.5377                 1.3876                 1.1922
 IR Inten    --     15.2458                13.8582                 9.5867

                     52                     53                     54
                      A                      A                      A
 Frequencies --   1081.3761              1081.8896              1096.5468
 Red. masses --      2.0386                 1.9438                 1.9639
 Frc consts  --      1.4045                 1.3405                 1.3913
 IR Inten    --     30.5316                26.4146                 6.8404

                     55                     56                     57
                      A                      A                      A
 Frequencies --   1108.5359              1125.4668              1132.2155
 Red. masses --      1.9620                 1.8975                 2.2152
 Frc consts  --      1.4205                 1.4161                 1.6731
 IR Inten    --      8.8990                14.2343                17.8361

                     58                     59                     60
                      A                      A                      A
 Frequencies --   1149.0907              1173.1278              1181.2604
 Red. masses --      1.7417                 2.1266                 2.1630
 Frc consts  --      1.3550                 1.7244                 1.7783
 IR Inten    --      6.8432                27.0731                32.8868

                     61                     62                     63
                      A                      A                      A
 Frequencies --   1195.3136              1211.8470              1215.9785
 Red. masses --      1.0960                 2.0042                 1.5417
 Frc consts  --      0.9226                 1.7342                 1.3431
 IR Inten    --      0.8396                 1.9989                 4.8329

                     64                     65                     66
                      A                      A                      A
 Frequencies --   1235.4539              1245.3394              1255.6473
 Red. masses --      1.2917                 1.5870                 2.0400
 Frc consts  --      1.1616                 1.4501                 1.8950
 IR Inten    --      9.3272                 0.1379                 4.1048

                     67                     68                     69
                      A                      A                      A
 Frequencies --   1288.2673              1300.0845              1315.0237
 Red. masses --      1.2643                 1.2342                 1.4734
 Frc consts  --      1.2363                 1.2291                 1.5012
 IR Inten    --      2.0978                 2.6428                 5.6404

                     70                     71                     72
                      A                      A                      A
 Frequencies --   1331.9188              1337.8707              1343.9208
 Red. masses --      1.2595                 1.3432                 1.7560
 Frc consts  --      1.3165                 1.4165                 1.8686
 IR Inten    --      1.7203                 1.3225                 0.5737

                     73                     74                     75
                      A                      A                      A
 Frequencies --   1352.3266              1374.9520              1388.0409
 Red. masses --      2.3348                 1.2855                 1.3386
 Frc consts  --      2.5157                 1.4319                 1.5195
 IR Inten    --      2.1903                 2.0043                 0.8456

                     76                     77                     78
                      A                      A                      A
 Frequencies --   1394.0054              1402.0544              1404.7883
 Red. masses --      1.4412                 1.4640                 1.3439
 Frc consts  --      1.6500                 1.6956                 1.5625
 IR Inten    --     14.2953                 4.6672                 3.4294

                     79                     80                     81
                      A                      A                      A
 Frequencies --   1409.4982              1419.4751              1425.9446
 Red. masses --      1.3571                 1.4193                 1.4461
 Frc consts  --      1.5885                 1.6849                 1.7324
 IR Inten    --      8.3085                14.2473                 4.3794

                     82                     83                     84
                      A                      A                      A
 Frequencies --   1435.8445              1439.2691              1446.9321
 Red. masses --      1.3492                 1.3116                 1.2377
 Frc consts  --      1.6389                 1.6007                 1.5267
 IR Inten    --      4.4990                34.6281                 1.9780

                     85                     86                     87
                      A                      A                      A
 Frequencies --   1494.7234              1502.7156              1514.0751
 Red. masses --      1.8397                 1.1092                 1.1558
 Frc consts  --      2.4217                 1.4757                 1.5611
 IR Inten    --      1.1640                12.3614                14.8517

                     88                     89                     90
                      A                      A                      A
 Frequencies --   1515.4590              1517.0205              1522.7221
 Red. masses --      1.0579                 1.1088                 1.1051
 Frc consts  --      1.4315                 1.5035                 1.5097
 IR Inten    --      6.3437                 7.7878                 1.0370

                     91                     92                     93
                      A                      A                      A
 Frequencies --   1524.7867              1525.5161              1535.3349
 Red. masses --      1.3533                 1.0949                 1.1343
 Frc consts  --      1.8537                 1.5013                 1.5754
 IR Inten    --     15.0871                 7.6063                22.5998

                     94                     95                     96
                      A                      A                      A
 Frequencies --   1537.3527              1541.2090              1541.9629
 Red. masses --      1.0967                 1.1675                 1.6688
 Frc consts  --      1.5272                 1.6339                 2.3378
 IR Inten    --      1.5414                 1.6171                 7.1238

                     97                     98                     99
                      A                      A                      A
 Frequencies --   1641.4487              1669.0512              2967.5218
 Red. masses --      5.8080                 5.8158                 1.0677
 Frc consts  --      9.2201                 9.5454                 5.5398
 IR Inten    --      0.1094                 3.6257                36.9651

                    100                    101                    102
                      A                      A                      A
 Frequencies --   2999.8174              3001.9742              3013.3943
 Red. masses --      1.0735                 1.0896                 1.0794
 Frc consts  --      5.6915                 5.7854                 5.7751
 IR Inten    --     16.7358                27.1587                19.3633

                    103                    104                    105
                      A                      A                      A
 Frequencies --   3025.1165              3026.8751              3029.6535
 Red. masses --      1.0705                 1.0730                 1.0617
 Frc consts  --      5.7721                 5.7923                 5.7415
 IR Inten    --     18.6372                 3.4331                15.5440

                    106                    107                    108
                      A                      A                      A
 Frequencies --   3031.3484              3036.1455              3036.8600
 Red. masses --      1.0642                 1.0659                 1.0397
 Frc consts  --      5.7618                 5.7891                 5.6494
 IR Inten    --     21.5788               104.6894                34.3876

                    109                    110                    111
                      A                      A                      A
 Frequencies --   3041.9600              3065.7355              3070.3278
 Red. masses --      1.0726                 1.0986                 1.0985
 Frc consts  --      5.8480                 6.0835                 6.1015
 IR Inten    --     37.4368                58.5119                46.8260

                    112                    113                    114
                      A                      A                      A
 Frequencies --   3075.2017              3080.2039              3083.9916
 Red. masses --      1.0945                 1.1037                 1.1000
 Frc consts  --      6.0985                 6.1694                 6.1642
 IR Inten    --     57.4280                66.2475                21.4066

                    115                    116                    117
                      A                      A                      A
 Frequencies --   3096.0509              3096.7505              3125.8489
 Red. masses --      1.0947                 1.0954                 1.0995
 Frc consts  --      6.1824                 6.1891                 6.3296
 IR Inten    --     65.1456                53.5423                24.0214

                    118                    119                    120
                      A                      A                      A
 Frequencies --   3174.4771              3186.6957              3203.0245
 Red. masses --      1.0863                 1.0890                 1.0951
 Frc consts  --      6.4500                 6.5158                 6.6196
 IR Inten    --      7.9920                19.8478                35.3118

                    121                    122                    123
                      A                      A                      A
 Frequencies --   3220.0576              3499.4579              3753.0312
 Red. masses --      1.0925                 1.0736                 1.0660
 Frc consts  --      6.6743                 7.7466                 8.8462
 IR Inten    --      9.0125                 0.1490                11.2018

 - Thermochemistry -
 -------------------
 Temperature   298.150 Kelvin.  Pressure   1.00000 Atm.
 Atom     1 has atomic number  6 and mass  12.00000

 Molecular mass:   247.19361 amu.
 Principal axes and moments of inertia in atomic units:
                           1         2         3
     Eigenvalues --  2285.09878********************
           X            0.99994  -0.01007   0.00380
           Y            0.01014   0.99977  -0.01885
           Z           -0.00361   0.01889   0.99982
 This molecule is an asymmetric top.
 Rotational symmetry number  1.
 Warning -- assumption of classical behavior for rotation
           may cause significant error
 Rotational temperatures (Kelvin)      0.03790     0.00860     0.00794
 Rotational constants (GHZ):           0.78979     0.17921     0.16535
 Zero-point vibrational energy    1021739.7 (Joules/Mol)
                                  244.20165 (Kcal/Mol)
 Warning -- explicit consideration of  28 degrees of freedom as
           vibrations may cause significant error
 Vibrational temperatures:     27.65    33.78    65.37   114.78   135.80
          (Kelvin)            166.89   226.99   243.01   254.69   261.41
                              286.96   324.79   368.77   395.16   440.66
                              460.50   489.95   520.97   553.55   634.98
                              649.34   662.93   694.60   721.29   747.39
                              772.21   823.52   864.82   911.12  1037.88
                             1062.84  1103.11  1143.44  1157.34  1176.87
                             1210.46  1235.26  1253.41  1280.00  1300.38
                             1337.60  1366.28  1390.43  1422.83  1430.41
                             1434.63  1453.12  1467.71  1523.67  1534.41
                             1544.74  1555.86  1556.60  1577.69  1594.94
                             1619.30  1629.01  1653.29  1687.87  1699.57
                             1719.79  1743.58  1749.52  1777.54  1791.77
                             1806.60  1853.53  1870.53  1892.03  1916.33
                             1924.90  1933.60  1945.70  1978.25  1997.08
                             2005.66  2017.24  2021.18  2027.95  2042.31
                             2051.62  2065.86  2070.79  2081.81  2150.57
                             2162.07  2178.42  2180.41  2182.65  2190.86
                             2193.83  2194.88  2209.00  2211.91  2217.46
                             2218.54  2361.68  2401.39  4269.60  4316.07
                             4319.17  4335.60  4352.47  4355.00  4359.00
                             4361.43  4368.34  4369.36  4376.70  4410.91
                             4417.52  4424.53  4431.73  4437.18  4454.53
                             4455.53  4497.40  4567.36  4584.94  4608.44
                             4632.94  5034.94  5399.77

 Zero-point correction=                           0.389160 (Hartree/Particle)
 Thermal correction to Energy=                    0.407012
 Thermal correction to Enthalpy=                  0.407956
 Thermal correction to Gibbs Free Energy=         0.342059
 Sum of electronic and zero-point Energies=           -754.417876
 Sum of electronic and thermal Energies=              -754.400025
 Sum of electronic and thermal Enthalpies=            -754.399080
 Sum of electronic and thermal Free Energies=         -754.464978

                     E (Thermal)             CV                S
                      KCal/Mol        Cal/Mol-Kelvin    Cal/Mol-Kelvin
 Total                  255.404             69.860            138.693
 Electronic               0.000              0.000              0.000
 Translational            0.889              2.981             42.416
 Rotational               0.889              2.981             33.884
 Vibrational            253.626             63.899             62.393
 Vibration     1          0.593              1.986              6.714
 Vibration     2          0.593              1.985              6.316
 Vibration     3          0.595              1.979              5.007
 Vibration     4          0.600              1.963              3.896
 Vibration     5          0.603              1.953              3.567
 Vibration     6          0.608              1.936              3.166
 Vibration     7          0.621              1.894              2.576
 Vibration     8          0.625              1.881              2.448
 Vibration     9          0.628              1.871              2.360
 Vibration    10          0.630              1.865              2.311
 Vibration    11          0.638              1.841              2.138
 Vibration    12          0.650              1.802              1.913
 Vibration    13          0.666              1.752              1.687
 Vibration    14          0.677              1.720              1.567
 Vibration    15          0.697              1.662              1.382
 Vibration    16          0.706              1.635              1.310
 Vibration    17          0.720              1.594              1.210
 Vibration    18          0.736              1.550              1.113
 Vibration    19          0.754              1.503              1.020
 Vibration    20          0.801              1.380              0.822
 Vibration    21          0.810              1.358              0.792
 Vibration    22          0.819              1.337              0.764
 Vibration    23          0.839              1.288              0.703
 Vibration    24          0.857              1.247              0.655
 Vibration    25          0.874              1.207              0.611
 Vibration    26          0.892              1.169              0.572
 Vibration    27          0.929              1.091              0.500
 Vibration    28          0.959              1.030              0.448

 Optimization completed.
    -- Stationary point found.
 Normal termination of Gaussian 16 at Fri Dec 11 22:58:55 2020.

 ----------------------------------------------------------------------
 # B3LYP/6-311++G(d,p) empiricaldispersion=gd3bj scf=xqc pop=npa geom=c
 heck
 ----------------------------------------------------------------------

 --------------------------------------
 CID_65903891_JID_8722_Energie_neutraal
 --------------------------------------
 Structure from the checkpoint file:  "JID_8722.chk"
 Charge =  0 Multiplicity = 1

 SCF Done:  E(RB3LYP) =  -755.021913866     A.U. after   14 cycles
 Normal termination of Gaussian 16 at Fri Dec 11 23:08:37 2020.

 ----------------------------------------------------------------------
 # B3LYP/6-311++G(d,p) empiricaldispersion=gd3bj scf=xqc pop=npa geom=c
 heck
 ----------------------------------------------------------------------

 ------------------------------------
 CID_65903891_JID_8722_Energie_kation
 ------------------------------------
 Structure from the checkpoint file:  "JID_8722.chk"
 Charge =  1 Multiplicity = 2

 SCF Done:  E(UB3LYP) =  -754.728751949     A.U. after   24 cycles
 Normal termination of Gaussian 16 at Fri Dec 11 23:31:36 2020.
 Gaussian 16:  ES64L-G16RevA.03 25-Dec-2016

 ----------------------------------------------------------------------
 # B3LYP/6-311++G(d,p) empiricaldispersion=gd3bj scf=xqc pop=npa geom=c
 heck
 ----------------------------------------------------------------------

 -----------------------------------
 CID_65903891_JID_8722_Energie_anion
 -----------------------------------
 Structure from the checkpoint file:  "JID_8722.chk"
 Charge = -1 Multiplicity = 2

                         Standard orientation:
 ---------------------------------------------------------------------
 Center     Atomic      Atomic             Coordinates (Angstroms)
 Number     Number       Type             X           Y           Z
 ---------------------------------------------------------------------
      1          6           0        3.081509   -1.678196    1.701438
      2          6           0        3.530307   -0.652722    0.687612
      3          6           0        4.878214   -0.288627    0.614354
      4          6           0        5.328974    0.648894   -0.315125
      5          6           0        4.422172    1.231386   -1.197239
      6          6           0        3.074312    0.875951   -1.138827
      7          6           0        2.614828   -0.053626   -0.202017
      8          6           0        1.147889   -0.434759   -0.150756
      9          7           0        0.298317    0.511683   -0.862787
     10          6           0       -1.099938    0.107976   -0.984844
     11          6           0       -1.863667   -0.181561    0.331289
     12          6           0       -1.784160    0.992560    1.324295
     13          6           0       -2.605688    2.206610    0.869503
     14          6           0       -4.070219    1.818102    0.629927
     15          6           0       -4.186683    0.644647   -0.351922
     16          6           0       -3.346939   -0.563127    0.098190
     17          6           0       -3.529025   -1.741356   -0.866586
     18          8           0       -2.796043   -2.902876   -0.490697
     19          1           0        3.935566   -2.075112    2.257984
     20          1           0        2.378752   -1.253619    2.430270
     21          1           0        2.570752   -2.525715    1.227158
     22          1           0        5.585063   -0.749960    1.300086
     23          1           0        6.381461    0.916604   -0.349574
     24          1           0        4.759396    1.957238   -1.932218
     25          1           0        2.357724    1.309906   -1.827873
     26          1           0        1.008349   -1.418214   -0.628283
     27          1           0        0.850699   -0.577055    0.902123
     28          1           0        0.363381    1.424286   -0.416516
     29          1           0       -1.609951    0.888880   -1.558393
     30          1           0       -1.114740   -0.788579   -1.619824
     31          1           0       -1.384544   -1.047745    0.806958
     32          1           0       -2.165598    0.651578    2.296501
     33          1           0       -0.738358    1.278946    1.492030
     34          1           0       -2.182609    2.621225   -0.056409
     35          1           0       -2.541891    3.003540    1.620347
     36          1           0       -4.639994    2.679565    0.260652
     37          1           0       -4.523666    1.528282    1.588759
     38          1           0       -3.866284    0.971649   -1.351129
     39          1           0       -5.237233    0.342115   -0.452788
     40          1           0       -3.735984   -0.893590    1.072947
     41          1           0       -4.580474   -2.047036   -0.867822
     42          1           0       -3.285009   -1.435956   -1.896411
     43          1           0       -1.855995   -2.712918   -0.629232
 ---------------------------------------------------------------------

 SCF Done:  E(UB3LYP) =  -755.010476609     A.U. after   33 cycles
 SCF Done:  E(UB3LYP) =  -755.010476608     a.u. after    1 cycles

 The electronic state is 2-A.
 Alpha  occ. eigenvalues --  -19.03255 -14.20884 -10.12428 -10.10600 -10.10195
 Alpha  occ. eigenvalues --  -10.09352 -10.08979 -10.08584 -10.08509 -10.08331
 Alpha  occ. eigenvalues --  -10.08097 -10.07910 -10.07851 -10.07674 -10.07586
 Alpha  occ. eigenvalues --  -10.07353 -10.07224 -10.07140  -0.93304  -0.82325
 Alpha  occ. eigenvalues --   -0.77034  -0.74645  -0.68847  -0.67536  -0.67017
 Alpha  occ. eigenvalues --   -0.65508  -0.60938  -0.59340  -0.58054  -0.55478
 Alpha  occ. eigenvalues --   -0.51526  -0.50218  -0.49942  -0.48995  -0.44825
 Alpha  occ. eigenvalues --   -0.42577  -0.42271  -0.40070  -0.39836  -0.37847
 Alpha  occ. eigenvalues --   -0.36607  -0.35819  -0.35572  -0.34408  -0.33903
 Alpha  occ. eigenvalues --   -0.33626  -0.33101  -0.32119  -0.31772  -0.31199
 Alpha  occ. eigenvalues --   -0.30286  -0.29632  -0.29531  -0.27465  -0.26896
 Alpha  occ. eigenvalues --   -0.26745  -0.26270  -0.25345  -0.25120  -0.24696
 Alpha  occ. eigenvalues --   -0.24048  -0.22970  -0.21749  -0.20890  -0.18314
 Alpha  occ. eigenvalues --   -0.16274  -0.15529  -0.13531   0.03987
 Alpha virt. eigenvalues --    0.05611   0.06226   0.06632   0.06961   0.07368
 Alpha virt. eigenvalues --    0.07584   0.07628   0.08396   0.08569   0.09334
 Alpha virt. eigenvalues --    0.09670   0.09845   0.10038   0.10787   0.11438

  Beta  occ. eigenvalues --  -19.03232 -14.20877 -10.12418 -10.10575 -10.10177
  Beta  occ. eigenvalues --  -10.09350 -10.08970 -10.08575 -10.08507 -10.08321
  Beta  occ. eigenvalues --  -10.08092 -10.07903 -10.07845 -10.07664 -10.07551
  Beta  occ. eigenvalues --  -10.07333 -10.07205 -10.07123  -0.93254  -0.82307
  Beta  occ. eigenvalues --   -0.77016  -0.74619  -0.68821  -0.67506  -0.66985
  Beta  occ. eigenvalues --   -0.65478  -0.60897  -0.59295  -0.58010  -0.55428
  Beta  occ. eigenvalues --   -0.51489  -0.50182  -0.49895  -0.48957  -0.44789
  Beta  occ. eigenvalues --   -0.42546  -0.42229  -0.40036  -0.39800  -0.37816
  Beta  occ. eigenvalues --   -0.36571  -0.35791  -0.35541  -0.34374  -0.33871
  Beta  occ. eigenvalues --   -0.33590  -0.33075  -0.32089  -0.31737  -0.31163
  Beta  occ. eigenvalues --   -0.30258  -0.29597  -0.29491  -0.27439  -0.26866
  Beta  occ. eigenvalues --   -0.26717  -0.26239  -0.25319  -0.25090  -0.24671
  Beta  occ. eigenvalues --   -0.24022  -0.22939  -0.21719  -0.20861  -0.18285
  Beta  occ. eigenvalues --   -0.16237  -0.15493  -0.13510
  Beta virt. eigenvalues --    0.05855   0.06219   0.06690   0.07068   0.07247
  Beta virt. eigenvalues --    0.07622   0.07686   0.07814   0.08714   0.08957
  Beta virt. eigenvalues --    0.09643   0.09893   0.10044   0.10335   0.11127

 Mulliken charges and spin densities:
               1          2
     1  C    1.595274  -2.100886
     2  C   -1.149034   1.526572
     3  C    0.525637  -0.925308
     4  C    0.009186  -0.248252
     5  C   -0.197300  -0.179991
     6  C    0.011797  -0.281086
     7  C   -0.584032   0.784454
     8  C   -0.498773   0.192453
     9  N    0.035343   0.036249
    10  C   -0.189684  -0.496350
    11  C    0.843784  -0.538681
    12  C   -0.111795  -0.509886
    13  C   -0.366200   0.144866
    14  C    0.525779  -1.111378
    15  C   -0.028128  -0.272041
    16  C   -1.065347   1.283796
    17  C    0.340093  -0.965750
    18  O   -0.200098  -0.007932
    19  H   -0.451279   0.620154
    20  H   -0.387710   0.572340
    21  H   -0.014712   0.164772
    22  H   -0.139295   0.256878
    23  H   -0.018645   0.160301
    24  H    0.075424   0.068755
    25  H    0.046586   0.132358
    26  H   -0.203247   0.377874
    27  H    1.238680  -1.196555
    28  H    0.274857  -0.049930
    29  H   -0.061604   0.264908
    30  H    0.152900   0.035159
    31  H    0.073905   0.170818
    32  H   -0.216086   0.380907
    33  H   -0.232531   0.384578
    34  H    0.058038   0.055748
    35  H   -0.399324   0.592114
    36  H   -0.479733   0.657333
    37  H    0.137102  -0.007036
    38  H    0.094678   0.034669
    39  H   -0.084308   0.249921
    40  H   -0.043735   0.250409
    41  H    0.063065   0.103393
    42  H   -0.013325   0.167680
    43  H    0.033798   0.221602
 Sum of Mulliken charges =  -1.00000   1.00000

 Dipole moment (field-independent basis, Debye):
    X=              1.5551    Y=              1.2528    Z=             -3.2437  Tot=              3.8091
 Quadrupole moment (field-independent basis, Debye-Ang):
   XX=           -203.4122   YY=           -168.3062   ZZ=           -153.9031
   XY=             12.5495   XZ=             -2.3559   YZ=             -2.4753

 Summary of Natural Population Analysis:

                                       Natural Population
                Natural  -----------------------------------------------
    Atom  No    Charge         Core      Valence    Rydberg      Total
 -----------------------------------------------------------------------
      C    1   -0.29665      0.99964     2.29126    0.00576     3.29665
      C    2   -0.01248      0.99948     2.00248    0.01052     3.01248
      C    3   -0.09968      0.99951     2.09112    0.00904     3.09968
      C    4   -0.10495      0.99956     2.09550    0.00989     3.10495
      C    5   -0.10614      0.99956     2.09697    0.00960     3.10614
      C    6   -0.10060      0.99951     2.09257    0.00852     3.10060
      C    7   -0.01547      0.99947     2.00515    0.01085     3.01547
      C    8   -0.09643      0.99958     2.08639    0.01046     3.09643
      N    9   -0.33842      0.99975     2.82758    0.01109     3.83842
      C   10   -0.08535      0.99960     2.07484    0.01091     3.08535
      C   11   -0.12230      0.99957     2.11124    0.01149     3.12230
      C   12   -0.19170      0.99961     2.18167    0.01042     3.19170
      C   13   -0.19125      0.99963     2.18281    0.00881     3.19125
      C   14   -0.18726      0.99963     2.17916    0.00848     3.18726
      C   15   -0.19069      0.99961     2.18187    0.00921     3.19069
      C   16   -0.11898      0.99957     2.10942    0.00999     3.11898
      C   17   -0.00462      0.99955     1.99305    0.01202     3.00462
      O   18   -0.36840      0.99990     3.36204    0.00646     4.36840
      H   19    0.10271      0.00000     0.39616    0.00113     0.39729
      H   20    0.10774      0.00000     0.39071    0.00155     0.39226
      H   21    0.10606      0.00000     0.39274    0.00120     0.39394
      H   22    0.09862      0.00000     0.40043    0.00095     0.40138
      H   23    0.09763      0.00000     0.40159    0.00077     0.40237
      H   24    0.09739      0.00000     0.40185    0.00076     0.40261
      H   25    0.11002      0.00000     0.38862    0.00136     0.38998
      H   26    0.09978      0.00000     0.39867    0.00155     0.40022
      H   27    0.08965      0.00000     0.40819    0.00216     0.41035
      H   28    0.17259      0.00000     0.32436    0.00305     0.32741
      H   29    0.09520      0.00000     0.40343    0.00137     0.40480
      H   30    0.08970      0.00000     0.40864    0.00166     0.41030
      H   31    0.10085      0.00000     0.39677    0.00238     0.39915
      H   32    0.09925      0.00000     0.39941    0.00134     0.40075
      H   33    0.09919      0.00000     0.39954    0.00127     0.40081
      H   34    0.09094      0.00000     0.40771    0.00136     0.40906
      H   35    0.10149      0.00000     0.39728    0.00122     0.39851
      H   36    0.09923      0.00000     0.39956    0.00121     0.40077
      H   37    0.09320      0.00000     0.40545    0.00135     0.40680
      H   38    0.09316      0.00000     0.40552    0.00133     0.40684
      H   39    0.09924      0.00000     0.39971    0.00105     0.40076
      H   40    0.09810      0.00000     0.40023    0.00167     0.40190
      H   41    0.08598      0.00000     0.41278    0.00124     0.41402
      H   42    0.07511      0.00000     0.42358    0.00132     0.42489
      H   43    0.22855      0.00000     0.26794    0.00351     0.27145
 =======================================================================
   * Total *   -0.00000     17.99273    49.79599    0.21128    68.00000

 Normal termination of Gaussian 16 at Sat Dec 12 00:02:28 2020.
