 Gaussian 16, Revision A.03,

 -----------------------------------------------------------
 # opt freq B3LYP/6-31G(d) empiricaldispersion=gd3bj scf=xqc
 -----------------------------------------------------------

 -------------------------------
 CID_103486483_JID_4065_neutraal
 -------------------------------
 Symbolic Z-matrix:
 Charge =  0 Multiplicity = 1

 SCF Done:  E(RB3LYP) =  -666.720281340     A.U. after   14 cycles
 SCF Done:  E(RB3LYP) =  -666.725758358     A.U. after   13 cycles
 SCF Done:  E(RB3LYP) =  -666.726325104     A.U. after   12 cycles
 SCF Done:  E(RB3LYP) =  -666.726814612     A.U. after   12 cycles
 SCF Done:  E(RB3LYP) =  -666.726951738     A.U. after   11 cycles
 SCF Done:  E(RB3LYP) =  -666.726999314     A.U. after   11 cycles
 SCF Done:  E(RB3LYP) =  -666.727017851     A.U. after   10 cycles
 SCF Done:  E(RB3LYP) =  -666.727022037     A.U. after    9 cycles
 SCF Done:  E(RB3LYP) =  -666.727023360     A.U. after    9 cycles
 SCF Done:  E(RB3LYP) =  -666.727023585     A.U. after    7 cycles
 SCF Done:  E(RB3LYP) =  -666.727023664     A.U. after    7 cycles
 SCF Done:  E(RB3LYP) =  -666.727023694     A.U. after    7 cycles
 Optimization completed.
    -- Stationary point found.
 Normal termination of Gaussian 16 at Thu Dec 10 09:14:33 2020.

 --------------------------------------------------------------------
 #N Geom=AllCheck Guess=TCheck SCRF=Check GenChk RB3LYP/6-31G(d) Freq
 --------------------------------------------------------------------

 Structure from the checkpoint file:  "JID_4065.chk"
 -------------------------------
 CID_103486483_JID_4065_neutraal
 -------------------------------
 Charge =  0 Multiplicity = 1

 SCF Done:  E(RB3LYP) =  -666.727023694     A.U. after    1 cycles

  Exact polarizability: 148.724  -5.684 119.839  12.696  14.946  91.946
 Approx polarizability: 198.518 -15.959 200.948  22.660  37.366 135.148

                      1                      2                      3
                      A                      A                      A
 Frequencies --     30.2334                34.7023                68.1347
 Red. masses --      3.8815                 3.9035                 2.4358
 Frc consts  --      0.0021                 0.0028                 0.0067
 IR Inten    --      2.1737                 0.1399                 0.6194

                      4                      5                      6
                      A                      A                      A
 Frequencies --     74.6437               104.9994               145.9874
 Red. masses --      3.6415                 3.4034                 3.8917
 Frc consts  --      0.0120                 0.0221                 0.0489
 IR Inten    --      1.5007                 1.6670                 3.6762

                      7                      8                      9
                      A                      A                      A
 Frequencies --    172.2078               189.2101               233.7423
 Red. masses --      3.7369                 2.1936                 2.8271
 Frc consts  --      0.0653                 0.0463                 0.0910
 IR Inten    --      0.8700                 4.5846                 0.3538

                     10                     11                     12
                      A                      A                      A
 Frequencies --    238.4484               260.5700               295.2956
 Red. masses --      1.0841                 1.7249                 2.6674
 Frc consts  --      0.0363                 0.0690                 0.1370
 IR Inten    --      0.2406                 0.0078                 8.6058

                     13                     14                     15
                      A                      A                      A
 Frequencies --    333.5663               338.4111               393.7881
 Red. masses --      1.1768                 2.6955                 2.7468
 Frc consts  --      0.0771                 0.1819                 0.2510
 IR Inten    --     19.7805                 6.4287                 1.1717

                     16                     17                     18
                      A                      A                      A
 Frequencies --    411.7760               445.4184               462.4526
 Red. masses --      3.5605                 3.1395                 3.5299
 Frc consts  --      0.3557                 0.3670                 0.4448
 IR Inten    --      2.5048                 3.2088                 9.7626

                     19                     20                     21
                      A                      A                      A
 Frequencies --    495.8949               542.0342               591.8279
 Red. masses --      3.2968                 4.8785                 3.7531
 Frc consts  --      0.4777                 0.8445                 0.7745
 IR Inten    --     10.4993                 8.1188                79.7745

                     22                     23                     24
                      A                      A                      A
 Frequencies --    602.1846               630.1470               676.9252
 Red. masses --      2.5601                 2.2058                 4.7520
 Frc consts  --      0.5470                 0.5161                 1.2829
 IR Inten    --     68.5689               191.3419                 2.4695

                     25                     26                     27
                      A                      A                      A
 Frequencies --    769.6398               791.4953               813.6881
 Red. masses --      6.3049                 5.8854                 1.1189
 Frc consts  --      2.2004                 2.1723                 0.4365
 IR Inten    --      6.6931                 6.5842                 1.1966

                     28                     29                     30
                      A                      A                      A
 Frequencies --    858.4472               894.8352               903.9911
 Red. masses --      3.5525                 2.8335                 3.2516
 Frc consts  --      1.5425                 1.3368                 1.5656
 IR Inten    --      5.3916                19.0395                20.1218

                     31                     32                     33
                      A                      A                      A
 Frequencies --    905.7834               948.5475               954.2830
 Red. masses --      1.4274                 1.4378                 1.2450
 Frc consts  --      0.6900                 0.7622                 0.6680
 IR Inten    --     14.0359                 0.3133                 1.3338

                     34                     35                     36
                      A                      A                      A
 Frequencies --    985.7797              1015.5166              1099.0696
 Red. masses --      2.6021                 3.2341                 2.3095
 Frc consts  --      1.4898                 1.9651                 1.6437
 IR Inten    --     37.2250                41.4688                25.0083

                     37                     38                     39
                      A                      A                      A
 Frequencies --   1105.5393              1124.3529              1161.0615
 Red. masses --      2.0320                 1.9719                 2.4172
 Frc consts  --      1.4633                 1.4687                 1.9198
 IR Inten    --     88.9366                47.5020               161.0003

                     40                     41                     42
                      A                      A                      A
 Frequencies --   1174.1812              1181.1933              1195.9179
 Red. masses --      2.1217                 3.0102                 2.4425
 Frc consts  --      1.7235                 2.4745                 2.0582
 IR Inten    --     69.2309                 7.7437                55.8351

                     43                     44                     45
                      A                      A                      A
 Frequencies --   1222.3570              1271.1816              1275.5787
 Red. masses --      1.9102                 1.8064                 1.9133
 Frc consts  --      1.6816                 1.7198                 1.8342
 IR Inten    --     20.1295                65.4061                85.8424

                     46                     47                     48
                      A                      A                      A
 Frequencies --   1302.0445              1331.5510              1342.1083
 Red. masses --      2.5750                 1.9844                 1.2748
 Frc consts  --      2.5720                 2.0729                 1.3530
 IR Inten    --     33.2080                46.5719                 5.4900

                     49                     50                     51
                      A                      A                      A
 Frequencies --   1375.8785              1384.9182              1414.7547
 Red. masses --      1.4077                 1.4815                 1.3085
 Frc consts  --      1.5701                 1.6742                 1.5430
 IR Inten    --      6.9719                26.5096                 3.8567

                     52                     53                     54
                      A                      A                      A
 Frequencies --   1417.8296              1428.1224              1440.6690
 Red. masses --      1.4244                 1.4039                 1.2860
 Frc consts  --      1.6870                 1.6870                 1.5726
 IR Inten    --     15.3005                13.9744                33.5832

                     55                     56                     57
                      A                      A                      A
 Frequencies --   1447.7563              1466.9500              1517.4926
 Red. masses --      1.3814                 2.3537                 1.1699
 Frc consts  --      1.7060                 2.9842                 1.5872
 IR Inten    --     17.7039                81.1248                54.7333

                     58                     59                     60
                      A                      A                      A
 Frequencies --   1518.5973              1519.7608              1526.7909
 Red. masses --      1.0516                 1.0598                 2.0717
 Frc consts  --      1.4289                 1.4422                 2.8453
 IR Inten    --      6.9421                 0.4401               165.9987

                     61                     62                     63
                      A                      A                      A
 Frequencies --   1536.4829              1540.9138              1558.9801
 Red. masses --      1.1086                 1.1515                 1.0886
 Frc consts  --      1.5420                 1.6109                 1.5588
 IR Inten    --     21.5318                22.8935                 5.1022

                     64                     65                     66
                      A                      A                      A
 Frequencies --   1624.9672              1626.5908              1679.8244
 Red. masses --      5.5241                 3.7361                 1.3677
 Frc consts  --      8.5942                 5.8241                 2.2740
 IR Inten    --    176.2651                 4.2218                99.7284

                     67                     68                     69
                      A                      A                      A
 Frequencies --   2996.4393              3015.8315              3054.6800
 Red. masses --      1.0704                 1.0648                 1.0355
 Frc consts  --      5.6624                 5.7061                 5.6926
 IR Inten    --     61.6353                32.2879                17.4358

                     70                     71                     72
                      A                      A                      A
 Frequencies --   3071.1877              3084.0658              3093.5520
 Red. masses --      1.0363                 1.0932                 1.0940
 Frc consts  --      5.7590                 6.1261                 6.1684
 IR Inten    --     12.8759                 7.7960                18.9380

                     73                     74                     75
                      A                      A                      A
 Frequencies --   3101.7161              3123.2000              3131.9266
 Red. masses --      1.0903                 1.1012                 1.1037
 Frc consts  --      6.1804                 6.3287                 6.3786
 IR Inten    --     36.1605                43.3628                40.9590

                     76                     77                     78
                      A                      A                      A
 Frequencies --   3140.9036              3160.7045              3164.6013
 Red. masses --      1.1027                 1.0902                 1.1020
 Frc consts  --      6.4093                 6.4169                 6.5023
 IR Inten    --     18.1475                35.2382                14.2571

                     79                     80                     81
                      A                      A                      A
 Frequencies --   3197.9399              3557.8856              3663.1330
 Red. masses --      1.0909                 1.0470                 1.0992
 Frc consts  --      6.5733                 7.8089                 8.6903
 IR Inten    --     21.8082                21.0076                20.4563

 - Thermochemistry -
 -------------------
 Temperature   298.150 Kelvin.  Pressure   1.00000 Atm.
 Atom     1 has atomic number  6 and mass  12.00000

 Molecular mass:   197.11643 amu.
 Principal axes and moments of inertia in atomic units:
                           1         2         3
     Eigenvalues --  1443.798805270.204625698.64869
           X            0.99982   0.01878  -0.00145
           Y           -0.01882   0.99905  -0.03921
           Z            0.00071   0.03923   0.99923
 This molecule is an asymmetric top.
 Rotational symmetry number  1.
 Warning -- assumption of classical behavior for rotation
           may cause significant error
 Rotational temperatures (Kelvin)      0.05999     0.01643     0.01520
 Rotational constants (GHZ):           1.24999     0.34244     0.31670
 Zero-point vibrational energy     645898.5 (Joules/Mol)
                                  154.37344 (Kcal/Mol)
 Warning -- explicit consideration of  22 degrees of freedom as
           vibrations may cause significant error
 Vibrational temperatures:     43.50    49.93    98.03   107.40   151.07
          (Kelvin)            210.04   247.77   272.23   336.30   343.07
                              374.90   424.86   479.93   486.90   566.57
                              592.45   640.86   665.37   713.48   779.87
                              851.51   866.41   906.64   973.94  1107.34
                             1138.79  1170.72  1235.11  1287.47  1300.64
                             1303.22  1364.75  1373.00  1418.32  1461.10
                             1581.32  1590.62  1617.69  1670.51  1689.38
                             1699.47  1720.66  1758.70  1828.95  1835.27
                             1873.35  1915.80  1930.99  1979.58  1992.59
                             2035.52  2039.94  2054.75  2072.80  2083.00
                             2110.61  2183.33  2184.92  2186.60  2196.71
                             2210.66  2217.03  2243.02  2337.97  2340.30
                             2416.89  4311.21  4339.11  4395.00  4418.75
                             4437.28  4450.93  4462.68  4493.59  4506.14
                             4519.06  4547.55  4553.16  4601.12  5119.00
                             5270.43

 Zero-point correction=                           0.246010 (Hartree/Particle)
 Thermal correction to Energy=                    0.260477
 Thermal correction to Enthalpy=                  0.261421
 Thermal correction to Gibbs Free Energy=         0.203373
 Sum of electronic and zero-point Energies=           -666.481014
 Sum of electronic and thermal Energies=              -666.466547
 Sum of electronic and thermal Enthalpies=            -666.465603
 Sum of electronic and thermal Free Energies=         -666.523651

                     E (Thermal)             CV                S
                      KCal/Mol        Cal/Mol-Kelvin    Cal/Mol-Kelvin
 Total                  163.452             53.303            122.173
 Electronic               0.000              0.000              0.000
 Translational            0.889              2.981             41.741
 Rotational               0.889              2.981             32.139
 Vibrational            161.674             47.341             48.293
 Vibration     1          0.594              1.984              5.814
 Vibration     2          0.594              1.983              5.541
 Vibration     3          0.598              1.969              4.207
 Vibration     4          0.599              1.966              4.027
 Vibration     5          0.605              1.945              3.359
 Vibration     6          0.617              1.907              2.724
 Vibration     7          0.626              1.877              2.411
 Vibration     8          0.633              1.855              2.236
 Vibration     9          0.654              1.789              1.850
 Vibration    10          0.656              1.782              1.814
 Vibration    11          0.669              1.745              1.658
 Vibration    12          0.690              1.683              1.443
 Vibration    13          0.715              1.608              1.243
 Vibration    14          0.719              1.599              1.220
 Vibration    15          0.761              1.483              0.986
 Vibration    16          0.776              1.445              0.920
 Vibration    17          0.805              1.371              0.810
 Vibration    18          0.820              1.333              0.759
 Vibration    19          0.851              1.259              0.668
 Vibration    20          0.897              1.157              0.561
 Vibration    21          0.949              1.049              0.464
 Vibration    22          0.960              1.027              0.446

 Optimization completed.
    -- Stationary point found.
 Normal termination of Gaussian 16 at Thu Dec 10 09:21:27 2020.

 ----------------------------------------------------------------------
 # B3LYP/6-311++G(d,p) empiricaldispersion=gd3bj scf=xqc pop=npa geom=c
 heck
 ----------------------------------------------------------------------

 ---------------------------------------
 CID_103486483_JID_4065_Energie_neutraal
 ---------------------------------------
 Structure from the checkpoint file:  "JID_4065.chk"
 Charge =  0 Multiplicity = 1

 SCF Done:  E(RB3LYP) =  -666.921072749     A.U. after   15 cycles
 Normal termination of Gaussian 16 at Thu Dec 10 09:24:10 2020.

 ----------------------------------------------------------------------
 # B3LYP/6-311++G(d,p) empiricaldispersion=gd3bj scf=xqc pop=npa geom=c
 heck
 ----------------------------------------------------------------------

 -------------------------------------
 CID_103486483_JID_4065_Energie_kation
 -------------------------------------
 Structure from the checkpoint file:  "JID_4065.chk"
 Charge =  1 Multiplicity = 2

 SCF Done:  E(UB3LYP) =  -666.624600056     A.U. after   26 cycles
 Normal termination of Gaussian 16 at Thu Dec 10 09:30:54 2020.
 Gaussian 16:  ES64L-G16RevA.03 25-Dec-2016

 ----------------------------------------------------------------------
 # B3LYP/6-311++G(d,p) empiricaldispersion=gd3bj scf=xqc pop=npa geom=c
 heck
 ----------------------------------------------------------------------

 ------------------------------------
 CID_103486483_JID_4065_Energie_anion
 ------------------------------------
 Structure from the checkpoint file:  "JID_4065.chk"
 Charge = -1 Multiplicity = 2

                         Standard orientation:
 ---------------------------------------------------------------------
 Center     Atomic      Atomic             Coordinates (Angstroms)
 Number     Number       Type             X           Y           Z
 ---------------------------------------------------------------------
      1          6           0        4.225143    1.154700   -1.337963
      2          6           0        4.015884    0.553821    0.049412
      3          8           0        3.060735   -0.497037    0.072610
      4          6           0        1.721226   -0.069853   -0.118835
      5          6           0        0.845597   -1.230569    0.360164
      6          6           0        0.782512   -1.366684    1.874723
      7          8           0       -0.472951   -1.209306   -0.246661
      8          6           0       -1.336663   -0.197853   -0.018207
      9          7           0       -0.992925    0.888712    0.650472
     10          6           0       -1.934235    1.839546    0.789683
     11          7           0       -3.170386    1.799094    0.311625
     12          6           0       -3.504592    0.687725   -0.368761
     13          6           0       -2.630301   -0.375437   -0.572271
     14          7           0       -2.967628   -1.560435   -1.211248
     15          1           0        4.491292    0.371120   -2.055275
     16          1           0        5.035406    1.892355   -1.313087
     17          1           0        3.324074    1.661052   -1.700071
     18          1           0        4.946267    0.103058    0.409963
     19          1           0        3.723616    1.339488    0.765326
     20          1           0        1.513204    0.842042    0.452339
     21          1           0        1.507077    0.131041   -1.179195
     22          1           0        1.277413   -2.139621   -0.067709
     23          1           0        0.337827   -0.479154    2.329615
     24          1           0        0.197531   -2.247034    2.158450
     25          1           0        1.802674   -1.485934    2.251827
     26          1           0       -1.641939    2.726217    1.346372
     27          1           0       -4.518391    0.642179   -0.765604
     28          1           0       -3.717448   -1.488920   -1.887299
     29          1           0       -2.171735   -2.081116   -1.556866
 ---------------------------------------------------------------------

 SCF Done:  E(UB3LYP) =  -666.909938070     A.U. after   33 cycles
 SCF Done:  E(UB3LYP) =  -666.909938071     a.u. after    1 cycles

 The electronic state is 2-A.
 Alpha  occ. eigenvalues --  -19.06517 -19.03457 -14.21805 -14.20890 -14.20543
 Alpha  occ. eigenvalues --  -10.16832 -10.14280 -10.12713 -10.12563 -10.12031
 Alpha  occ. eigenvalues --  -10.11835 -10.10005 -10.07185 -10.06994  -0.98806
 Alpha  occ. eigenvalues --   -0.94708  -0.87695  -0.81608  -0.78025  -0.70616
 Alpha  occ. eigenvalues --   -0.66355  -0.65027  -0.59985  -0.57235  -0.54863
 Alpha  occ. eigenvalues --   -0.51749  -0.50011  -0.45413  -0.43314  -0.41112
 Alpha  occ. eigenvalues --   -0.40215  -0.38879  -0.38187  -0.37222  -0.36286
 Alpha  occ. eigenvalues --   -0.34170  -0.33990  -0.32724  -0.32109  -0.30786
 Alpha  occ. eigenvalues --   -0.29327  -0.28754  -0.28547  -0.27570  -0.25379
 Alpha  occ. eigenvalues --   -0.24179  -0.23717  -0.22723  -0.20579  -0.18532
 Alpha  occ. eigenvalues --   -0.17233  -0.15480  -0.11573   0.04288
 Alpha virt. eigenvalues --    0.05607   0.06836   0.07684   0.07939   0.08302
 Alpha virt. eigenvalues --    0.08841   0.09227   0.09499   0.10482   0.10734
 Alpha virt. eigenvalues --    0.11419   0.11688   0.12290   0.13529   0.13801

  Beta  occ. eigenvalues --  -19.06507 -19.03452 -14.21739 -14.20813 -14.20525
  Beta  occ. eigenvalues --  -10.16786 -10.14277 -10.12696 -10.12561 -10.12018
  Beta  occ. eigenvalues --  -10.11827 -10.09903 -10.07183 -10.06959  -0.98770
  Beta  occ. eigenvalues --   -0.94694  -0.87607  -0.81517  -0.77908  -0.70584
  Beta  occ. eigenvalues --   -0.66282  -0.64944  -0.59957  -0.57135  -0.54791
  Beta  occ. eigenvalues --   -0.51666  -0.49943  -0.45360  -0.43278  -0.41009
  Beta  occ. eigenvalues --   -0.40161  -0.38845  -0.38125  -0.37169  -0.36187
  Beta  occ. eigenvalues --   -0.34109  -0.33943  -0.32598  -0.32069  -0.30727
  Beta  occ. eigenvalues --   -0.29293  -0.28691  -0.28503  -0.27539  -0.25273
  Beta  occ. eigenvalues --   -0.24032  -0.23677  -0.22675  -0.20497  -0.18253
  Beta  occ. eigenvalues --   -0.17208  -0.15422  -0.11331
  Beta virt. eigenvalues --    0.06427   0.07361   0.07437   0.08002   0.08107
  Beta virt. eigenvalues --    0.08815   0.08927   0.09696   0.09774   0.10676
  Beta virt. eigenvalues --    0.11080   0.11693   0.11777   0.12536   0.13659

 Mulliken charges and spin densities:
               1          2
     1  C    0.654451  -1.118364
     2  C   -0.156311   0.074295
     3  O   -0.129704   0.033513
     4  C   -0.145542  -0.281035
     5  C    0.284174  -0.423069
     6  C   -0.249443  -0.082456
     7  O   -0.022684  -0.011884
     8  C    2.237909  -2.729862
     9  N   -0.028080   0.050466
    10  C    0.021223   0.022316
    11  N   -0.108450  -0.009317
    12  C   -0.166116  -0.245812
    13  C   -1.869027   2.170059
    14  N   -0.314871  -0.062861
    15  H    0.029476   0.114255
    16  H   -0.502258   0.646695
    17  H   -0.186768   0.331752
    18  H   -0.363263   0.516579
    19  H    0.098856   0.008133
    20  H    0.229778  -0.065723
    21  H    0.043981   0.147935
    22  H    0.067547   0.132866
    23  H    0.158476  -0.005214
    24  H    0.072813   0.064782
    25  H    0.146679   0.021948
    26  H    0.128878   0.062764
    27  H   -0.281807   0.442089
    28  H   -0.617961   0.889065
    29  H   -0.031957   0.306085
 Sum of Mulliken charges =  -1.00000   1.00000

 Dipole moment (field-independent basis, Debye):
    X=              1.8076    Y=             -0.3360    Z=              5.2696  Tot=              5.5812
 Quadrupole moment (field-independent basis, Debye-Ang):
   XX=           -188.3688   YY=           -120.7143   ZZ=           -116.8809
   XY=            -11.7324   XZ=             -7.7017   YZ=             -4.5899

 Summary of Natural Population Analysis:

                                       Natural Population
                Natural  -----------------------------------------------
    Atom  No    Charge         Core      Valence    Rydberg      Total
 -----------------------------------------------------------------------
      C    1   -0.30207      0.99967     2.29775    0.00465     3.30207
      C    2   -0.00696      0.99960     1.99436    0.01299     3.00696
      O    3   -0.30459      0.99988     3.29551    0.00920     4.30459
      C    4   -0.02526      0.99954     2.01342    0.01230     3.02526
      C    5    0.06062      0.99953     1.92523    0.01461     2.93938
      C    6   -0.30231      0.99963     2.29833    0.00435     3.30231
      O    7   -0.28144      0.99985     3.27100    0.01059     4.28144
      C    8    0.27125      0.99943     1.71122    0.01811     2.72875
      N    9   -0.27065      0.99966     2.76147    0.00953     3.77065
      C   10    0.12245      0.99967     1.85963    0.01825     2.87755
      N   11   -0.24929      0.99971     2.73937    0.01020     3.74929
      C   12    0.02579      0.99955     1.95913    0.01553     2.97421
      C   13    0.03864      0.99946     1.94941    0.01249     2.96136
      N   14   -0.39318      0.99972     2.88238    0.01108     3.89318
      H   15    0.10049      0.00000     0.39839    0.00113     0.39951
      H   16    0.10299      0.00000     0.39516    0.00185     0.39701
      H   17    0.09873      0.00000     0.40015    0.00112     0.40127
      H   18    0.08795      0.00000     0.41060    0.00144     0.41205
      H   19    0.07600      0.00000     0.42278    0.00123     0.42400
      H   20    0.09203      0.00000     0.40610    0.00188     0.40797
      H   21    0.08695      0.00000     0.41161    0.00144     0.41305
      H   22    0.09660      0.00000     0.40187    0.00153     0.40340
      H   23    0.10906      0.00000     0.38990    0.00104     0.39094
      H   24    0.10067      0.00000     0.39851    0.00082     0.39933
      H   25    0.10650      0.00000     0.39257    0.00094     0.39350
      H   26    0.07965      0.00000     0.41926    0.00109     0.42035
      H   27    0.09104      0.00000     0.40754    0.00142     0.40896
      H   28    0.19278      0.00000     0.29303    0.01419     0.30722
      H   29    0.19558      0.00000     0.30130    0.00312     0.30442
 =======================================================================
   * Total *   -0.00000     13.99490    38.80698    0.19812    53.00000

 Normal termination of Gaussian 16 at Thu Dec 10 09:39:41 2020.
