 Gaussian 16, Revision A.03,

 -----------------------------------------------------------
 # opt freq B3LYP/6-31G(d) empiricaldispersion=gd3bj scf=xqc
 -----------------------------------------------------------

 -------------------------------
 CID_106173254_JID_3122_neutraal
 -------------------------------
 Symbolic Z-matrix:
 Charge =  0 Multiplicity = 1

 SCF Done:  E(RB3LYP) =  -919.517207568     A.U. after   15 cycles
 SCF Done:  E(RB3LYP) =  -919.520331000     A.U. after   12 cycles
 SCF Done:  E(RB3LYP) =  -919.520578392     A.U. after   12 cycles
 SCF Done:  E(RB3LYP) =  -919.520613894     A.U. after   11 cycles
 SCF Done:  E(RB3LYP) =  -919.520713564     A.U. after   10 cycles
 SCF Done:  E(RB3LYP) =  -919.520763307     A.U. after   11 cycles
 SCF Done:  E(RB3LYP) =  -919.520801677     A.U. after   11 cycles
 SCF Done:  E(RB3LYP) =  -919.520821504     A.U. after   11 cycles
 SCF Done:  E(RB3LYP) =  -919.520828786     A.U. after   11 cycles
 SCF Done:  E(RB3LYP) =  -919.520861844     A.U. after   11 cycles
 SCF Done:  E(RB3LYP) =  -919.521059776     A.U. after   10 cycles
 SCF Done:  E(RB3LYP) =  -919.521061999     A.U. after    8 cycles
 SCF Done:  E(RB3LYP) =  -919.521063866     A.U. after    9 cycles
 SCF Done:  E(RB3LYP) =  -919.521064131     A.U. after    8 cycles
 SCF Done:  E(RB3LYP) =  -919.521064182     A.U. after    8 cycles
 SCF Done:  E(RB3LYP) =  -919.521064185     A.U. after    6 cycles
 Optimization completed.
    -- Stationary point found.
 Normal termination of Gaussian 16 at Wed Dec  9 22:35:31 2020.

 --------------------------------------------------------------------
 #N Geom=AllCheck Guess=TCheck SCRF=Check GenChk RB3LYP/6-31G(d) Freq
 --------------------------------------------------------------------

 Structure from the checkpoint file:  "JID_3122.chk"
 -------------------------------
 CID_106173254_JID_3122_neutraal
 -------------------------------
 Charge =  0 Multiplicity = 1

 SCF Done:  E(RB3LYP) =  -919.521064185     A.U. after    1 cycles

  Exact polarizability: 138.316  -1.301 128.824   3.934  10.176 105.705
 Approx polarizability: 173.389  -6.937 198.726   1.602  22.879 171.374

                      1                      2                      3
                      A                      A                      A
 Frequencies --     21.1709                31.7889                43.9590
 Red. masses --      4.1544                 6.5406                 4.5636
 Frc consts  --      0.0011                 0.0039                 0.0052
 IR Inten    --      0.1937                 1.6847                 0.7560

                      4                      5                      6
                      A                      A                      A
 Frequencies --     47.7972               106.6877               118.2549
 Red. masses --      3.4925                 3.8549                 4.7266
 Frc consts  --      0.0047                 0.0259                 0.0389
 IR Inten    --      0.3414                 0.0307                 1.3344

                      7                      8                      9
                      A                      A                      A
 Frequencies --    139.8644               154.2411               243.6047
 Red. masses --      3.5324                 1.9171                 2.3277
 Frc consts  --      0.0407                 0.0269                 0.0814
 IR Inten    --      1.1388                 0.1069                 8.6676

                     10                     11                     12
                      A                      A                      A
 Frequencies --    253.9354               285.4336               322.6055
 Red. masses --      2.7494                 2.5431                 1.0916
 Frc consts  --      0.1045                 0.1221                 0.0669
 IR Inten    --      4.6501                 0.1736                38.6509

                     13                     14                     15
                      A                      A                      A
 Frequencies --    343.2706               376.7102               430.1894
 Red. masses --      2.3674                 2.4138                 3.0918
 Frc consts  --      0.1644                 0.2018                 0.3371
 IR Inten    --      3.0323                 2.5347                 2.2166

                     16                     17                     18
                      A                      A                      A
 Frequencies --    497.8479               519.0008               540.4136
 Red. masses --      2.3277                 2.2963                 3.3172
 Frc consts  --      0.3399                 0.3644                 0.5708
 IR Inten    --     11.6498                26.4369                11.5496

                     19                     20                     21
                      A                      A                      A
 Frequencies --    585.2952               630.2456               651.5700
 Red. masses --      2.5969                 2.5442                 2.0421
 Frc consts  --      0.5242                 0.5954                 0.5108
 IR Inten    --     18.9467                 6.4843                 5.4459

                     22                     23                     24
                      A                      A                      A
 Frequencies --    655.6508               697.1042               733.9591
 Red. masses --      3.6995                 1.5890                 1.8692
 Frc consts  --      0.9370                 0.4549                 0.5933
 IR Inten    --     16.2672                58.9857                 7.3780

                     25                     26                     27
                      A                      A                      A
 Frequencies --    815.4086               825.0692               842.7131
 Red. masses --      1.6838                 2.0616                 1.5905
 Frc consts  --      0.6596                 0.8269                 0.6655
 IR Inten    --     13.5935                 1.3126                 3.6431

                     28                     29                     30
                      A                      A                      A
 Frequencies --    879.4285               897.8414               920.6311
 Red. masses --      2.9068                 1.6046                 2.1870
 Frc consts  --      1.3246                 0.7621                 1.0921
 IR Inten    --      0.4208                 7.8173                 4.8555

                     31                     32                     33
                      A                      A                      A
 Frequencies --    925.0066               956.0978               960.7605
 Red. masses --      1.9652                 1.8600                 2.1673
 Frc consts  --      0.9907                 1.0018                 1.1787
 IR Inten    --      3.2602                 6.4018                 0.5476

                     34                     35                     36
                      A                      A                      A
 Frequencies --    967.1717              1014.5250              1043.0466
 Red. masses --      1.9845                 1.6300                 1.8647
 Frc consts  --      1.0937                 0.9885                 1.1953
 IR Inten    --      8.7780                 8.6471                 4.1246

                     37                     38                     39
                      A                      A                      A
 Frequencies --   1045.5214              1068.4496              1080.5551
 Red. masses --      2.0152                 2.1300                 1.7511
 Frc consts  --      1.2979                 1.4327                 1.2047
 IR Inten    --      1.7007                 8.1340                 5.3063

                     40                     41                     42
                      A                      A                      A
 Frequencies --   1134.6896              1159.5589              1184.9626
 Red. masses --      2.5675                 1.2248                 1.7931
 Frc consts  --      1.9477                 0.9703                 1.4834
 IR Inten    --     10.4325                 0.6439                 0.4142

                     43                     44                     45
                      A                      A                      A
 Frequencies --   1199.8376              1222.7017              1245.5947
 Red. masses --      1.1655                 1.2794                 1.2502
 Frc consts  --      0.9885                 1.1270                 1.1428
 IR Inten    --      6.3849                 2.8981                 0.8191

                     46                     47                     48
                      A                      A                      A
 Frequencies --   1252.9351              1261.3400              1283.6208
 Red. masses --      1.2781                 1.5121                 1.3421
 Frc consts  --      1.1822                 1.4174                 1.3029
 IR Inten    --      1.7735                 5.4679                26.3895

                     49                     50                     51
                      A                      A                      A
 Frequencies --   1306.3530              1326.8900              1340.6984
 Red. masses --      1.3922                 1.4460                 1.3816
 Frc consts  --      1.3998                 1.5000                 1.4631
 IR Inten    --     13.1606                56.0915                 9.3184

                     52                     53                     54
                      A                      A                      A
 Frequencies --   1345.9612              1348.7732              1381.5087
 Red. masses --      1.3807                 1.4808                 1.7135
 Frc consts  --      1.4737                 1.5872                 1.9268
 IR Inten    --     41.3889                 2.2686                 1.1638

                     55                     56                     57
                      A                      A                      A
 Frequencies --   1392.3301              1408.1098              1450.2960
 Red. masses --      1.4025                 1.4397                 1.7706
 Frc consts  --      1.6019                 1.6819                 2.1943
 IR Inten    --      2.7472                19.7378                55.3589

                     58                     59                     60
                      A                      A                      A
 Frequencies --   1484.8811              1491.9412              1498.7011
 Red. masses --      1.1011                 1.1075                 1.6343
 Frc consts  --      1.4304                 1.4525                 2.1628
 IR Inten    --      7.8116                14.6593                54.7025

                     61                     62                     63
                      A                      A                      A
 Frequencies --   1509.3436              1513.7390              1519.6788
 Red. masses --      1.1229                 1.0856                 1.0880
 Frc consts  --      1.5071                 1.4657                 1.4804
 IR Inten    --     11.8693                 0.7546                 0.3075

                     64                     65                     66
                      A                      A                      A
 Frequencies --   1531.5972              1537.9053              1733.7528
 Red. masses --      1.1384                 1.1070                 6.9218
 Frc consts  --      1.5734                 1.5426                12.2586
 IR Inten    --     19.2800                 0.4520                 0.2696

                     67                     68                     69
                      A                      A                      A
 Frequencies --   1775.6066              2691.2111              2994.8998
 Red. masses --      7.6574                 1.0380                 1.0719
 Frc consts  --     14.2240                 4.4293                 5.6645
 IR Inten    --    285.6737                 3.3639                43.7504

                     70                     71                     72
                      A                      A                      A
 Frequencies --   3016.5819              3025.0548              3033.9085
 Red. masses --      1.0707                 1.0662                 1.0705
 Frc consts  --      5.7403                 5.7484                 5.8056
 IR Inten    --     40.9292                29.8954                15.0245

                     73                     74                     75
                      A                      A                      A
 Frequencies --   3052.9739              3065.0325              3076.1944
 Red. masses --      1.0848                 1.0837                 1.0672
 Frc consts  --      5.9574                 5.9981                 5.9499
 IR Inten    --     16.6552                31.2260                25.7396

                     76                     77                     78
                      A                      A                      A
 Frequencies --   3077.2813              3092.9502              3104.0470
 Red. masses --      1.0752                 1.0906                 1.0610
 Frc consts  --      5.9987                 6.1470                 6.0231
 IR Inten    --     63.6081                28.3113                18.3481

                     79                     80                     81
                      A                      A                      A
 Frequencies --   3116.1986              3118.7883              3132.4340
 Red. masses --      1.1045                 1.1035                 1.0927
 Frc consts  --      6.3194                 6.3241                 6.3171
 IR Inten    --     38.1695                32.7560                12.1615

                     82                     83                     84
                      A                      A                      A
 Frequencies --   3166.5206              3202.3740              3583.8770
 Red. masses --      1.1049                 1.0936                 1.0754
 Frc consts  --      6.5275                 6.6078                 8.1380
 IR Inten    --      5.6076                 8.7294                14.1505

 - Thermochemistry -
 -------------------
 Temperature   298.150 Kelvin.  Pressure   1.00000 Atm.
 Atom     1 has atomic number  6 and mass  12.00000

 Molecular mass:   199.10309 amu.
 Principal axes and moments of inertia in atomic units:
                           1         2         3
     Eigenvalues --  1704.466304533.190375196.44171
           X            0.99988   0.01299   0.00811
           Y           -0.01346   0.99801   0.06166
           Z           -0.00730  -0.06177   0.99806
 This molecule is an asymmetric top.
 Rotational symmetry number  1.
 Warning -- assumption of classical behavior for rotation
           may cause significant error
 Rotational temperatures (Kelvin)      0.05082     0.01911     0.01667
 Rotational constants (GHZ):           1.05883     0.39812     0.34730
 Zero-point vibrational energy     682269.0 (Joules/Mol)
                                  163.06620 (Kcal/Mol)
 Warning -- explicit consideration of  19 degrees of freedom as
           vibrations may cause significant error
 Vibrational temperatures:     30.46    45.74    63.25    68.77   153.50
          (Kelvin)            170.14   201.23   221.92   350.49   365.36
                              410.68   464.16   493.89   542.00   618.95
                              716.29   746.73   777.53   842.11   906.78
                              937.46   943.34  1002.98  1056.00  1173.19
                             1187.09  1212.48  1265.30  1291.79  1324.58
                             1330.88  1375.61  1382.32  1391.54  1459.68
                             1500.71  1504.27  1537.26  1554.68  1632.57
                             1668.35  1704.90  1726.30  1759.20  1792.13
                             1802.69  1814.79  1846.84  1879.55  1909.10
                             1928.97  1936.54  1940.58  1987.68  2003.25
                             2025.96  2086.65  2136.41  2146.57  2156.30
                             2171.61  2177.93  2186.48  2203.63  2212.70
                             2494.48  2554.70  3872.05  4308.99  4340.19
                             4352.38  4365.12  4392.55  4409.90  4425.96
                             4427.52  4450.07  4466.03  4483.51  4487.24
                             4506.87  4555.92  4607.50  5156.40

 Zero-point correction=                           0.259863 (Hartree/Particle)
 Thermal correction to Energy=                    0.274053
 Thermal correction to Enthalpy=                  0.274997
 Thermal correction to Gibbs Free Energy=         0.216176
 Sum of electronic and zero-point Energies=           -919.261202
 Sum of electronic and thermal Energies=              -919.247011
 Sum of electronic and thermal Enthalpies=            -919.246067
 Sum of electronic and thermal Free Energies=         -919.304888

                     E (Thermal)             CV                S
                      KCal/Mol        Cal/Mol-Kelvin    Cal/Mol-Kelvin
 Total                  171.971             52.217            123.799
 Electronic               0.000              0.000              0.000
 Translational            0.889              2.981             41.771
 Rotational               0.889              2.981             32.063
 Vibrational            170.193             46.255             49.965
 Vibration     1          0.593              1.985              6.521
 Vibration     2          0.594              1.983              5.715
 Vibration     3          0.595              1.980              5.072
 Vibration     4          0.595              1.978              4.907
 Vibration     5          0.606              1.944              3.328
 Vibration     6          0.608              1.934              3.129
 Vibration     7          0.615              1.913              2.806
 Vibration     8          0.620              1.898              2.619
 Vibration     9          0.659              1.773              1.776
 Vibration    10          0.665              1.756              1.703
 Vibration    11          0.683              1.701              1.501
 Vibration    12          0.708              1.630              1.297
 Vibration    13          0.722              1.589              1.197
 Vibration    14          0.747              1.520              1.052
 Vibration    15          0.791              1.404              0.858
 Vibration    16          0.853              1.255              0.664
 Vibration    17          0.874              1.208              0.612
 Vibration    18          0.895              1.161              0.564
 Vibration    19          0.942              1.063              0.476

 Optimization completed.
    -- Stationary point found.
 Normal termination of Gaussian 16 at Wed Dec  9 22:43:35 2020.

 ----------------------------------------------------------------------
 # B3LYP/6-311++G(d,p) empiricaldispersion=gd3bj scf=xqc pop=npa geom=c
 heck
 ----------------------------------------------------------------------

 ---------------------------------------
 CID_106173254_JID_3122_Energie_neutraal
 ---------------------------------------
 Structure from the checkpoint file:  "JID_3122.chk"
 Charge =  0 Multiplicity = 1

 SCF Done:  E(RB3LYP) =  -919.701202472     A.U. after   15 cycles
 Normal termination of Gaussian 16 at Wed Dec  9 22:47:35 2020.

 ----------------------------------------------------------------------
 # B3LYP/6-311++G(d,p) empiricaldispersion=gd3bj scf=xqc pop=npa geom=c
 heck
 ----------------------------------------------------------------------

 -------------------------------------
 CID_106173254_JID_3122_Energie_kation
 -------------------------------------
 Structure from the checkpoint file:  "JID_3122.chk"
 Charge =  1 Multiplicity = 2

 SCF Done:  E(UB3LYP) =  -919.399227890     A.U. after   27 cycles
 Normal termination of Gaussian 16 at Wed Dec  9 22:58:13 2020.
 Gaussian 16:  ES64L-G16RevA.03 25-Dec-2016

 ----------------------------------------------------------------------
 # B3LYP/6-311++G(d,p) empiricaldispersion=gd3bj scf=xqc pop=npa geom=c
 heck
 ----------------------------------------------------------------------

 ------------------------------------
 CID_106173254_JID_3122_Energie_anion
 ------------------------------------
 Structure from the checkpoint file:  "JID_3122.chk"
 Charge = -1 Multiplicity = 2

                         Standard orientation:
 ---------------------------------------------------------------------
 Center     Atomic      Atomic             Coordinates (Angstroms)
 Number     Number       Type             X           Y           Z
 ---------------------------------------------------------------------
      1          6           0        3.977669    0.630733    0.338837
      2          6           0        2.878873    1.684801    0.632779
      3          6           0        1.712157    1.190663   -0.187061
      4          6           0        1.886145   -0.061192   -0.626326
      5          6           0        3.214714   -0.623177   -0.153570
      6          6           0        0.890582   -0.877633   -1.393362
      7          6           0        0.317812   -2.042556   -0.556493
      8          7           0       -0.271182   -1.614596    0.706653
      9          6           0       -1.449445   -0.943806    0.880980
     10          8           0       -1.699590   -0.362820    1.933552
     11          6           0       -2.473407   -0.993874   -0.251628
     12          6           0       -3.390113    0.225757   -0.213335
     13         16           0       -2.505359    1.811447   -0.529399
     14          1           0        4.618801    0.428598    1.201938
     15          1           0        4.621342    0.997865   -0.468039
     16          1           0        2.615101    1.711517    1.701162
     17          1           0        3.192983    2.701830    0.368204
     18          1           0        0.815303    1.778638   -0.362787
     19          1           0        3.753066   -1.164001   -0.942929
     20          1           0        3.062612   -1.348406    0.662450
     21          1           0        0.068141   -0.232854   -1.723104
     22          1           0        1.353213   -1.307366   -2.294167
     23          1           0       -0.427200   -2.595692   -1.135141
     24          1           0        1.111562   -2.755912   -0.312735
     25          1           0        0.376033   -1.436277    1.466082
     26          1           0       -1.996524   -1.071469   -1.231052
     27          1           0       -3.074116   -1.905072   -0.111928
     28          1           0       -4.149814    0.155497   -0.996001
     29          1           0       -3.889689    0.296269    0.753582
     30          1           0       -1.860009    1.830123    0.654941
 ---------------------------------------------------------------------

 SCF Done:  E(UB3LYP) =  -919.689919478     A.U. after   31 cycles

 The electronic state is 2-A.
 Alpha  occ. eigenvalues --  -88.74761 -18.99400 -14.23825 -10.17880 -10.11177
 Alpha  occ. eigenvalues --  -10.11150 -10.08876 -10.07655 -10.07550 -10.07473
 Alpha  occ. eigenvalues --  -10.07358 -10.07168 -10.06471  -7.83461  -5.79823
 Alpha  occ. eigenvalues --   -5.79486  -5.78858  -0.94478  -0.82837  -0.75221
 Alpha  occ. eigenvalues --   -0.71521  -0.67517  -0.63044  -0.61298  -0.60568
 Alpha  occ. eigenvalues --   -0.54854  -0.53138  -0.48291  -0.46503  -0.42371
 Alpha  occ. eigenvalues --   -0.40954  -0.40115  -0.38092  -0.37695  -0.37178
 Alpha  occ. eigenvalues --   -0.34446  -0.33730  -0.33068  -0.31303  -0.30277
 Alpha  occ. eigenvalues --   -0.29248  -0.28588  -0.28003  -0.27033  -0.26299
 Alpha  occ. eigenvalues --   -0.25141  -0.24987  -0.24576  -0.23656  -0.23176
 Alpha  occ. eigenvalues --   -0.16946  -0.16028  -0.14963  -0.14148   0.04250
 Alpha virt. eigenvalues --    0.06089   0.07181   0.07505   0.08281   0.08532
 Alpha virt. eigenvalues --    0.09082   0.10038   0.10132   0.10286   0.10499
 Alpha virt. eigenvalues --    0.11165   0.11258   0.11752   0.12098   0.12979

  Beta  occ. eigenvalues --  -88.74758 -18.99397 -14.23813 -10.17881 -10.11139
  Beta  occ. eigenvalues --  -10.11133 -10.08842 -10.07648 -10.07532 -10.07469
  Beta  occ. eigenvalues --  -10.07341 -10.07133 -10.06463  -7.83457  -5.79817
  Beta  occ. eigenvalues --   -5.79485  -5.78855  -0.94470  -0.82813  -0.75197
  Beta  occ. eigenvalues --   -0.71490  -0.67474  -0.63004  -0.61254  -0.60520
  Beta  occ. eigenvalues --   -0.54813  -0.53080  -0.48237  -0.46451  -0.42331
  Beta  occ. eigenvalues --   -0.40913  -0.40061  -0.38058  -0.37656  -0.37146
  Beta  occ. eigenvalues --   -0.34423  -0.33676  -0.33041  -0.31274  -0.30241
  Beta  occ. eigenvalues --   -0.29205  -0.28549  -0.27971  -0.27000  -0.26268
  Beta  occ. eigenvalues --   -0.25102  -0.24956  -0.24548  -0.23629  -0.23146
  Beta  occ. eigenvalues --   -0.16928  -0.16007  -0.14945  -0.14108
  Beta virt. eigenvalues --    0.06511   0.06926   0.07927   0.08045   0.08461
  Beta virt. eigenvalues --    0.09010   0.09497   0.10167   0.10412   0.10588
  Beta virt. eigenvalues --    0.10959   0.11468   0.11667   0.11874   0.12396

 Mulliken charges and spin densities:
               1          2
     1  C    0.056810  -0.389894
     2  C   -0.224007  -0.433594
     3  C    0.380955  -0.494447
     4  C    0.049157   0.691274
     5  C    1.195162  -1.801846
     6  C   -1.042163   0.905627
     7  C    0.947699  -1.501319
     8  N    0.042696  -0.004292
     9  C   -0.380223  -0.205420
    10  O   -0.339407   0.021783
    11  C    0.841977  -0.264337
    12  C   -0.180457  -0.713879
    13  S    0.174793  -0.168203
    14  H   -0.143348   0.289355
    15  H    0.007354   0.138444
    16  H    0.058490   0.075332
    17  H    0.041199   0.090744
    18  H    0.168646  -0.031363
    19  H   -0.345546   0.512964
    20  H   -0.055742   0.189582
    21  H   -0.124494   0.271348
    22  H   -0.334960   0.533132
    23  H   -0.862759   1.076024
    24  H   -0.624220   0.821723
    25  H    0.084721   0.188480
    26  H    0.107777   0.005529
    27  H   -0.469785   0.677225
    28  H   -0.264616   0.495801
    29  H    0.226349  -0.008430
    30  H    0.007941   0.032655
 Sum of Mulliken charges =  -1.00000   1.00000

 Dipole moment (field-independent basis, Debye):
    X=             -0.2872    Y=              5.7950    Z=              1.9407  Tot=              6.1180
 Quadrupole moment (field-independent basis, Debye-Ang):
   XX=           -155.0982   YY=           -138.6913   ZZ=           -128.0077
   XY=              4.2035   XZ=              0.9101   YZ=             -7.1379

 Summary of Natural Population Analysis:

                                       Natural Population
                Natural  -----------------------------------------------
    Atom  No    Charge         Core      Valence    Rydberg      Total
 -----------------------------------------------------------------------
      C    1   -0.18575      0.99965     2.17803    0.00806     3.18575
      C    2   -0.20223      0.99964     2.19590    0.00670     3.20223
      C    3   -0.09661      0.99943     2.08938    0.00780     3.09661
      C    4   -0.00665      0.99947     1.99495    0.01223     3.00665
      C    5   -0.20277      0.99959     2.19453    0.00864     3.20277
      C    6   -0.21005      0.99957     2.20016    0.01031     3.21005
      C    7   -0.08702      0.99960     2.07511    0.01230     3.08702
      N    8   -0.31445      0.99967     2.80397    0.01081     3.81445
      C    9    0.34750      0.99967     1.62906    0.02378     2.65250
      O   10   -0.33308      0.99988     3.32755    0.00566     4.33308
      C   11   -0.24310      0.99957     2.23335    0.01017     3.24310
      C   12   -0.24049      0.99959     2.22958    0.01132     3.24049
      S   13   -0.03764      4.99966     3.02292    0.01506     8.03764
      H   14    0.09771      0.00000     0.40128    0.00101     0.40229
      H   15    0.09511      0.00000     0.40375    0.00114     0.40489
      H   16    0.09718      0.00000     0.40140    0.00142     0.40282
      H   17    0.09627      0.00000     0.40243    0.00130     0.40373
      H   18    0.10056      0.00000     0.39826    0.00117     0.39944
      H   19    0.10418      0.00000     0.39401    0.00181     0.39582
      H   20    0.09793      0.00000     0.40041    0.00167     0.40207
      H   21    0.10363      0.00000     0.39419    0.00217     0.39637
      H   22    0.10755      0.00000     0.39059    0.00186     0.39245
      H   23    0.10363      0.00000     0.39320    0.00317     0.39637
      H   24    0.10286      0.00000     0.39481    0.00233     0.39714
      H   25    0.19404      0.00000     0.30345    0.00251     0.30596
      H   26    0.10912      0.00000     0.38880    0.00208     0.39088
      H   27    0.11713      0.00000     0.38094    0.00193     0.38287
      H   28    0.10588      0.00000     0.39287    0.00126     0.39412
      H   29    0.10978      0.00000     0.38898    0.00124     0.39022
      H   30    0.06978      0.00000     0.42716    0.00306     0.43022
 =======================================================================
   * Total *   -0.00000     16.99499    36.83102    0.17398    54.00000

 Normal termination of Gaussian 16 at Wed Dec  9 23:10:34 2020.
