 Gaussian 16, Revision A.03,

 -----------------------------------------------------------
 # opt freq B3LYP/6-31G(d) empiricaldispersion=gd3bj scf=xqc
 -----------------------------------------------------------

 ------------------------------
 CID_65259568_JID_4401_neutraal
 ------------------------------
 Symbolic Z-matrix:
 Charge =  0 Multiplicity = 1

 SCF Done:  E(RB3LYP) =  -981.142210973     A.U. after   14 cycles
 SCF Done:  E(RB3LYP) =  -981.144860711     A.U. after   13 cycles
 SCF Done:  E(RB3LYP) =  -981.137358542     A.U. after   14 cycles
 SCF Done:  E(RB3LYP) =  -981.145018472     A.U. after   12 cycles
 SCF Done:  E(RB3LYP) =  -981.147209757     A.U. after   14 cycles
 SCF Done:  E(RB3LYP) =  -981.149879275     A.U. after   14 cycles
 SCF Done:  E(RB3LYP) =  -981.150583641     A.U. after   13 cycles
 SCF Done:  E(RB3LYP) =  -981.146898445     A.U. after   13 cycles
 SCF Done:  E(RB3LYP) =  -981.150846165     A.U. after   13 cycles
 SCF Done:  E(RB3LYP) =  -981.152101771     A.U. after   13 cycles
 SCF Done:  E(RB3LYP) =  -981.152766802     A.U. after   10 cycles
 SCF Done:  E(RB3LYP) =  -981.152768327     A.U. after    8 cycles
 SCF Done:  E(RB3LYP) =  -981.152768909     A.U. after    9 cycles
 SCF Done:  E(RB3LYP) =  -981.152769199     A.U. after    8 cycles
 SCF Done:  E(RB3LYP) =  -981.152769343     A.U. after    7 cycles
 SCF Done:  E(RB3LYP) =  -981.152769423     A.U. after    7 cycles
 Optimization completed.
    -- Stationary point found.
 Normal termination of Gaussian 16 at Thu Dec 10 09:48:58 2020.

 --------------------------------------------------------------------
 #N Geom=AllCheck Guess=TCheck SCRF=Check GenChk RB3LYP/6-31G(d) Freq
 --------------------------------------------------------------------

 Structure from the checkpoint file:  "JID_4401.chk"
 ------------------------------
 CID_65259568_JID_4401_neutraal
 ------------------------------
 Charge =  0 Multiplicity = 1

 SCF Done:  E(RB3LYP) =  -981.152769423     A.U. after    1 cycles

  Exact polarizability: 159.600  11.301 129.365   2.598   0.259 123.747
 Approx polarizability: 197.938  14.818 194.518  11.831  -0.729 194.597

                      1                      2                      3
                      A                      A                      A
 Frequencies --     14.5271                36.4950                48.5647
 Red. masses --      3.9071                 5.3187                 3.0001
 Frc consts  --      0.0005                 0.0042                 0.0042
 IR Inten    --      0.4761                 1.2620                 0.0283

                      4                      5                      6
                      A                      A                      A
 Frequencies --     69.4482                78.3446               118.0312
 Red. masses --      6.9269                 3.8215                 4.1719
 Frc consts  --      0.0197                 0.0138                 0.0342
 IR Inten    --      0.5390                 0.4095                 1.0747

                      7                      8                      9
                      A                      A                      A
 Frequencies --    157.9809               181.2380               208.7277
 Red. masses --      3.2510                 3.0640                 2.4135
 Frc consts  --      0.0478                 0.0593                 0.0620
 IR Inten    --      0.5927                 0.1947                 0.3400

                     10                     11                     12
                      A                      A                      A
 Frequencies --    219.9955               235.8696               247.5530
 Red. masses --      1.0891                 1.0389                 1.3829
 Frc consts  --      0.0311                 0.0341                 0.0499
 IR Inten    --      0.1306                 0.0591                 0.0086

                     13                     14                     15
                      A                      A                      A
 Frequencies --    278.1506               280.5966               282.8442
 Red. masses --      2.0796                 1.1010                 1.1196
 Frc consts  --      0.0948                 0.0511                 0.0528
 IR Inten    --      0.6657                 0.1575                 0.2174

                     16                     17                     18
                      A                      A                      A
 Frequencies --    306.3760               308.5699               312.8039
 Red. masses --      2.2767                 2.2954                 2.4908
 Frc consts  --      0.1259                 0.1288                 0.1436
 IR Inten    --      0.9866                 0.5350                 0.8224

                     19                     20                     21
                      A                      A                      A
 Frequencies --    343.7242               364.5678               385.0139
 Red. masses --      2.8132                 2.6342                 2.5087
 Frc consts  --      0.1958                 0.2063                 0.2191
 IR Inten    --      1.0636                 3.5100                 0.6703

                     22                     23                     24
                      A                      A                      A
 Frequencies --    404.7316               412.4993               436.1055
 Red. masses --      2.4065                 2.1927                 2.5562
 Frc consts  --      0.2323                 0.2198                 0.2864
 IR Inten    --      0.4615                 0.8069                 1.4559

                     25                     26                     27
                      A                      A                      A
 Frequencies --    454.2848               514.3919               562.9256
 Red. masses --      2.5014                 3.8242                 3.5964
 Frc consts  --      0.3041                 0.5962                 0.6715
 IR Inten    --      0.3498                13.3921                13.3227

                     28                     29                     30
                      A                      A                      A
 Frequencies --    591.5106               637.4148               679.3883
 Red. masses --      3.6548                 1.2545                 3.5517
 Frc consts  --      0.7534                 0.3003                 0.9659
 IR Inten    --      3.1386               106.1888                13.5457

                     31                     32                     33
                      A                      A                      A
 Frequencies --    719.0631               779.3431               824.5190
 Red. masses --      3.6892                 3.7121                 2.8800
 Frc consts  --      1.1239                 1.3284                 1.1536
 IR Inten    --     11.0255                56.7060                 0.3824

                     34                     35                     36
                      A                      A                      A
 Frequencies --    829.6476               869.8174               892.6864
 Red. masses --      2.0623                 2.3415                 1.6648
 Frc consts  --      0.8364                 1.0438                 0.7816
 IR Inten    --      4.0380                 3.3635                 4.0806

                     37                     38                     39
                      A                      A                      A
 Frequencies --    944.7139               953.0482               958.4204
 Red. masses --      1.6867                 1.6802                 2.1457
 Frc consts  --      0.8869                 0.8992                 1.1612
 IR Inten    --      0.3777                 1.1327                 3.7932

                     40                     41                     42
                      A                      A                      A
 Frequencies --    966.4473               982.2607               990.6713
 Red. masses --      1.5177                 1.2023                 1.7249
 Frc consts  --      0.8352                 0.6835                 0.9974
 IR Inten    --      2.1909                 0.2855                 4.1555

                     43                     44                     45
                      A                      A                      A
 Frequencies --   1022.3457              1053.8213              1059.3202
 Red. masses --      1.6281                 1.4484                 1.4287
 Frc consts  --      1.0026                 0.9477                 0.9446
 IR Inten    --      6.0092                 6.4566                 0.1892

                     46                     47                     48
                      A                      A                      A
 Frequencies --   1061.1523              1096.5183              1140.8682
 Red. masses --      1.3971                 2.9156                 2.2922
 Frc consts  --      0.9269                 2.0654                 1.7579
 IR Inten    --      0.4986                 5.8925               152.0748

                     49                     50                     51
                      A                      A                      A
 Frequencies --   1168.9830              1191.4413              1213.4385
 Red. masses --      1.2267                 1.6637                 1.9673
 Frc consts  --      0.9877                 1.3915                 1.7067
 IR Inten    --     19.4801                29.3182                77.3387

                     52                     53                     54
                      A                      A                      A
 Frequencies --   1228.1861              1244.5306              1256.0415
 Red. masses --      2.1159                 1.7935                 2.6118
 Frc consts  --      1.8805                 1.6367                 2.4278
 IR Inten    --      6.8696                 2.5590                 3.5356

                     55                     56                     57
                      A                      A                      A
 Frequencies --   1259.3584              1279.1324              1322.2333
 Red. masses --      2.7054                 1.6792                 1.3496
 Frc consts  --      2.5280                 1.6187                 1.3902
 IR Inten    --      0.9566                 7.0821                 1.7146

                     58                     59                     60
                      A                      A                      A
 Frequencies --   1330.7568              1367.1768              1391.6420
 Red. masses --      1.3131                 1.5131                 1.6899
 Frc consts  --      1.3700                 1.6663                 1.9283
 IR Inten    --     13.8729                13.7972                19.2492

                     61                     62                     63
                      A                      A                      A
 Frequencies --   1409.8774              1428.6457              1431.1130
 Red. masses --      1.4389                 1.2352                 1.2320
 Frc consts  --      1.6851                 1.4854                 1.4866
 IR Inten    --      4.7245                 6.6706                 8.0379

                     64                     65                     66
                      A                      A                      A
 Frequencies --   1432.4697              1454.7041              1458.7616
 Red. masses --      1.2353                 1.2344                 1.2169
 Frc consts  --      1.4935                 1.5390                 1.5258
 IR Inten    --      4.8373                10.1711                 1.7371

                     67                     68                     69
                      A                      A                      A
 Frequencies --   1502.7930              1510.1514              1513.0258
 Red. masses --      1.0641                 1.0601                 1.0616
 Frc consts  --      1.4159                 1.4244                 1.4319
 IR Inten    --      2.6081                 0.8775                 1.7879

                     70                     71                     72
                      A                      A                      A
 Frequencies --   1515.3294              1517.7610              1518.6489
 Red. masses --      1.0525                 1.0536                 1.0532
 Frc consts  --      1.4239                 1.4300                 1.4311
 IR Inten    --      4.9651                 2.5608                 0.4504

                     73                     74                     75
                      A                      A                      A
 Frequencies --   1520.4761              1527.5564              1531.4563
 Red. masses --      1.0643                 1.0665                 1.0509
 Frc consts  --      1.4497                 1.4662                 1.4522
 IR Inten    --      3.2752                10.5113                 1.5548

                     76                     77                     78
                      A                      A                      A
 Frequencies --   1532.1512              1535.5821              1544.3091
 Red. masses --      1.0513                 1.0567                 1.0674
 Frc consts  --      1.4540                 1.4681                 1.4999
 IR Inten    --      9.0715                 3.8884                17.0503

                     79                     80                     81
                      A                      A                      A
 Frequencies --   1546.1112              1830.0759              3039.5051
 Red. masses --      1.0550                 9.6663                 1.0420
 Frc consts  --      1.4859                19.0743                 5.6716
 IR Inten    --      4.7970               208.7238                16.5574

                     82                     83                     84
                      A                      A                      A
 Frequencies --   3043.5999              3050.6192              3051.4245
 Red. masses --      1.0385                 1.0382                 1.0618
 Frc consts  --      5.6678                 5.6925                 5.8251
 IR Inten    --     22.5123                47.2345                 8.8592

                     85                     86                     87
                      A                      A                      A
 Frequencies --   3055.9169              3059.5731              3065.3795
 Red. masses --      1.0386                 1.0549                 1.0438
 Frc consts  --      5.7147                 5.8180                 5.7786
 IR Inten    --     25.2753                 8.6421                40.6984

                     88                     89                     90
                      A                      A                      A
 Frequencies --   3081.7832              3096.3911              3099.6010
 Red. masses --      1.0662                 1.0982                 1.0999
 Frc consts  --      5.9663                 6.2035                 6.2261
 IR Inten    --     10.3812                19.8683                22.7136

                     91                     92                     93
                      A                      A                      A
 Frequencies --   3108.5961              3111.8491              3117.2099
 Red. masses --      1.0957                 1.0978                 1.0963
 Frc consts  --      6.2385                 6.2633                 6.2767
 IR Inten    --     14.2133                 3.1531                55.7508

                     94                     95                     96
                      A                      A                      A
 Frequencies --   3118.1011              3127.2362              3130.0139
 Red. masses --      1.1029                 1.1025                 1.1033
 Frc consts  --      6.3180                 6.3528                 6.3686
 IR Inten    --     11.1575                40.9862                10.9812

                     97                     98                     99
                      A                      A                      A
 Frequencies --   3134.1469              3138.3728              3143.0493
 Red. masses --      1.1030                 1.1031                 1.1009
 Frc consts  --      6.3835                 6.4011                 6.4079
 IR Inten    --     20.1738                20.7811                25.2391

                    100                    101                    102
                      A                      A                      A
 Frequencies --   3149.5546              3155.3051              3680.5054
 Red. masses --      1.1009                 1.0996                 1.0641
 Frc consts  --      6.4342                 6.4499                 8.4925
 IR Inten    --     19.5088                19.7837                42.1921

 - Thermochemistry -
 -------------------
 Temperature   298.150 Kelvin.  Pressure   1.00000 Atm.
 Atom     1 has atomic number  6 and mass  12.00000

 Molecular mass:   218.13405 amu.
 Principal axes and moments of inertia in atomic units:
                           1         2         3
     Eigenvalues --  1716.506285642.217305944.95445
           X            0.99963   0.02517  -0.01062
           Y           -0.02439   0.99739   0.06797
           Z            0.01230  -0.06768   0.99763
 This molecule is an asymmetric top.
 Rotational symmetry number  1.
 Warning -- assumption of classical behavior for rotation
           may cause significant error
 Rotational temperatures (Kelvin)      0.05046     0.01535     0.01457
 Rotational constants (GHZ):           1.05140     0.31986     0.30358
 Zero-point vibrational energy     840908.9 (Joules/Mol)
                                  200.98206 (Kcal/Mol)
 Warning -- explicit consideration of  28 degrees of freedom as
           vibrations may cause significant error
 Vibrational temperatures:     20.90    52.51    69.87    99.92   112.72
          (Kelvin)            169.82   227.30   260.76   300.31   316.52
                              339.36   356.17   400.20   403.72   406.95
                              440.81   443.96   450.06   494.54   524.53
                              553.95   582.32   593.49   627.46   653.61
                              740.10   809.92   851.05   917.10   977.49
                             1034.57  1121.30  1186.30  1193.68  1251.47
                             1284.38  1359.23  1371.22  1378.95  1390.50
                             1413.25  1425.35  1470.93  1516.21  1524.13
                             1526.76  1577.65  1641.45  1681.91  1714.22
                             1745.87  1767.09  1790.60  1807.16  1811.94
                             1840.39  1902.40  1914.66  1967.06  2002.26
                             2028.50  2055.50  2059.05  2061.00  2092.99
                             2098.83  2162.18  2172.77  2176.91  2180.22
                             2183.72  2185.00  2187.63  2197.81  2203.42
                             2204.42  2209.36  2221.92  2224.51  2633.07
                             4373.17  4379.06  4389.16  4390.32  4396.78
                             4402.04  4410.40  4434.00  4455.02  4459.63
                             4472.58  4477.26  4484.97  4486.25  4499.40
                             4503.39  4509.34  4515.42  4522.15  4531.51
                             4539.78  5295.43

 Zero-point correction=                           0.320285 (Hartree/Particle)
 Thermal correction to Energy=                    0.337979
 Thermal correction to Enthalpy=                  0.338923
 Thermal correction to Gibbs Free Energy=         0.274089
 Sum of electronic and zero-point Energies=           -980.832484
 Sum of electronic and thermal Energies=              -980.814791
 Sum of electronic and thermal Enthalpies=            -980.813846
 Sum of electronic and thermal Free Energies=         -980.878680

                     E (Thermal)             CV                S
                      KCal/Mol        Cal/Mol-Kelvin    Cal/Mol-Kelvin
 Total                  212.085             65.863            136.455
 Electronic               0.000              0.000              0.000
 Translational            0.889              2.981             42.043
 Rotational               0.889              2.981             32.421
 Vibrational            210.308             59.902             61.991
 Vibration     1          0.593              1.986              7.269
 Vibration     2          0.594              1.982              5.441
 Vibration     3          0.595              1.978              4.875
 Vibration     4          0.598              1.969              4.169
 Vibration     5          0.600              1.964              3.932
 Vibration     6          0.608              1.934              3.132
 Vibration     7          0.621              1.894              2.574
 Vibration     8          0.630              1.865              2.316
 Vibration     9          0.642              1.827              2.055
 Vibration    10          0.647              1.811              1.959
 Vibration    11          0.655              1.786              1.834
 Vibration    12          0.661              1.767              1.748
 Vibration    13          0.679              1.714              1.545
 Vibration    14          0.680              1.710              1.530
 Vibration    15          0.682              1.705              1.516
 Vibration    16          0.697              1.662              1.382
 Vibration    17          0.698              1.657              1.370
 Vibration    18          0.701              1.649              1.347
 Vibration    19          0.722              1.588              1.195
 Vibration    20          0.738              1.545              1.103
 Vibration    21          0.754              1.502              1.019
 Vibration    22          0.770              1.460              0.945
 Vibration    23          0.776              1.443              0.918
 Vibration    24          0.797              1.392              0.839
 Vibration    25          0.813              1.351              0.783
 Vibration    26          0.869              1.218              0.623
 Vibration    27          0.919              1.111              0.518
 Vibration    28          0.949              1.050              0.464

 Optimization completed.
    -- Stationary point found.
 Normal termination of Gaussian 16 at Thu Dec 10 09:59:44 2020.

 ----------------------------------------------------------------------
 # B3LYP/6-311++G(d,p) empiricaldispersion=gd3bj scf=xqc pop=npa geom=c
 heck
 ----------------------------------------------------------------------

 --------------------------------------
 CID_65259568_JID_4401_Energie_neutraal
 --------------------------------------
 Structure from the checkpoint file:  "JID_4401.chk"
 Charge =  0 Multiplicity = 1

 SCF Done:  E(RB3LYP) =  -981.355776172     A.U. after   15 cycles
 Normal termination of Gaussian 16 at Thu Dec 10 10:05:16 2020.

 ----------------------------------------------------------------------
 # B3LYP/6-311++G(d,p) empiricaldispersion=gd3bj scf=xqc pop=npa geom=c
 heck
 ----------------------------------------------------------------------

 ------------------------------------
 CID_65259568_JID_4401_Energie_kation
 ------------------------------------
 Structure from the checkpoint file:  "JID_4401.chk"
 Charge =  1 Multiplicity = 2

 SCF Done:  E(UB3LYP) =  -981.057626546     A.U. after   23 cycles
 Normal termination of Gaussian 16 at Thu Dec 10 10:19:29 2020.
 Gaussian 16:  ES64L-G16RevA.03 25-Dec-2016

 ----------------------------------------------------------------------
 # B3LYP/6-311++G(d,p) empiricaldispersion=gd3bj scf=xqc pop=npa geom=c
 heck
 ----------------------------------------------------------------------

 -----------------------------------
 CID_65259568_JID_4401_Energie_anion
 -----------------------------------
 Structure from the checkpoint file:  "JID_4401.chk"
 Charge = -1 Multiplicity = 2

                         Standard orientation:
 ---------------------------------------------------------------------
 Center     Atomic      Atomic             Coordinates (Angstroms)
 Number     Number       Type             X           Y           Z
 ---------------------------------------------------------------------
      1          6           0        4.187118    0.008654    0.909517
      2          6           0        2.907609    0.320424    0.121310
      3          6           0        2.152764    1.477772    0.786199
      4          6           0        3.256245    0.654955   -1.333332
      5         16           0        1.901484   -1.246870    0.217154
      6          6           0        0.523310   -0.936272   -0.961173
      7          6           0       -0.737552   -1.690770   -0.517454
      8          6           0       -1.425209   -1.079061    0.718131
      9          6           0       -2.599294   -0.094630    0.432537
     10          6           0       -3.799040   -0.843097   -0.168826
     11          6           0       -3.013222    0.573621    1.756388
     12          6           0       -2.129406    0.948283   -0.573572
     13          8           0       -2.336731    0.924093   -1.767885
     14          8           0       -1.385064    1.939268   -0.008048
     15          1           0        4.827923    0.898363    0.938263
     16          1           0        4.750874   -0.806008    0.444162
     17          1           0        3.957363   -0.275977    1.941929
     18          1           0        2.746253    2.399575    0.721086
     19          1           0        1.185859    1.666290    0.310878
     20          1           0        1.966133    1.262384    1.842541
     21          1           0        3.780677   -0.177478   -1.812429
     22          1           0        2.363055    0.882134   -1.923978
     23          1           0        3.907421    1.538174   -1.365364
     24          1           0        0.331269    0.138021   -1.002651
     25          1           0        0.825090   -1.257919   -1.961902
     26          1           0       -1.428934   -1.716066   -1.367215
     27          1           0       -0.470240   -2.734049   -0.312980
     28          1           0       -1.845427   -1.874968    1.344336
     29          1           0       -0.670575   -0.573747    1.330924
     30          1           0       -4.140647   -1.611152    0.533334
     31          1           0       -4.630772   -0.157045   -0.359005
     32          1           0       -3.547621   -1.322142   -1.117176
     33          1           0       -2.179625    1.115974    2.208560
     34          1           0       -3.838672    1.277803    1.604406
     35          1           0       -3.350241   -0.193894    2.461769
     36          1           0       -1.128483    2.525492   -0.744840
 ---------------------------------------------------------------------

 SCF Done:  E(UB3LYP) =  -981.342950822     A.U. after   32 cycles

 The electronic state is 2-A.
 Alpha  occ. eigenvalues --  -88.73138 -19.07129 -19.02063 -10.20884 -10.11613
 Alpha  occ. eigenvalues --  -10.10806 -10.09880 -10.08232 -10.08077 -10.07073
 Alpha  occ. eigenvalues --  -10.07016 -10.06993 -10.06455 -10.05825  -7.81804
 Alpha  occ. eigenvalues --   -5.78191  -5.77832  -5.77170  -1.01360  -0.92397
 Alpha  occ. eigenvalues --   -0.74658  -0.73542  -0.69279  -0.62135  -0.60078
 Alpha  occ. eigenvalues --   -0.59683  -0.59137  -0.56793  -0.55698  -0.49780
 Alpha  occ. eigenvalues --   -0.46501  -0.43655  -0.39992  -0.39392  -0.39051
 Alpha  occ. eigenvalues --   -0.36417  -0.35958  -0.35081  -0.34874  -0.33787
 Alpha  occ. eigenvalues --   -0.33247  -0.32179  -0.30782  -0.30338  -0.29956
 Alpha  occ. eigenvalues --   -0.29800  -0.29032  -0.27682  -0.27263  -0.27103
 Alpha  occ. eigenvalues --   -0.25517  -0.25354  -0.24504  -0.24186  -0.23300
 Alpha  occ. eigenvalues --   -0.23013  -0.22272  -0.19898  -0.18390  -0.12437
 Alpha  occ. eigenvalues --    0.04337
 Alpha virt. eigenvalues --    0.06151   0.06965   0.07582   0.08234   0.08673
 Alpha virt. eigenvalues --    0.08797   0.09037   0.09597   0.10066   0.10659
 Alpha virt. eigenvalues --    0.10765   0.11384   0.11946   0.12040   0.12613

  Beta  occ. eigenvalues --  -88.73135 -19.07077 -19.02042 -10.20880 -10.11606
  Beta  occ. eigenvalues --  -10.10799 -10.09868 -10.08225 -10.08068 -10.07052
  Beta  occ. eigenvalues --  -10.06996 -10.06964 -10.06423 -10.05790  -7.81800
  Beta  occ. eigenvalues --   -5.78185  -5.77829  -5.77167  -1.01295  -0.92335
  Beta  occ. eigenvalues --   -0.74636  -0.73521  -0.69257  -0.62110  -0.60030
  Beta  occ. eigenvalues --   -0.59635  -0.59078  -0.56723  -0.55648  -0.49736
  Beta  occ. eigenvalues --   -0.46418  -0.43600  -0.39959  -0.39346  -0.39021
  Beta  occ. eigenvalues --   -0.36387  -0.35929  -0.35052  -0.34837  -0.33754
  Beta  occ. eigenvalues --   -0.33207  -0.32141  -0.30753  -0.30308  -0.29927
  Beta  occ. eigenvalues --   -0.29766  -0.28999  -0.27642  -0.27230  -0.27074
  Beta  occ. eigenvalues --   -0.25492  -0.25323  -0.24473  -0.24161  -0.23274
  Beta  occ. eigenvalues --   -0.22964  -0.22244  -0.19877  -0.18331  -0.12427
  Beta virt. eigenvalues --    0.06355   0.06949   0.07679   0.07942   0.08519
  Beta virt. eigenvalues --    0.08927   0.09292   0.09332   0.10153   0.10277
  Beta virt. eigenvalues --    0.10827   0.11019   0.11576   0.12136   0.12265

 Mulliken charges and spin densities:
               1          2
     1  C    0.064924  -0.567543
     2  C   -0.930304   1.383513
     3  C    0.293098  -0.933533
     4  C    0.250535  -0.826260
     5  S    0.705976  -0.890197
     6  C   -0.743854   0.749406
     7  C    0.508898  -1.250394
     8  C   -0.030934  -0.119218
     9  C   -0.576528   1.290891
    10  C    0.424057  -1.032859
    11  C    0.678380  -1.084674
    12  C   -0.398070  -0.265379
    13  O   -0.195532   0.029183
    14  O   -0.128834   0.059786
    15  H   -0.102233   0.249664
    16  H   -0.033011   0.173196
    17  H    0.018039   0.124670
    18  H   -0.335096   0.487109
    19  H    0.395604  -0.268797
    20  H   -0.072462   0.222116
    21  H   -0.018962   0.162573
    22  H   -0.174431   0.318344
    23  H   -0.331798   0.486818
    24  H   -0.002746   0.128808
    25  H    0.150058   0.111924
    26  H    0.204301  -0.066529
    27  H    0.036816   0.138242
    28  H    0.126402   0.064814
    29  H    0.032947   0.062639
    30  H   -0.004488   0.144912
    31  H   -0.049465   0.206292
    32  H    0.058123   0.103905
    33  H    0.051706   0.121330
    34  H   -0.256601   0.423571
    35  H   -0.214362   0.353179
    36  H   -0.400151   0.708498
 Sum of Mulliken charges =  -1.00000   1.00000

 Dipole moment (field-independent basis, Debye):
    X=             -1.0158    Y=             -5.2205    Z=              0.5377  Tot=              5.3455
 Quadrupole moment (field-independent basis, Debye-Ang):
   XX=           -173.6199   YY=           -143.7127   ZZ=           -134.4752
   XY=             -2.8773   XZ=              2.5588   YZ=              4.0239

 Summary of Natural Population Analysis:

                                       Natural Population
                Natural  -----------------------------------------------
    Atom  No    Charge         Core      Valence    Rydberg      Total
 -----------------------------------------------------------------------
      C    1   -0.29045      0.99960     2.28305    0.00779     3.29045
      C    2   -0.09322      0.99958     2.07924    0.01440     3.09322
      C    3   -0.29117      0.99959     2.28299    0.00859     3.29117
      C    4   -0.29082      0.99960     2.28334    0.00789     3.29082
      S    5    0.08246      4.99956     2.90250    0.01548     7.91754
      C    6   -0.25037      0.99958     2.24155    0.00924     3.25037
      C    7   -0.19835      0.99961     2.19057    0.00816     3.19835
      C    8   -0.18896      0.99959     2.17885    0.01052     3.18896
      C    9   -0.08404      0.99952     2.07141    0.01311     3.08404
      C   10   -0.28179      0.99963     2.27571    0.00644     3.28179
      C   11   -0.28185      0.99963     2.27423    0.00799     3.28185
      C   12    0.41310      0.99962     1.56011    0.02718     2.58690
      O   13   -0.30693      0.99987     3.30109    0.00598     4.30693
      O   14   -0.34699      0.99988     3.33932    0.00780     4.34699
      H   15    0.10384      0.00000     0.39508    0.00108     0.39616
      H   16    0.10226      0.00000     0.39679    0.00096     0.39774
      H   17    0.10238      0.00000     0.39678    0.00084     0.39762
      H   18    0.10160      0.00000     0.39665    0.00174     0.39840
      H   19    0.10577      0.00000     0.39232    0.00191     0.39423
      H   20    0.10179      0.00000     0.39692    0.00129     0.39821
      H   21    0.10154      0.00000     0.39742    0.00105     0.39846
      H   22    0.10308      0.00000     0.39554    0.00138     0.39692
      H   23    0.10333      0.00000     0.39520    0.00147     0.39667
      H   24    0.10388      0.00000     0.39325    0.00288     0.39612
      H   25    0.10004      0.00000     0.39876    0.00120     0.39996
      H   26    0.10575      0.00000     0.39294    0.00131     0.39425
      H   27    0.09954      0.00000     0.39948    0.00098     0.40046
      H   28    0.10023      0.00000     0.39881    0.00096     0.39977
      H   29    0.11058      0.00000     0.38774    0.00169     0.38942
      H   30    0.09773      0.00000     0.40129    0.00098     0.40227
      H   31    0.10355      0.00000     0.39551    0.00094     0.39645
      H   32    0.10605      0.00000     0.39290    0.00105     0.39395
      H   33    0.10969      0.00000     0.38891    0.00140     0.39031
      H   34    0.10249      0.00000     0.39641    0.00110     0.39751
      H   35    0.09898      0.00000     0.39993    0.00109     0.40102
      H   36    0.24528      0.00000     0.24510    0.00962     0.25472
 =======================================================================
   * Total *    0.00000     17.99487    41.81767    0.18746    60.00000

 Normal termination of Gaussian 16 at Thu Dec 10 10:40:14 2020.
