 Gaussian 16, Revision A.03,

 -----------------------------------------------------------
 # opt freq B3LYP/6-31G(d) empiricaldispersion=gd3bj scf=xqc
 -----------------------------------------------------------

 -------------------------------
 CID_152346777_JID_8851_neutraal
 -------------------------------
 Symbolic Z-matrix:
 Charge =  0 Multiplicity = 1

 SCF Done:  E(RB3LYP) =  -833.968817654     A.U. after   16 cycles
 SCF Done:  E(RB3LYP) =  -833.973762091     A.U. after   15 cycles
 SCF Done:  E(RB3LYP) =  -833.974287022     A.U. after   13 cycles
 SCF Done:  E(RB3LYP) =  -833.975110390     A.U. after   12 cycles
 SCF Done:  E(RB3LYP) =  -833.975043112     A.U. after   13 cycles
 SCF Done:  E(RB3LYP) =  -833.975287001     A.U. after   12 cycles
 SCF Done:  E(RB3LYP) =  -833.975538509     A.U. after   14 cycles
 SCF Done:  E(RB3LYP) =  -833.975192689     A.U. after   16 cycles
 SCF Done:  E(RB3LYP) =  -833.976592407     A.U. after   14 cycles
 SCF Done:  E(RB3LYP) =  -833.977418894     A.U. after   16 cycles
 SCF Done:  E(RB3LYP) =  -833.982031050     A.U. after   11 cycles
 SCF Done:  E(RB3LYP) =  -833.982032687     A.U. after   11 cycles
 SCF Done:  E(RB3LYP) =  -833.982032875     A.U. after    8 cycles
 SCF Done:  E(RB3LYP) =  -833.982032914     A.U. after    7 cycles
 Optimization completed.
    -- Stationary point found.
 Normal termination of Gaussian 16 at Fri Dec 11 22:30:02 2020.

 --------------------------------------------------------------------
 #N Geom=AllCheck Guess=TCheck SCRF=Check GenChk RB3LYP/6-31G(d) Freq
 --------------------------------------------------------------------

 Structure from the checkpoint file:  "JID_8851.chk"
 -------------------------------
 CID_152346777_JID_8851_neutraal
 -------------------------------
 Charge =  0 Multiplicity = 1

 SCF Done:  E(RB3LYP) =  -833.982032914     A.U. after    1 cycles

  Exact polarizability: 219.089  32.502 169.859  18.952 -22.644  95.626
 Approx polarizability: 309.866  59.300 313.282  39.845 -59.862 165.680

                      1                      2                      3
                      A                      A                      A
 Frequencies --      9.6524                22.4207                32.1892
 Red. masses --      7.8867                 5.8901                11.0873
 Frc consts  --      0.0004                 0.0017                 0.0068
 IR Inten    --      0.2050                 0.2254                 1.1033

                      4                      5                      6
                      A                      A                      A
 Frequencies --     56.5370                71.0852               101.3791
 Red. masses --      4.6000                 6.3150                 8.1344
 Frc consts  --      0.0087                 0.0188                 0.0493
 IR Inten    --      0.4979                 0.1520                 1.1804

                      7                      8                      9
                      A                      A                      A
 Frequencies --    135.5407               150.6399               207.1911
 Red. masses --      6.4680                 4.6612                 5.4719
 Frc consts  --      0.0700                 0.0623                 0.1384
 IR Inten    --      0.8597                 2.3116                 4.5875

                     10                     11                     12
                      A                      A                      A
 Frequencies --    249.8166               269.8765               298.2688
 Red. masses --      3.6869                 2.7362                 3.9687
 Frc consts  --      0.1356                 0.1174                 0.2080
 IR Inten    --      3.6334                 0.7660                 0.1627

                     13                     14                     15
                      A                      A                      A
 Frequencies --    358.1929               363.6636               370.8107
 Red. masses --      4.3392                 1.4343                 3.6748
 Frc consts  --      0.3280                 0.1118                 0.2977
 IR Inten    --      2.0806                64.8052                 4.2309

                     16                     17                     18
                      A                      A                      A
 Frequencies --    397.6766               427.1804               455.4385
 Red. masses --      4.2534                 3.3275                 3.2885
 Frc consts  --      0.3963                 0.3578                 0.4019
 IR Inten    --      7.2064                 0.2007                 2.9925

                     19                     20                     21
                      A                      A                      A
 Frequencies --    478.4944               500.6428               527.3915
 Red. masses --      3.2258                 2.3347                 2.3361
 Frc consts  --      0.4352                 0.3448                 0.3828
 IR Inten    --     15.1612                24.9389                 6.8793

                     22                     23                     24
                      A                      A                      A
 Frequencies --    535.4908               570.4611               618.6330
 Red. masses --     13.7994                 4.3620                 3.3503
 Frc consts  --      2.3314                 0.8363                 0.7554
 IR Inten    --      9.5673                 9.7587                 3.5877

                     25                     26                     27
                      A                      A                      A
 Frequencies --    626.6648               662.4688               672.8358
 Red. masses --      3.5899                 4.6647                 8.7139
 Frc consts  --      0.8306                 1.2062                 2.3242
 IR Inten    --     11.2018                 4.6632                20.6940

                     28                     29                     30
                      A                      A                      A
 Frequencies --    681.2237               703.6687               751.1766
 Red. masses --      1.4056                 2.8925                 2.7636
 Frc consts  --      0.3843                 0.8438                 0.9188
 IR Inten    --     93.2695                17.1646                 2.2466

                     31                     32                     33
                      A                      A                      A
 Frequencies --    787.6574               799.0129               810.9079
 Red. masses --      2.1839                 2.5035                 2.2620
 Frc consts  --      0.7983                 0.9417                 0.8764
 IR Inten    --     16.3333                17.0861                34.1884

                     34                     35                     36
                      A                      A                      A
 Frequencies --    814.8225               853.8761               864.1297
 Red. masses --      1.6549                 3.3134                 2.7884
 Frc consts  --      0.6473                 1.4234                 1.2268
 IR Inten    --     10.8916                 6.4890                 4.2904

                     37                     38                     39
                      A                      A                      A
 Frequencies --    874.9783               903.4636               931.1455
 Red. masses --      1.5504                 2.4872                 1.2691
 Frc consts  --      0.6993                 1.1961                 0.6483
 IR Inten    --     22.8613                 0.5439                 0.6221

                     40                     41                     42
                      A                      A                      A
 Frequencies --    971.0985               994.7511              1022.0014
 Red. masses --      3.5069                 3.3386                 1.7415
 Frc consts  --      1.9485                 1.9464                 1.0717
 IR Inten    --      8.0028                 6.1222                 5.5323

                     43                     44                     45
                      A                      A                      A
 Frequencies --   1043.3939              1096.7398              1132.1523
 Red. masses --      2.5008                 2.8713                 2.2527
 Frc consts  --      1.6041                 2.0349                 1.7012
 IR Inten    --      2.5733                15.9514                14.5351

                     46                     47                     48
                      A                      A                      A
 Frequencies --   1153.3133              1157.9401              1183.0135
 Red. masses --      1.5254                 1.3698                 1.6243
 Frc consts  --      1.1954                 1.0821                 1.3394
 IR Inten    --    163.6754                 5.0002                16.8272

                     49                     50                     51
                      A                      A                      A
 Frequencies --   1206.3290              1217.3181              1247.0431
 Red. masses --      1.8564                 1.1982                 2.2754
 Frc consts  --      1.5917                 1.0462                 2.0849
 IR Inten    --     87.1584                 3.7043                 7.5750

                     52                     53                     54
                      A                      A                      A
 Frequencies --   1271.5721              1310.9407              1311.4918
 Red. masses --      1.5957                 2.3875                 1.3874
 Frc consts  --      1.5201                 2.4174                 1.4060
 IR Inten    --      5.7911                66.4326                 3.2774

                     55                     56                     57
                      A                      A                      A
 Frequencies --   1333.4988              1353.0458              1374.2469
 Red. masses --      1.4982                 2.2580                 1.4075
 Frc consts  --      1.5696                 2.4356                 1.5661
 IR Inten    --     11.3894                68.0280                31.6457

                     58                     59                     60
                      A                      A                      A
 Frequencies --   1380.0978              1388.5314              1416.0056
 Red. masses --      7.4680                 2.5894                 1.9680
 Frc consts  --      8.3806                 2.9415                 2.3249
 IR Inten    --     61.9768                34.5591                 1.2548

                     61                     62                     63
                      A                      A                      A
 Frequencies --   1442.1742              1465.5464              1484.9394
 Red. masses --      2.0608                 3.0131                 1.1059
 Frc consts  --      2.5253                 3.8130                 1.4368
 IR Inten    --     43.9747                27.5568                17.7563

                     64                     65                     66
                      A                      A                      A
 Frequencies --   1505.3801              1511.6405              1520.8096
 Red. masses --      2.9889                 1.0923                 2.7432
 Frc consts  --      3.9907                 1.4706                 3.7381
 IR Inten    --     54.6747                 7.3865                38.0753

                     67                     68                     69
                      A                      A                      A
 Frequencies --   1522.9474              1611.3155              1645.3938
 Red. masses --      1.3585                 5.7854                 5.4530
 Frc consts  --      1.8564                 8.8500                 8.6981
 IR Inten    --     25.3118                 2.1406                39.9448

                     70                     71                     72
                      A                      A                      A
 Frequencies --   1677.6621              1839.8578              2261.5213
 Red. masses --      6.4856                 9.3618                13.9855
 Frc consts  --     10.7550                18.6714                42.1435
 IR Inten    --      2.1912               225.6173               808.0965

                     73                     74                     75
                      A                      A                      A
 Frequencies --   3038.0576              3051.9214              3065.0208
 Red. masses --      1.0712                 1.0652                 1.0632
 Frc consts  --      5.8254                 5.8455                 5.8849
 IR Inten    --     28.6901                42.3378                15.6508

                     76                     77                     78
                      A                      A                      A
 Frequencies --   3095.7229              3108.1176              3141.9405
 Red. masses --      1.1000                 1.0980                 1.0919
 Frc consts  --      6.2110                 6.2497                 6.3510
 IR Inten    --      6.7830                29.4291                 5.3704

                     79                     80                     81
                      A                      A                      A
 Frequencies --   3194.8399              3196.5397              3224.1769
 Red. masses --      1.0896                 1.0902                 1.0934
 Frc consts  --      6.5526                 6.5633                 6.6966
 IR Inten    --     16.3306                 0.5624                 6.7144

                     82                     83                     84
                      A                      A                      A
 Frequencies --   3260.2870              3662.8571              3685.0535
 Red. masses --      1.0958                 1.0795                 1.0640
 Frc consts  --      6.8628                 8.5334                 8.5128
 IR Inten    --      4.3891                51.7621                47.4638

 - Thermochemistry -
 -------------------
 Temperature   298.150 Kelvin.  Pressure   1.00000 Atm.
 Atom     1 has atomic number  6 and mass  12.00000

 Molecular mass:   244.09603 amu.
 Principal axes and moments of inertia in atomic units:
                           1         2         3
     Eigenvalues --  2383.122579138.73764**********
           X            1.00000  -0.00083   0.00012
           Y            0.00083   0.99996  -0.00885
           Z           -0.00011   0.00885   0.99996
 This molecule is an asymmetric top.
 Rotational symmetry number  1.
 Warning -- assumption of classical behavior for rotation
           may cause significant error
 Rotational temperatures (Kelvin)      0.03634     0.00948     0.00810
 Rotational constants (GHZ):           0.75730     0.19748     0.16873
 Zero-point vibrational energy     614431.7 (Joules/Mol)
                                  146.85269 (Kcal/Mol)
 Warning -- explicit consideration of  24 degrees of freedom as
           vibrations may cause significant error
 Vibrational temperatures:     13.89    32.26    46.31    81.34   102.28
          (Kelvin)            145.86   195.01   216.74   298.10   359.43
                              388.29   429.14   515.36   523.23   533.51
                              572.17   614.62   655.27   688.45   720.31
                              758.80   770.45   820.77   890.07   901.63
                              953.14   968.06   980.13  1012.42  1080.78
                             1133.26  1149.60  1166.72  1172.35  1228.54
                             1243.29  1258.90  1299.88  1339.71  1397.19
                             1431.22  1470.43  1501.21  1577.96  1628.91
                             1659.36  1666.02  1702.09  1735.64  1751.45
                             1794.22  1829.51  1886.15  1886.94  1918.61
                             1946.73  1977.23  1985.65  1997.79  2037.32
                             2074.97  2108.59  2136.50  2165.91  2174.91
                             2188.11  2191.18  2318.32  2367.35  2413.78
                             2647.14  3253.82  4371.09  4391.03  4409.88
                             4454.05  4471.89  4520.55  4596.66  4599.11
                             4638.87  4690.83  5270.03  5301.97

 Zero-point correction=                           0.234025 (Hartree/Particle)
 Thermal correction to Energy=                    0.249952
 Thermal correction to Enthalpy=                  0.250896
 Thermal correction to Gibbs Free Energy=         0.186832
 Sum of electronic and zero-point Energies=           -833.748008
 Sum of electronic and thermal Energies=              -833.732081
 Sum of electronic and thermal Enthalpies=            -833.731137
 Sum of electronic and thermal Free Energies=         -833.795201

                     E (Thermal)             CV                S
                      KCal/Mol        Cal/Mol-Kelvin    Cal/Mol-Kelvin
 Total                  156.847             59.984            134.833
 Electronic               0.000              0.000              0.000
 Translational            0.889              2.981             42.378
 Rotational               0.889              2.981             33.809
 Vibrational            155.069             54.022             58.645
 Vibration     1          0.593              1.987              8.081
 Vibration     2          0.593              1.985              6.407
 Vibration     3          0.594              1.983              5.690
 Vibration     4          0.596              1.975              4.575
 Vibration     5          0.598              1.968              4.123
 Vibration     6          0.604              1.948              3.428
 Vibration     7          0.613              1.918              2.866
 Vibration     8          0.618              1.902              2.664
 Vibration     9          0.641              1.830              2.068
 Vibration    10          0.663              1.763              1.732
 Vibration    11          0.674              1.729              1.597
 Vibration    12          0.691              1.677              1.427
 Vibration    13          0.733              1.558              1.130
 Vibration    14          0.737              1.547              1.106
 Vibration    15          0.743              1.532              1.076
 Vibration    16          0.764              1.475              0.971
 Vibration    17          0.789              1.411              0.868
 Vibration    18          0.814              1.349              0.779
 Vibration    19          0.835              1.298              0.714
 Vibration    20          0.856              1.249              0.657
 Vibration    21          0.882              1.189              0.593
 Vibration    22          0.890              1.172              0.575
 Vibration    23          0.927              1.095              0.503
 Vibration    24          0.978              0.993              0.419

                           ! Non-Optimized Parameters !
 Normal termination of Gaussian 16 at Fri Dec 11 22:41:22 2020.

 ----------------------------------------------------------------------
 # B3LYP/6-311++G(d,p) empiricaldispersion=gd3bj scf=xqc pop=npa geom=c
 heck
 ----------------------------------------------------------------------

 ---------------------------------------
 CID_152346777_JID_8851_Energie_neutraal
 ---------------------------------------
 Structure from the checkpoint file:  "JID_8851.chk"
 Charge =  0 Multiplicity = 1

 SCF Done:  E(RB3LYP) =  -834.217522873     A.U. after   17 cycles
 Normal termination of Gaussian 16 at Fri Dec 11 22:47:26 2020.

 ----------------------------------------------------------------------
 # B3LYP/6-311++G(d,p) empiricaldispersion=gd3bj scf=xqc pop=npa geom=c
 heck
 ----------------------------------------------------------------------

 -------------------------------------
 CID_152346777_JID_8851_Energie_kation
 -------------------------------------
 Structure from the checkpoint file:  "JID_8851.chk"
 Charge =  1 Multiplicity = 2

 SCF Done:  E(UB3LYP) =  -833.939064788     A.U. after   33 cycles
 SCF Done:  E(UB3LYP) =  -833.939064789     a.u. after    2 cycles
 Normal termination of Gaussian 16 at Fri Dec 11 23:19:25 2020.
 Gaussian 16:  ES64L-G16RevA.03 25-Dec-2016

 ----------------------------------------------------------------------
 # B3LYP/6-311++G(d,p) empiricaldispersion=gd3bj scf=xqc pop=npa geom=c
 heck
 ----------------------------------------------------------------------

 ------------------------------------
 CID_152346777_JID_8851_Energie_anion
 ------------------------------------
 Structure from the checkpoint file:  "JID_8851.chk"
 Charge = -1 Multiplicity = 2

                         Standard orientation:
 ---------------------------------------------------------------------
 Center     Atomic      Atomic             Coordinates (Angstroms)
 Number     Number       Type             X           Y           Z
 ---------------------------------------------------------------------
      1          6           0        3.126404   -1.478490    0.742674
      2          6           0        1.932300   -2.182070    0.676881
      3          6           0        0.836915   -1.554632    0.080325
      4          6           0        0.918821   -0.237305   -0.455695
      5          6           0        2.134563    0.456844   -0.378145
      6          6           0        3.224594   -0.171234    0.220652
      7          7           0        4.506892    0.437034    0.355737
      8          7           0        4.655402    1.581658   -0.081335
      9          7           0        4.918421    2.633289   -0.443870
     10          6           0       -0.378497    0.074256   -0.987052
     11          6           0       -1.191822   -1.014014   -0.776847
     12          7           0       -0.457545   -1.993282   -0.120739
     13          6           0       -2.645089   -1.198557   -1.068757
     14          6           0       -3.530226   -1.159142    0.197714
     15          6           0       -3.337454    0.099626    1.044394
     16          6           0       -3.761895    1.369028    0.341848
     17          8           0       -4.275975    1.446914   -0.753860
     18          8           0       -3.505832    2.461909    1.100521
     19          1           0        4.007168   -1.918684    1.196869
     20          1           0        1.859911   -3.188056    1.080197
     21          1           0        2.222783    1.463042   -0.777990
     22          1           0       -0.681175    0.993430   -1.469526
     23          1           0       -0.804462   -2.910122    0.114740
     24          1           0       -2.967252   -0.406658   -1.747927
     25          1           0       -2.812065   -2.153453   -1.585882
     26          1           0       -4.578431   -1.239272   -0.109254
     27          1           0       -3.312899   -2.030016    0.828739
     28          1           0       -3.912070    0.033995    1.976850
     29          1           0       -2.289502    0.219161    1.342289
     30          1           0       -3.811416    3.229297    0.581101
 ---------------------------------------------------------------------

 SCF Done:  E(UB3LYP) =  -834.214362240     A.U. after   33 cycles
 SCF Done:  E(UB3LYP) =  -834.214856209     a.u. after    9 cycles

 The electronic state is 2-A.
 Alpha  occ. eigenvalues --  -19.08796 -19.03209 -14.36912 -14.27443 -14.26197
 Alpha  occ. eigenvalues --  -14.25424 -10.22201 -10.11715 -10.11094 -10.10722
 Alpha  occ. eigenvalues --  -10.09311 -10.08130 -10.08038 -10.08038 -10.07732
 Alpha  occ. eigenvalues --  -10.07472 -10.07324 -10.06028  -1.03711  -1.02789
 Alpha  occ. eigenvalues --   -0.93775  -0.88443  -0.88177  -0.75238  -0.71982
 Alpha  occ. eigenvalues --   -0.68830  -0.66488  -0.64653  -0.61479  -0.56704
 Alpha  occ. eigenvalues --   -0.54094  -0.50786  -0.49682  -0.48007  -0.45033
 Alpha  occ. eigenvalues --   -0.44210  -0.41480  -0.40927  -0.40750  -0.40299
 Alpha  occ. eigenvalues --   -0.39484  -0.37310  -0.35839  -0.35299  -0.34794
 Alpha  occ. eigenvalues --   -0.33880  -0.33399  -0.32032  -0.31889  -0.31307
 Alpha  occ. eigenvalues --   -0.30103  -0.29576  -0.27187  -0.26013  -0.25593
 Alpha  occ. eigenvalues --   -0.25364  -0.24888  -0.24241  -0.21010  -0.19883
 Alpha  occ. eigenvalues --   -0.19023  -0.18460  -0.11495  -0.10798   0.03740
 Alpha virt. eigenvalues --    0.05007   0.05628   0.06533   0.07185   0.07929
 Alpha virt. eigenvalues --    0.08599   0.08827   0.08936   0.09528   0.10426
 Alpha virt. eigenvalues --    0.10591   0.11480   0.11849   0.12518   0.13062

  Beta  occ. eigenvalues --  -19.08775 -19.03202 -14.36705 -14.27225 -14.26221
  Beta  occ. eigenvalues --  -14.25383 -10.22196 -10.11682 -10.11062 -10.10729
  Beta  occ. eigenvalues --  -10.09290 -10.08120 -10.07997 -10.07997 -10.07725
  Beta  occ. eigenvalues --  -10.07466 -10.07268 -10.06015  -1.03353  -1.02758
  Beta  occ. eigenvalues --   -0.93750  -0.88330  -0.88083  -0.75163  -0.71927
  Beta  occ. eigenvalues --   -0.68760  -0.66408  -0.64554  -0.61405  -0.56604
  Beta  occ. eigenvalues --   -0.54018  -0.50691  -0.49602  -0.47911  -0.44957
  Beta  occ. eigenvalues --   -0.44127  -0.41452  -0.40664  -0.40395  -0.39996
  Beta  occ. eigenvalues --   -0.39430  -0.37175  -0.35573  -0.35092  -0.34721
  Beta  occ. eigenvalues --   -0.33826  -0.33218  -0.31960  -0.31815  -0.31276
  Beta  occ. eigenvalues --   -0.30049  -0.29539  -0.27083  -0.25971  -0.25540
  Beta  occ. eigenvalues --   -0.25275  -0.24820  -0.24216  -0.20596  -0.19864
  Beta  occ. eigenvalues --   -0.18868  -0.18329  -0.11338  -0.10622
  Beta virt. eigenvalues --    0.05948   0.06640   0.06891   0.07113   0.07573
  Beta virt. eigenvalues --    0.08270   0.08938   0.09115   0.09190   0.09658
  Beta virt. eigenvalues --    0.10782   0.10840   0.11661   0.11960   0.12711

 Mulliken charges and spin densities:
               1          2
     1  C   -0.049557   0.057434
     2  C   -0.619122   0.157299
     3  C   -1.299332  -0.132801
     4  C    2.311994  -0.533625
     5  C    0.301914  -0.107263
     6  C   -1.300717  -0.098313
     7  N    0.377615  -0.046139
     8  N    0.011650   0.067751
     9  N   -0.400918   0.166422
    10  C    0.840471  -0.405089
    11  C    0.888971  -0.986555
    12  N   -0.117284   0.143009
    13  C   -1.580411   1.099939
    14  C    0.976774  -1.379844
    15  C   -0.479632   0.412120
    16  C    0.256007  -0.508852
    17  O   -0.268631   0.001858
    18  O   -0.144783   0.027346
    19  H    0.172879   0.003494
    20  H   -0.142504   0.291976
    21  H    0.135894   0.022959
    22  H    0.052674   0.091954
    23  H   -0.247904   0.554059
    24  H    0.197545   0.003757
    25  H   -0.265015   0.448218
    26  H   -0.168760   0.344317
    27  H   -0.428341   0.592960
    28  H   -0.304138   0.511573
    29  H    0.214919   0.002721
    30  H    0.077742   0.197314
 Sum of Mulliken charges =  -1.00000   1.00000

 Dipole moment (field-independent basis, Debye):
    X=              1.6737    Y=              1.9759    Z=             -0.8272  Tot=              2.7184
 Quadrupole moment (field-independent basis, Debye-Ang):
   XX=           -196.3934   YY=           -150.0055   ZZ=           -129.3882
   XY=            -20.2647   XZ=              3.7768   YZ=              2.6693

 Summary of Natural Population Analysis:

                                       Natural Population
                Natural  -----------------------------------------------
    Atom  No    Charge         Core      Valence    Rydberg      Total
 -----------------------------------------------------------------------
      C    1   -0.11282      0.99954     2.10345    0.00983     3.11282
      C    2   -0.10589      0.99953     2.09723    0.00913     3.10589
      C    3    0.07156      0.99948     1.91746    0.01150     2.92844
      C    4   -0.03712      0.99951     2.02815    0.00946     3.03712
      C    5   -0.10639      0.99944     2.09879    0.00816     3.10639
      C    6    0.05355      0.99944     1.93485    0.01216     2.94645
      N    7   -0.18142      0.99965     2.66855    0.01322     3.68142
      N    8    0.13431      0.99971     2.35013    0.01586     3.36569
      N    9   -0.02885      0.99982     2.51630    0.01273     3.52885
      C   10   -0.14784      0.99945     2.14096    0.00743     3.14784
      C   11    0.10122      0.99953     1.88578    0.01347     2.89878
      N   12   -0.27531      0.99962     2.76603    0.00966     3.77531
      C   13   -0.21167      0.99958     2.20217    0.00992     3.21167
      C   14   -0.18450      0.99963     2.17490    0.00998     3.18450
      C   15   -0.24581      0.99957     2.23734    0.00890     3.24581
      C   16    0.40944      0.99972     1.56502    0.02582     2.59056
      O   17   -0.31072      0.99987     3.30488    0.00598     4.31072
      O   18   -0.34457      0.99988     3.33866    0.00603     4.34457
      H   19    0.10280      0.00000     0.39618    0.00102     0.39720
      H   20    0.10262      0.00000     0.39650    0.00088     0.39738
      H   21    0.10187      0.00000     0.39667    0.00146     0.39813
      H   22    0.10593      0.00000     0.39317    0.00090     0.39407
      H   23    0.20472      0.00000     0.28885    0.00644     0.29528
      H   24    0.11432      0.00000     0.38452    0.00116     0.38568
      H   25    0.10776      0.00000     0.39082    0.00143     0.39224
      H   26    0.10327      0.00000     0.39527    0.00146     0.39673
      H   27    0.10294      0.00000     0.39378    0.00328     0.39706
      H   28    0.11804      0.00000     0.38073    0.00123     0.38196
      H   29    0.11990      0.00000     0.37864    0.00145     0.38010
      H   30    0.23865      0.00000     0.25741    0.00395     0.26135
 =======================================================================
   * Total *    0.00000     17.99297    45.78315    0.22388    64.00000

 Normal termination of Gaussian 16 at Sat Dec 12 02:32:47 2020.
