 Gaussian 16, Revision A.03,

 -----------------------------------------------------------
 # opt freq B3LYP/6-31G(d) empiricaldispersion=gd3bj scf=xqc
 -----------------------------------------------------------

 -------------------------------
 CID_148877121_JID_3025_neutraal
 -------------------------------
 Symbolic Z-matrix:
 Charge =  0 Multiplicity = 1

 SCF Done:  E(RB3LYP) =  -573.063455115     A.U. after   15 cycles
 SCF Done:  E(RB3LYP) =  -573.069692404     A.U. after   13 cycles
 SCF Done:  E(RB3LYP) =  -573.070996779     A.U. after   12 cycles
 SCF Done:  E(RB3LYP) =  -573.072235689     A.U. after   12 cycles
 SCF Done:  E(RB3LYP) =  -573.072603219     A.U. after   12 cycles
 SCF Done:  E(RB3LYP) =  -573.072802101     A.U. after   11 cycles
 SCF Done:  E(RB3LYP) =  -573.072730426     A.U. after   11 cycles
 SCF Done:  E(RB3LYP) =  -573.072861855     A.U. after   11 cycles
 SCF Done:  E(RB3LYP) =  -573.072858491     A.U. after    9 cycles
 SCF Done:  E(RB3LYP) =  -573.072868747     A.U. after    9 cycles
 SCF Done:  E(RB3LYP) =  -573.072870269     A.U. after    8 cycles
 SCF Done:  E(RB3LYP) =  -573.072870502     A.U. after    7 cycles
 SCF Done:  E(RB3LYP) =  -573.072870793     A.U. after    7 cycles
 SCF Done:  E(RB3LYP) =  -573.072870916     A.U. after    7 cycles
 SCF Done:  E(RB3LYP) =  -573.072870998     A.U. after    7 cycles
 Optimization completed.
    -- Stationary point found.
 Normal termination of Gaussian 16 at Wed Dec  9 22:22:46 2020.

 --------------------------------------------------------------------
 #N Geom=AllCheck Guess=TCheck SCRF=Check GenChk RB3LYP/6-31G(d) Freq
 --------------------------------------------------------------------

 Structure from the checkpoint file:  "JID_3025.chk"
 -------------------------------
 CID_148877121_JID_3025_neutraal
 -------------------------------
 Charge =  0 Multiplicity = 1

 SCF Done:  E(RB3LYP) =  -573.072870998     A.U. after    1 cycles

  Exact polarizability: 190.265   9.562 132.421  -1.102   1.552  59.768
 Approx polarizability: 287.094  22.403 237.141   0.042   4.197  92.459

                      1                      2                      3
                      A                      A                      A
 Frequencies --     75.6601               104.5912               116.9202
 Red. masses --      3.5829                 1.6599                 1.6381
 Frc consts  --      0.0121                 0.0107                 0.0132
 IR Inten    --      7.1867                 0.5273                 0.5167

                      4                      5                      6
                      A                      A                      A
 Frequencies --    161.4612               174.3111               230.4068
 Red. masses --      3.9165                 2.8310                 3.5247
 Frc consts  --      0.0602                 0.0507                 0.1102
 IR Inten    --      0.6999                 1.7482                 3.7814

                      7                      8                      9
                      A                      A                      A
 Frequencies --    275.1527               322.5458               342.9414
 Red. masses --      3.3744                 2.0435                 2.3019
 Frc consts  --      0.1505                 0.1253                 0.1595
 IR Inten    --      0.6831                18.7227                26.7696

                     10                     11                     12
                      A                      A                      A
 Frequencies --    354.8996               398.0505               403.1773
 Red. masses --      2.2451                 2.5044                 5.0385
 Frc consts  --      0.1666                 0.2338                 0.4825
 IR Inten    --     10.5817                38.4405                 6.1058

                     13                     14                     15
                      A                      A                      A
 Frequencies --    451.0900               481.8643               529.9231
 Red. masses --      3.1641                 3.0794                 4.2491
 Frc consts  --      0.3793                 0.4213                 0.7030
 IR Inten    --     14.6728                19.8536                 8.3983

                     16                     17                     18
                      A                      A                      A
 Frequencies --    546.9044               564.8802               624.0661
 Red. masses --      4.3272                 3.0356                 3.5348
 Frc consts  --      0.7626                 0.5707                 0.8111
 IR Inten    --      6.5337                11.9645               102.1163

                     19                     20                     21
                      A                      A                      A
 Frequencies --    641.9397               658.1278               733.7868
 Red. masses --      1.7072                 3.9265                 4.4180
 Frc consts  --      0.4145                 1.0020                 1.4016
 IR Inten    --    361.0887                 8.4921                 4.5444

                     22                     23                     24
                      A                      A                      A
 Frequencies --    753.8069               769.4871               796.5895
 Red. masses --      1.4490                 4.6702                 2.6487
 Frc consts  --      0.4851                 1.6293                 0.9902
 IR Inten    --     28.1872                 4.8675                10.7964

                     25                     26                     27
                      A                      A                      A
 Frequencies --    816.8575               872.0900               888.9280
 Red. masses --      3.6198                 1.4559                 1.2499
 Frc consts  --      1.4231                 0.6524                 0.5819
 IR Inten    --      4.8703                31.5629                 0.0534

                     28                     29                     30
                      A                      A                      A
 Frequencies --    909.2705               979.8958              1021.6233
 Red. masses --      3.0966                 2.8322                 2.1779
 Frc consts  --      1.5084                 1.6023                 1.3393
 IR Inten    --      6.4954                 8.7594                 2.5049

                     31                     32                     33
                      A                      A                      A
 Frequencies --   1052.1169              1064.7119              1127.8459
 Red. masses --      2.1046                 1.9830                 2.3281
 Frc consts  --      1.3726                 1.3244                 1.7448
 IR Inten    --      0.2025                 7.5272                43.2259

                     34                     35                     36
                      A                      A                      A
 Frequencies --   1140.8678              1161.4773              1199.0998
 Red. masses --      1.4260                 1.3097                 1.2856
 Frc consts  --      1.0936                 1.0410                 1.0891
 IR Inten    --     12.3902                 0.0937                10.3521

                     37                     38                     39
                      A                      A                      A
 Frequencies --   1209.6370              1227.7566              1236.8479
 Red. masses --      1.2997                 1.5003                 1.9130
 Frc consts  --      1.1205                 1.3324                 1.7242
 IR Inten    --      5.0153                 9.2414                24.6569

                     40                     41                     42
                      A                      A                      A
 Frequencies --   1258.3357              1309.0507              1335.2679
 Red. masses --      3.0047                 2.1155                 2.1955
 Frc consts  --      2.8032                 2.1359                 2.3063
 IR Inten    --      2.2325                 1.6892                 6.8521

                     43                     44                     45
                      A                      A                      A
 Frequencies --   1374.2652              1379.9485              1426.0986
 Red. masses --      1.8683                 1.7731                 2.6392
 Frc consts  --      2.0789                 1.9894                 3.1624
 IR Inten    --     38.1882                 3.5432                30.0607

                     46                     47                     48
                      A                      A                      A
 Frequencies --   1444.2796              1469.1986              1496.4918
 Red. masses --      2.4631                 1.3210                 1.0963
 Frc consts  --      3.0272                 1.6800                 1.4466
 IR Inten    --     52.4803                 2.9183                 2.4144

                     49                     50                     51
                      A                      A                      A
 Frequencies --   1497.5959              1508.9768              1520.2929
 Red. masses --      1.0431                 1.1042                 1.7305
 Frc consts  --      1.3784                 1.4814                 2.3565
 IR Inten    --      6.9142                 1.8486                 5.7833

                     52                     53                     54
                      A                      A                      A
 Frequencies --   1540.0727              1576.4406              1660.5903
 Red. masses --      1.3200                 6.3811                 4.8054
 Frc consts  --      1.8447                 9.3434                 7.8074
 IR Inten    --      4.9292                12.0274               147.0494

                     55                     56                     57
                      A                      A                      A
 Frequencies --   1677.3006              1711.4647              1740.8853
 Red. masses --      1.4424                 3.3853                10.2110
 Frc consts  --      2.3909                 5.8423                18.2330
 IR Inten    --     28.1144               320.7389               388.7532

                     58                     59                     60
                      A                      A                      A
 Frequencies --   3001.2806              3013.1543              3078.3316
 Red. masses --      1.0717                 1.0671                 1.0314
 Frc consts  --      5.6876                 5.7079                 5.7587
 IR Inten    --     24.3221                43.6359                43.4305

                     61                     62                     63
                      A                      A                      A
 Frequencies --   3081.0433              3087.0283              3146.5110
 Red. masses --      1.0921                 1.0929                 1.1050
 Frc consts  --      6.1081                 6.1366                 6.4459
 IR Inten    --     32.4235                28.6471                11.5925

                     64                     65                     66
                      A                      A                      A
 Frequencies --   3168.6256              3210.1996              3210.4040
 Red. masses --      1.1065                 1.0875                 1.0896
 Frc consts  --      6.5453                 6.6033                 6.6163
 IR Inten    --     10.1142                 8.7928                11.2280

                     67                     68                     69
                      A                      A                      A
 Frequencies --   3230.4362              3531.9292              3634.9843
 Red. masses --      1.0969                 1.0471                 1.0986
 Frc consts  --      6.7444                 7.6962                 8.5524
 IR Inten    --     12.3016                14.7335                 6.5080

 - Thermochemistry -
 -------------------
 Temperature   298.150 Kelvin.  Pressure   1.00000 Atm.
 Atom     1 has atomic number  6 and mass  12.00000

 Molecular mass:   176.09496 amu.
 Principal axes and moments of inertia in atomic units:
                           1         2         3
     Eigenvalues --  1099.903183131.944694162.77875
           X            1.00000  -0.00172  -0.00232
           Y            0.00172   1.00000  -0.00174
           Z            0.00232   0.00173   1.00000
 This molecule is an asymmetric top.
 Rotational symmetry number  1.
 Warning -- assumption of classical behavior for rotation
           may cause significant error
 Rotational temperatures (Kelvin)      0.07875     0.02765     0.02081
 Rotational constants (GHZ):           1.64082     0.57624     0.43354
 Zero-point vibrational energy     548739.6 (Joules/Mol)
                                  131.15191 (Kcal/Mol)
 Warning -- explicit consideration of  17 degrees of freedom as
           vibrations may cause significant error
 Vibrational temperatures:    108.86   150.48   168.22   232.31   250.79
          (Kelvin)            331.50   395.88   464.07   493.42   510.62
                              572.71   580.08   649.02   693.30   762.44
                              786.87   812.74   897.89   923.61   946.90
                             1055.76  1084.56  1107.12  1146.11  1175.28
                             1254.74  1278.97  1308.24  1409.85  1469.89
                             1513.76  1531.88  1622.72  1641.45  1671.11
                             1725.24  1740.40  1766.47  1779.55  1810.46
                             1883.43  1921.15  1977.26  1985.44  2051.84
                             2078.00  2113.85  2153.12  2154.71  2171.08
                             2187.36  2215.82  2268.15  2389.22  2413.26
                             2462.42  2504.75  4318.17  4335.26  4429.03
                             4432.93  4441.55  4527.13  4558.95  4618.76
                             4619.06  4647.88  5081.66  5229.93

 Zero-point correction=                           0.209004 (Hartree/Particle)
 Thermal correction to Energy=                    0.220431
 Thermal correction to Enthalpy=                  0.221375
 Thermal correction to Gibbs Free Energy=         0.172116
 Sum of electronic and zero-point Energies=           -572.863867
 Sum of electronic and thermal Energies=              -572.852440
 Sum of electronic and thermal Enthalpies=            -572.851496
 Sum of electronic and thermal Free Energies=         -572.900755

                     E (Thermal)             CV                S
                      KCal/Mol        Cal/Mol-Kelvin    Cal/Mol-Kelvin
 Total                  138.322             45.160            103.674
 Electronic               0.000              0.000              0.000
 Translational            0.889              2.981             41.405
 Rotational               0.889              2.981             31.040
 Vibrational            136.545             39.198             31.229
 Vibration     1          0.599              1.965              4.000
 Vibration     2          0.605              1.946              3.367
 Vibration     3          0.608              1.935              3.151
 Vibration     4          0.622              1.890              2.533
 Vibration     5          0.627              1.874              2.388
 Vibration     6          0.652              1.795              1.876
 Vibration     7          0.677              1.719              1.564
 Vibration     8          0.708              1.630              1.297
 Vibration     9          0.722              1.590              1.198
 Vibration    10          0.731              1.565              1.144
 Vibration    11          0.764              1.474              0.970
 Vibration    12          0.769              1.463              0.951
 Vibration    13          0.810              1.358              0.792
 Vibration    14          0.838              1.290              0.705
 Vibration    15          0.885              1.184              0.587
 Vibration    16          0.902              1.146              0.551
 Vibration    17          0.921              1.107              0.514

 Optimization completed.
    -- Stationary point found.
 Normal termination of Gaussian 16 at Wed Dec  9 22:28:35 2020.

 ----------------------------------------------------------------------
 # B3LYP/6-311++G(d,p) empiricaldispersion=gd3bj scf=xqc pop=npa geom=c
 heck
 ----------------------------------------------------------------------

 ---------------------------------------
 CID_148877121_JID_3025_Energie_neutraal
 ---------------------------------------
 Structure from the checkpoint file:  "JID_3025.chk"
 Charge =  0 Multiplicity = 1

 SCF Done:  E(RB3LYP) =  -573.235302391     A.U. after   16 cycles
 Normal termination of Gaussian 16 at Wed Dec  9 22:30:56 2020.

 ----------------------------------------------------------------------
 # B3LYP/6-311++G(d,p) empiricaldispersion=gd3bj scf=xqc pop=npa geom=c
 heck
 ----------------------------------------------------------------------

 -------------------------------------
 CID_148877121_JID_3025_Energie_kation
 -------------------------------------
 Structure from the checkpoint file:  "JID_3025.chk"
 Charge =  1 Multiplicity = 2

 SCF Done:  E(UB3LYP) =  -572.990452117     A.U. after   20 cycles
 Normal termination of Gaussian 16 at Wed Dec  9 22:34:48 2020.
 Gaussian 16:  ES64L-G16RevA.03 25-Dec-2016

 ----------------------------------------------------------------------
 # B3LYP/6-311++G(d,p) empiricaldispersion=gd3bj scf=xqc pop=npa geom=c
 heck
 ----------------------------------------------------------------------

 ------------------------------------
 CID_148877121_JID_3025_Energie_anion
 ------------------------------------
 Structure from the checkpoint file:  "JID_3025.chk"
 Charge = -1 Multiplicity = 2

                         Standard orientation:
 ---------------------------------------------------------------------
 Center     Atomic      Atomic             Coordinates (Angstroms)
 Number     Number       Type             X           Y           Z
 ---------------------------------------------------------------------
      1          6           0        3.647855   -0.686443    0.120577
      2          7           0        2.345481   -0.030942    0.046932
      3          6           0        2.237577    1.334088    0.052531
      4          6           0        1.019542    1.944319   -0.022434
      5          6           0       -0.152194    1.148986   -0.103382
      6          6           0       -0.062358   -0.230151   -0.099661
      7          6           0        1.233281   -0.892999   -0.031379
      8          8           0        1.412160   -2.114829   -0.040685
      9          6           0       -1.244886   -1.068144   -0.169461
     10          6           0       -2.476118   -0.545508    0.033429
     11          6           0       -2.622541    0.920411    0.379927
     12          6           0       -1.522376    1.763498   -0.275771
     13          7           0       -3.658068   -1.273082   -0.049413
     14          1           0        4.426406    0.074968    0.192411
     15          1           0        3.806294   -1.302715   -0.768031
     16          1           0        3.684328   -1.344780    0.992011
     17          1           0        3.170035    1.882461    0.119832
     18          1           0        0.957971    3.027054   -0.020786
     19          1           0       -1.092364   -2.129970   -0.333518
     20          1           0       -2.574741    1.028142    1.475481
     21          1           0       -3.606489    1.287668    0.066318
     22          1           0       -1.542340    2.786150    0.116635
     23          1           0       -1.730511    1.834136   -1.355013
     24          1           0       -3.545428   -2.279151    0.004048
     25          1           0       -4.409027   -0.945505    0.547200
 ---------------------------------------------------------------------

 SCF Done:  E(UB3LYP) =  -573.223177823     A.U. after   33 cycles
 SCF Done:  E(UB3LYP) =  -573.223178106     a.u. after    3 cycles

 The electronic state is 2-A.
 Alpha  occ. eigenvalues --  -18.91733 -14.20129 -14.18711 -10.09913 -10.07407
 Alpha  occ. eigenvalues --  -10.04438 -10.04267 -10.03885 -10.03243 -10.01305
 Alpha  occ. eigenvalues --  -10.00529  -9.99623  -9.99536  -0.87459  -0.79769
 Alpha  occ. eigenvalues --   -0.78168  -0.69013  -0.63479  -0.60222  -0.57433
 Alpha  occ. eigenvalues --   -0.56144  -0.49654  -0.47924  -0.43791  -0.40032
 Alpha  occ. eigenvalues --   -0.38305  -0.37049  -0.35297  -0.32900  -0.32404
 Alpha  occ. eigenvalues --   -0.31502  -0.28964  -0.27882  -0.27105  -0.26489
 Alpha  occ. eigenvalues --   -0.25374  -0.24859  -0.24098  -0.22870  -0.19564
 Alpha  occ. eigenvalues --   -0.19272  -0.18504  -0.18088  -0.13887  -0.09846
 Alpha  occ. eigenvalues --   -0.08729  -0.03279   0.06554
 Alpha virt. eigenvalues --    0.08038   0.08656   0.09650   0.10582   0.11382
 Alpha virt. eigenvalues --    0.11639   0.12833   0.12913   0.13190   0.13603
 Alpha virt. eigenvalues --    0.15657   0.15933   0.16198   0.16791   0.17357

  Beta  occ. eigenvalues --  -18.91715 -14.19850 -14.18677 -10.09947 -10.07421
  Beta  occ. eigenvalues --  -10.04096 -10.03912 -10.03886 -10.03267 -10.01408
  Beta  occ. eigenvalues --  -10.00180  -9.99645  -9.99402  -0.87313  -0.79374
  Beta  occ. eigenvalues --   -0.77932  -0.68628  -0.63250  -0.59961  -0.56995
  Beta  occ. eigenvalues --   -0.55975  -0.49551  -0.47493  -0.43501  -0.39807
  Beta  occ. eigenvalues --   -0.38207  -0.36799  -0.35142  -0.32470  -0.32104
  Beta  occ. eigenvalues --   -0.31290  -0.28768  -0.27726  -0.27015  -0.26351
  Beta  occ. eigenvalues --   -0.25044  -0.24627  -0.23710  -0.22638  -0.19090
  Beta  occ. eigenvalues --   -0.19074  -0.18166  -0.17303  -0.12641  -0.09753
  Beta  occ. eigenvalues --   -0.08007  -0.01910
  Beta virt. eigenvalues --    0.07996   0.08585   0.09597   0.10525   0.11110
  Beta virt. eigenvalues --    0.11426   0.12268   0.12858   0.12942   0.13495
  Beta virt. eigenvalues --    0.13763   0.15570   0.15915   0.16514   0.17027

 Mulliken charges and spin densities:
               1          2
     1  C   -0.269672  -0.001545
     2  N    0.104990   0.035575
     3  C   -0.412091   0.376281
     4  C    0.049943  -0.099621
     5  C    0.255241   0.151782
     6  C    0.859538   0.340267
     7  C   -0.401916  -0.122927
     8  O   -0.424136   0.007972
     9  C   -0.858057  -0.117778
    10  C    0.144002   0.194474
    11  C   -0.181369  -0.209947
    12  C   -0.767271  -0.010042
    13  N   -0.374764   0.031089
    14  H    0.095141   0.000168
    15  H    0.135049   0.039451
    16  H    0.166047   0.006839
    17  H    0.086198  -0.020682
    18  H    0.119686   0.006026
    19  H    0.143670   0.006428
    20  H    0.102128   0.009000
    21  H   -0.111832   0.249092
    22  H    0.083028   0.006792
    23  H    0.035987   0.112090
    24  H    0.210819   0.008076
    25  H    0.209641   0.001142
 Sum of Mulliken charges =  -1.00000   1.00000

 Dipole moment (field-independent basis, Debye):
    X=             -0.1448    Y=              1.5953    Z=              1.7417  Tot=              2.3663
 Quadrupole moment (field-independent basis, Debye-Ang):
   XX=           -101.9149   YY=            -98.7167   ZZ=            -91.0689
   XY=              6.4420   XZ=             -4.6914   YZ=              0.5268

 Summary of Natural Population Analysis:

                                       Natural Population
                Natural  -----------------------------------------------
    Atom  No    Charge         Core      Valence    Rydberg      Total
 -----------------------------------------------------------------------
      C    1   -0.17394      0.99966     2.16631    0.00797     3.17394
      N    2   -0.19078      0.99963     2.68286    0.00829     3.69078
      C    3    0.07927      0.99957     1.90902    0.01213     2.92073
      C    4   -0.16847      0.99953     2.15848    0.01046     3.16847
      C    5    0.05530      0.99949     1.93537    0.00985     2.94470
      C    6   -0.03971      0.99943     2.02927    0.01101     3.03971
      C    7    0.31331      0.99958     1.66366    0.02345     2.68669
      O    8   -0.36153      0.99988     3.35572    0.00592     4.36153
      C    9   -0.17623      0.99948     2.16583    0.01093     3.17623
      C   10    0.15218      0.99950     1.83680    0.01152     2.84782
      C   11   -0.20149      0.99961     2.19341    0.00847     3.20149
      C   12   -0.19246      0.99962     2.18270    0.01014     3.19246
      N   13   -0.40061      0.99971     2.89056    0.01034     3.90061
      H   14    0.08767      0.00000     0.41163    0.00070     0.41233
      H   15    0.09832      0.00000     0.40016    0.00152     0.40168
      H   16    0.09880      0.00000     0.40029    0.00090     0.40120
      H   17    0.08236      0.00000     0.41677    0.00086     0.41764
      H   18    0.09331      0.00000     0.40557    0.00112     0.40669
      H   19    0.10360      0.00000     0.39531    0.00109     0.39640
      H   20    0.09636      0.00000     0.40247    0.00117     0.40364
      H   21    0.09429      0.00000     0.40375    0.00196     0.40571
      H   22    0.09317      0.00000     0.40586    0.00098     0.40683
      H   23    0.10118      0.00000     0.39633    0.00249     0.39882
      H   24    0.17959      0.00000     0.31910    0.00131     0.32041
      H   25    0.17651      0.00000     0.32210    0.00139     0.32349
 =======================================================================
   * Total *   -0.00000     12.99468    33.84935    0.15597    47.00000

 Normal termination of Gaussian 16 at Wed Dec  9 22:52:44 2020.
