 Gaussian 16, Revision A.03,

 -----------------------------------------------------------
 # opt freq B3LYP/6-31G(d) empiricaldispersion=gd3bj scf=xqc
 -----------------------------------------------------------

 -------------------------------
 CID_151884635_JID_4986_neutraal
 -------------------------------
 Symbolic Z-matrix:
 Charge =  0 Multiplicity = 1

 SCF Done:  E(RB3LYP) =  -1399.14968198     A.U. after   16 cycles
 SCF Done:  E(RB3LYP) =  -1399.16125237     A.U. after   16 cycles
 SCF Done:  E(RB3LYP) =  -1399.16433680     A.U. after   16 cycles
 SCF Done:  E(RB3LYP) =  -1399.16417158     A.U. after   15 cycles
 SCF Done:  E(RB3LYP) =  -1399.16426421     A.U. after   15 cycles
 SCF Done:  E(RB3LYP) =  -1399.16516400     A.U. after   12 cycles
 SCF Done:  E(RB3LYP) =  -1399.16547506     A.U. after   14 cycles
 SCF Done:  E(RB3LYP) =  -1399.16556796     A.U. after   12 cycles
 SCF Done:  E(RB3LYP) =  -1399.16565692     A.U. after   11 cycles
 SCF Done:  E(RB3LYP) =  -1399.16573180     A.U. after   12 cycles
 SCF Done:  E(RB3LYP) =  -1399.17549064     A.U. after    8 cycles
 SCF Done:  E(RB3LYP) =  -1399.17549072     A.U. after    8 cycles
 SCF Done:  E(RB3LYP) =  -1399.17549079     A.U. after    7 cycles
 SCF Done:  E(RB3LYP) =  -1399.17549086     A.U. after    8 cycles
 SCF Done:  E(RB3LYP) =  -1399.17549091     A.U. after    8 cycles
 SCF Done:  E(RB3LYP) =  -1399.17549094     A.U. after    8 cycles
 Optimization completed.
    -- Stationary point found.
 Normal termination of Gaussian 16 at Thu Dec 10 11:13:13 2020.

 --------------------------------------------------------------------
 #N Geom=AllCheck Guess=TCheck SCRF=Check GenChk RB3LYP/6-31G(d) Freq
 --------------------------------------------------------------------

 Structure from the checkpoint file:  "JID_4986.chk"
 -------------------------------
 CID_151884635_JID_4986_neutraal
 -------------------------------
 Charge =  0 Multiplicity = 1

 SCF Done:  E(RB3LYP) =  -1399.17549094     A.U. after    1 cycles

  Exact polarizability: 177.668  -9.636 122.088   1.632  -5.300  88.561
 Approx polarizability: 290.719 -26.217 201.989  16.729 -22.027 144.685

                      1                      2                      3
                      A                      A                      A
 Frequencies --     27.9303                52.8130                66.2442
 Red. masses --      9.2164                 5.4696                 1.0250
 Frc consts  --      0.0042                 0.0090                 0.0027
 IR Inten    --      0.7181                 4.6622                 0.1610

                      4                      5                      6
                      A                      A                      A
 Frequencies --     89.5778                96.5262               118.3036
 Red. masses --     12.5767                 5.7675                 5.8757
 Frc consts  --      0.0595                 0.0317                 0.0485
 IR Inten    --      0.9313                 0.7243                 3.8687

                      7                      8                      9
                      A                      A                      A
 Frequencies --    134.4808               180.4610               193.8189
 Red. masses --      6.8943                 5.5548                 3.9145
 Frc consts  --      0.0735                 0.1066                 0.0866
 IR Inten    --      2.6926                 0.6500                 1.9221

                     10                     11                     12
                      A                      A                      A
 Frequencies --    217.9099               234.0552               265.0803
 Red. masses --      1.2607                 4.4269                 5.6769
 Frc consts  --      0.0353                 0.1429                 0.2350
 IR Inten    --      0.4419                 1.2057                 0.6346

                     13                     14                     15
                      A                      A                      A
 Frequencies --    275.3870               319.0475               346.9329
 Red. masses --      4.7325                 4.3708                 5.1808
 Frc consts  --      0.2115                 0.2621                 0.3674
 IR Inten    --      3.3921                 0.5511                 3.5213

                     16                     17                     18
                      A                      A                      A
 Frequencies --    374.1158               457.0591               476.0742
 Red. masses --      6.2194                 6.6512                 6.9158
 Frc consts  --      0.5129                 0.8186                 0.9235
 IR Inten    --      0.9446                 9.8638                24.0745

                     19                     20                     21
                      A                      A                      A
 Frequencies --    513.9854               526.2271               545.6529
 Red. masses --     14.8219                 6.4555                 7.0846
 Frc consts  --      2.3070                 1.0532                 1.2428
 IR Inten    --     25.7894                13.6541                62.9388

                     22                     23                     24
                      A                      A                      A
 Frequencies --    569.5146               623.4854               653.2116
 Red. masses --     13.7560                 3.5915                 3.2058
 Frc consts  --      2.6288                 0.8226                 0.8059
 IR Inten    --      9.9893                15.3399                 2.1788

                     25                     26                     27
                      A                      A                      A
 Frequencies --    709.4382               715.0331               754.4339
 Red. masses --     12.6072                 4.4604                 3.9164
 Frc consts  --      3.7385                 1.3436                 1.3133
 IR Inten    --      5.5191                 6.3829                82.2310

                     28                     29                     30
                      A                      A                      A
 Frequencies --    775.8238               824.9082               992.5555
 Red. masses --      1.9610                 1.3060                 1.4297
 Frc consts  --      0.6954                 0.5236                 0.8299
 IR Inten    --     19.4711                23.4309                26.9628

                     31                     32                     33
                      A                      A                      A
 Frequencies --    996.5018              1044.8567              1059.3265
 Red. masses --      1.3501                 5.1803                 6.8382
 Frc consts  --      0.7899                 3.3321                 4.5212
 IR Inten    --      7.4130                 5.8811                13.1998

                     34                     35                     36
                      A                      A                      A
 Frequencies --   1098.6511              1124.9193              1151.2668
 Red. masses --      1.6168                 4.5250                 1.5564
 Frc consts  --      1.1498                 3.3738                 1.2154
 IR Inten    --     19.3189                74.3544               140.1498

                     37                     38                     39
                      A                      A                      A
 Frequencies --   1161.4307              1219.4203              1225.5252
 Red. masses --      1.4198                 1.7415                 4.0756
 Frc consts  --      1.1284                 1.5257                 3.6065
 IR Inten    --     33.9476                41.8075               116.5001

                     40                     41                     42
                      A                      A                      A
 Frequencies --   1312.7644              1355.2526              1371.8108
 Red. masses --     15.2136                 9.3863                 1.2154
 Frc consts  --     15.4475                10.1574                 1.3476
 IR Inten    --    159.9830                12.7945                14.5445

                     43                     44                     45
                      A                      A                      A
 Frequencies --   1398.2886              1407.8994              1474.6144
 Red. masses --      6.2471                 5.4574                 1.2890
 Frc consts  --      7.1966                 6.3735                 1.6514
 IR Inten    --      4.5140                11.9665                34.6026

                     46                     47                     48
                      A                      A                      A
 Frequencies --   1479.8980              1489.3918              1516.4363
 Red. masses --      1.0509                 1.0509                 1.0462
 Frc consts  --      1.3561                 1.3735                 1.4175
 IR Inten    --      3.0104                 2.7218                15.2184

                     49                     50                     51
                      A                      A                      A
 Frequencies --   1527.6808              1546.6897              1567.6514
 Red. masses --      1.7541                 1.7845                 3.4631
 Frc consts  --      2.4120                 2.5152                 5.0143
 IR Inten    --     11.6435                10.3411                66.2659

                     52                     53                     54
                      A                      A                      A
 Frequencies --   2235.1001              3071.6183              3081.8252
 Red. masses --     14.0018                 1.0348                 1.0288
 Frc consts  --     41.2126                 5.7524                 5.7570
 IR Inten    --    490.6236                45.3841                 1.2164

                     55                     56                     57
                      A                      A                      A
 Frequencies --   3144.2712              3168.4054              3183.6178
 Red. masses --      1.1030                 1.1058                 1.1063
 Frc consts  --      6.4249                 6.5406                 6.6062
 IR Inten    --     11.1798                 6.3463                 0.5514

                     58                     59                     60
                      A                      A                      A
 Frequencies --   3191.7117              3283.3196              3296.6009
 Red. masses --      1.1084                 1.0974                 1.0981
 Frc consts  --      6.6526                 6.9700                 7.0314
 IR Inten    --      0.4835                 0.8673                 4.2980

 - Thermochemistry -
 -------------------
 Temperature   298.150 Kelvin.  Pressure   1.00000 Atm.
 Atom     1 has atomic number  6 and mass  12.00000

 Molecular mass:   232.00887 amu.
 Principal axes and moments of inertia in atomic units:
                           1         2         3
     Eigenvalues --  2590.873233671.221255344.16419
           X            0.99745  -0.06890  -0.01846
           Y            0.06938   0.99724   0.02637
           Z            0.01659  -0.02758   0.99948
 This molecule is an asymmetric top.
 Rotational symmetry number  1.
 Warning -- assumption of classical behavior for rotation
           may cause significant error
 Rotational temperatures (Kelvin)      0.03343     0.02359     0.01621
 Rotational constants (GHZ):           0.69658     0.49159     0.33770
 Zero-point vibrational energy     402644.1 (Joules/Mol)
                                   96.23425 (Kcal/Mol)
 Warning -- explicit consideration of  22 degrees of freedom as
           vibrations may cause significant error
 Vibrational temperatures:     40.19    75.99    95.31   128.88   138.88
          (Kelvin)            170.21   193.49   259.64   278.86   313.52
                              336.75   381.39   396.22   459.04   499.16
                              538.27   657.61   684.96   739.51   757.12
                              785.07   819.40   897.06   939.83  1020.72
                             1028.77  1085.46  1116.24  1186.86  1428.07
                             1433.74  1503.32  1524.13  1580.71  1618.51
                             1656.42  1671.04  1754.47  1763.26  1888.78
                             1949.91  1973.73  2011.83  2025.65  2121.64
                             2129.24  2142.90  2181.81  2197.99  2225.34
                             2255.50  3215.81  4419.37  4434.06  4523.90
                             4558.63  4580.52  4592.16  4723.96  4743.07

 Zero-point correction=                           0.153359 (Hartree/Particle)
 Thermal correction to Energy=                    0.168155
 Thermal correction to Enthalpy=                  0.169099
 Thermal correction to Gibbs Free Energy=         0.110006
 Sum of electronic and zero-point Energies=          -1399.022132
 Sum of electronic and thermal Energies=             -1399.007336
 Sum of electronic and thermal Enthalpies=           -1399.006392
 Sum of electronic and thermal Free Energies=        -1399.065485

                     E (Thermal)             CV                S
                      KCal/Mol        Cal/Mol-Kelvin    Cal/Mol-Kelvin
 Total                  105.519             51.927            124.371
 Electronic               0.000              0.000              0.000
 Translational            0.889              2.981             42.227
 Rotational               0.889              2.981             32.297
 Vibrational            103.741             45.965             49.847
 Vibration     1          0.593              1.984              5.971
 Vibration     2          0.596              1.976              4.709
 Vibration     3          0.598              1.970              4.262
 Vibration     4          0.602              1.957              3.669
 Vibration     5          0.603              1.952              3.523
 Vibration     6          0.608              1.934              3.128
 Vibration     7          0.613              1.919              2.881
 Vibration     8          0.629              1.866              2.324
 Vibration     9          0.635              1.848              2.191
 Vibration    10          0.646              1.814              1.976
 Vibration    11          0.654              1.789              1.848
 Vibration    12          0.671              1.737              1.628
 Vibration    13          0.677              1.719              1.562
 Vibration    14          0.705              1.637              1.315
 Vibration    15          0.725              1.582              1.180
 Vibration    16          0.745              1.525              1.063
 Vibration    17          0.815              1.345              0.775
 Vibration    18          0.833              1.303              0.721
 Vibration    19          0.869              1.219              0.624
 Vibration    20          0.881              1.192              0.596
 Vibration    21          0.901              1.149              0.553
 Vibration    22          0.926              1.097              0.505

                           ! Non-Optimized Parameters !
 Normal termination of Gaussian 16 at Thu Dec 10 11:18:50 2020.

 ----------------------------------------------------------------------
 # B3LYP/6-311++G(d,p) empiricaldispersion=gd3bj scf=xqc pop=npa geom=c
 heck
 ----------------------------------------------------------------------

 ---------------------------------------
 CID_151884635_JID_4986_Energie_neutraal
 ---------------------------------------
 Structure from the checkpoint file:  "JID_4986.chk"
 Charge =  0 Multiplicity = 1

 SCF Done:  E(RB3LYP) =  -1399.39650048     A.U. after   17 cycles
 Normal termination of Gaussian 16 at Thu Dec 10 11:21:06 2020.

 ----------------------------------------------------------------------
 # B3LYP/6-311++G(d,p) empiricaldispersion=gd3bj scf=xqc pop=npa geom=c
 heck
 ----------------------------------------------------------------------

 -------------------------------------
 CID_151884635_JID_4986_Energie_kation
 -------------------------------------
 Structure from the checkpoint file:  "JID_4986.chk"
 Charge =  1 Multiplicity = 2

 SCF Done:  E(UB3LYP) =  -1399.07945160     A.U. after   30 cycles
 Normal termination of Gaussian 16 at Thu Dec 10 11:26:15 2020.
 Gaussian 16:  ES64L-G16RevA.03 25-Dec-2016

 ----------------------------------------------------------------------
 # B3LYP/6-311++G(d,p) empiricaldispersion=gd3bj scf=xqc pop=npa geom=c
 heck
 ----------------------------------------------------------------------

 ------------------------------------
 CID_151884635_JID_4986_Energie_anion
 ------------------------------------
 Structure from the checkpoint file:  "JID_4986.chk"
 Charge = -1 Multiplicity = 2

                         Standard orientation:
 ---------------------------------------------------------------------
 Center     Atomic      Atomic             Coordinates (Angstroms)
 Number     Number       Type             X           Y           Z
 ---------------------------------------------------------------------
      1          6           0        4.088225   -1.019165   -0.551649
      2          7           0        2.713852   -0.694897   -0.195728
      3          6           0        1.776011   -1.592101    0.245118
      4          6           0        0.566312   -0.934253    0.393736
      5          6           0        0.808249    0.430381    0.016462
      6          6           0        2.131544    0.540396   -0.344929
      7         16           0       -0.329937    1.774460   -0.070420
      8          8           0        0.429870    2.944777   -0.538468
      9          8           0       -1.533775    1.324898   -0.784664
     10          6           0       -0.794434    2.051566    1.649431
     11         16           0       -0.895018   -1.670586    1.022141
     12          7           0       -1.777462   -2.102968   -0.466653
     13          7           0       -2.745337   -1.349243   -0.706647
     14          7           0       -3.673636   -0.779587   -1.032818
     15          1           0        4.440295   -1.838998    0.077896
     16          1           0        4.160575   -1.314889   -1.603161
     17          1           0        4.721074   -0.146106   -0.379375
     18          1           0        2.022767   -2.628772    0.422256
     19          1           0        2.681470    1.400164   -0.696456
     20          1           0       -1.241647    1.135116    2.039018
     21          1           0        0.094028    2.336324    2.215577
     22          1           0       -1.525390    2.863687    1.645665
 ---------------------------------------------------------------------

 SCF Done:  E(UB3LYP) =  -1399.40891751     A.U. after   31 cycles

 The electronic state is 2-A.
 Alpha  occ. eigenvalues --  -88.93940 -88.72683 -19.00314 -18.99689 -14.31044
 Alpha  occ. eigenvalues --  -14.27827 -14.21597 -14.21049 -10.12570 -10.10938
 Alpha  occ. eigenvalues --  -10.10177 -10.09499 -10.08446 -10.08405  -8.00282
 Alpha  occ. eigenvalues --   -7.81125  -5.96544  -5.96458  -5.96415  -5.77648
 Alpha  occ. eigenvalues --   -5.77182  -5.76408  -0.99505  -0.97971  -0.90195
 Alpha  occ. eigenvalues --   -0.89056  -0.81793  -0.72894  -0.67450  -0.65430
 Alpha  occ. eigenvalues --   -0.62880  -0.58732  -0.53613  -0.47024  -0.45888
 Alpha  occ. eigenvalues --   -0.43652  -0.38541  -0.38018  -0.37561  -0.37228
 Alpha  occ. eigenvalues --   -0.36415  -0.35661  -0.34978  -0.33972  -0.32775
 Alpha  occ. eigenvalues --   -0.32421  -0.31658  -0.31060  -0.29700  -0.28960
 Alpha  occ. eigenvalues --   -0.25021  -0.22487  -0.21106  -0.19402  -0.18851
 Alpha  occ. eigenvalues --   -0.18197  -0.15376  -0.13344  -0.11874  -0.09796
 Alpha  occ. eigenvalues --    0.03533
 Alpha virt. eigenvalues --    0.05334   0.07810   0.08301   0.08442   0.10164
 Alpha virt. eigenvalues --    0.10662   0.11264   0.11528   0.12223   0.12678
 Alpha virt. eigenvalues --    0.12920   0.13352   0.13943   0.15098   0.16194

  Beta  occ. eigenvalues --  -88.93940 -88.72540 -19.00313 -18.99678 -14.30848
  Beta  occ. eigenvalues --  -14.27827 -14.21132 -14.20897 -10.12522 -10.10947
  Beta  occ. eigenvalues --  -10.10172 -10.09352 -10.08455 -10.08357  -8.00282
  Beta  occ. eigenvalues --   -7.80976  -5.96544  -5.96456  -5.96416  -5.77335
  Beta  occ. eigenvalues --   -5.77039  -5.76305  -0.99486  -0.97388  -0.90137
  Beta  occ. eigenvalues --   -0.89041  -0.81238  -0.72794  -0.67395  -0.65142
  Beta  occ. eigenvalues --   -0.62636  -0.58326  -0.53492  -0.46868  -0.45726
  Beta  occ. eigenvalues --   -0.43444  -0.38389  -0.37931  -0.37329  -0.36835
  Beta  occ. eigenvalues --   -0.36382  -0.34767  -0.34543  -0.33807  -0.32746
  Beta  occ. eigenvalues --   -0.32371  -0.31585  -0.30925  -0.29016  -0.28568
  Beta  occ. eigenvalues --   -0.24573  -0.22461  -0.21093  -0.19364  -0.18686
  Beta  occ. eigenvalues --   -0.17412  -0.15023  -0.12845  -0.11513  -0.09438
  Beta virt. eigenvalues --    0.06067   0.07919   0.08539   0.08596   0.08777
  Beta virt. eigenvalues --    0.10408   0.11104   0.11451   0.11611   0.12742
  Beta virt. eigenvalues --    0.12921   0.13120   0.13646   0.14126   0.15179

 Mulliken charges and spin densities:
               1          2
     1  C    0.780197  -1.113994
     2  N   -0.004530   0.152966
     3  C   -0.581570   0.286455
     4  C    0.998894  -0.110006
     5  C   -0.463204  -0.138796
     6  C   -0.056120   0.094325
     7  S    0.160943  -0.179411
     8  O   -0.204221  -0.005480
     9  O   -0.073915  -0.001927
    10  C   -0.527969  -0.004009
    11  S   -0.595802   0.269082
    12  N   -1.126615   0.037471
    13  N    0.760851   0.025885
    14  N   -0.097935   0.260114
    15  H   -0.160864   0.312233
    16  H   -0.186814   0.383224
    17  H   -0.362656   0.510761
    18  H    0.029531   0.146454
    19  H    0.185069   0.011135
    20  H    0.182255   0.028975
    21  H    0.136274   0.039254
    22  H    0.208205  -0.004710
 Sum of Mulliken charges =  -1.00000   1.00000

 Dipole moment (field-independent basis, Debye):
    X=              2.4626    Y=              2.1551    Z=              3.8303  Tot=              5.0378
 Quadrupole moment (field-independent basis, Debye-Ang):
   XX=           -150.4744   YY=           -127.6708   ZZ=           -112.1943
   XY=             -2.7609   XZ=             -5.2437   YZ=              5.7128

 Summary of Natural Population Analysis:

                                       Natural Population
                Natural  -----------------------------------------------
    Atom  No    Charge         Core      Valence    Rydberg      Total
 -----------------------------------------------------------------------
      C    1   -0.17023      0.99964     2.16312    0.00747     3.17023
      N    2   -0.19557      0.99965     2.68678    0.00913     3.69557
      C    3    0.02803      0.99947     1.95965    0.01285     2.97197
      C    4   -0.14109      0.99937     2.12510    0.01662     3.14109
      C    5   -0.17968      0.99927     2.16322    0.01719     3.17968
      C    6   -0.00187      0.99948     1.98951    0.01289     3.00187
      S    7    1.03895      4.99918     1.86254    0.09933     6.96105
      O    8   -0.47832      0.99991     3.47323    0.00517     4.47832
      O    9   -0.46021      0.99991     3.45358    0.00673     4.46021
      C   10   -0.39327      0.99961     2.38679    0.00686     3.39327
      S   11    0.21939      4.99945     2.75596    0.02521     7.78061
      N   12   -0.26416      0.99975     2.74794    0.01647     3.76416
      N   13    0.12023      0.99970     2.36408    0.01599     3.37977
      N   14    0.01857      0.99981     2.46907    0.01255     3.48143
      H   15    0.10065      0.00000     0.39835    0.00100     0.39935
      H   16    0.10040      0.00000     0.39802    0.00158     0.39960
      H   17    0.10125      0.00000     0.39743    0.00132     0.39875
      H   18    0.10191      0.00000     0.39676    0.00133     0.39809
      H   19    0.11014      0.00000     0.38880    0.00106     0.38986
      H   20    0.12355      0.00000     0.37475    0.00170     0.37645
      H   21    0.10946      0.00000     0.38907    0.00147     0.39054
      H   22    0.11186      0.00000     0.38727    0.00086     0.38814
 =======================================================================
   * Total *   -0.00000     21.99421    37.73101    0.27478    60.00000

 Normal termination of Gaussian 16 at Thu Dec 10 11:31:52 2020.
