 Gaussian 16, Revision A.03,

 -----------------------------------------------------------
 # opt freq B3LYP/6-31G(d) empiricaldispersion=gd3bj scf=xqc
 -----------------------------------------------------------

 -------------------------------
 CID_146945696_JID_1400_neutraal
 -------------------------------
 Symbolic Z-matrix:
 Charge =  0 Multiplicity = 1

 SCF Done:  E(RB3LYP) =  -517.867183950     A.U. after   13 cycles
 SCF Done:  E(RB3LYP) =  -517.873424739     A.U. after   12 cycles
 SCF Done:  E(RB3LYP) =  -517.876746521     A.U. after   12 cycles
 SCF Done:  E(RB3LYP) =  -517.878253653     A.U. after   12 cycles
 SCF Done:  E(RB3LYP) =  -517.879050710     A.U. after   11 cycles
 SCF Done:  E(RB3LYP) =  -517.879401000     A.U. after   11 cycles
 SCF Done:  E(RB3LYP) =  -517.879530897     A.U. after   11 cycles
 SCF Done:  E(RB3LYP) =  -517.879624000     A.U. after   10 cycles
 SCF Done:  E(RB3LYP) =  -517.879814253     A.U. after   12 cycles
 SCF Done:  E(RB3LYP) =  -517.879981613     A.U. after   12 cycles
 SCF Done:  E(RB3LYP) =  -517.880923893     A.U. after    9 cycles
 SCF Done:  E(RB3LYP) =  -517.880939938     A.U. after   10 cycles
 SCF Done:  E(RB3LYP) =  -517.880948107     A.U. after   10 cycles
 SCF Done:  E(RB3LYP) =  -517.880949215     A.U. after    8 cycles
 SCF Done:  E(RB3LYP) =  -517.880949311     A.U. after    7 cycles
 SCF Done:  E(RB3LYP) =  -517.880949366     A.U. after    7 cycles
 Optimization completed.
    -- Stationary point found.
 Normal termination of Gaussian 16 at Tue Dec  8 19:57:10 2020.

 --------------------------------------------------------------------
 #N Geom=AllCheck Guess=TCheck SCRF=Check GenChk RB3LYP/6-31G(d) Freq
 --------------------------------------------------------------------

 Structure from the checkpoint file:  "JID_1400.chk"
 -------------------------------
 CID_146945696_JID_1400_neutraal
 -------------------------------
 Charge =  0 Multiplicity = 1

 SCF Done:  E(RB3LYP) =  -517.880949366     A.U. after    1 cycles

  Exact polarizability: 120.577  -0.258  93.496   0.000   0.007  66.580
 Approx polarizability: 161.110   6.260 149.916  -0.001   0.016  94.888

                      1                      2                      3
                      A                      A                      A
 Frequencies --     29.5034                79.9490                96.7599
 Red. masses --      3.6097                 1.0486                 3.9530
 Frc consts  --      0.0019                 0.0039                 0.0218
 IR Inten    --      0.0043                15.3388                 1.6469

                      4                      5                      6
                      A                      A                      A
 Frequencies --    169.2141               222.2667               232.1049
 Red. masses --      3.3818                 1.5981                 1.5428
 Frc consts  --      0.0571                 0.0465                 0.0490
 IR Inten    --      2.2503                 0.6239                 0.3369

                      7                      8                      9
                      A                      A                      A
 Frequencies --    256.5554               278.3763               286.0228
 Red. masses --      4.3288                 1.1197                 1.0653
 Frc consts  --      0.1679                 0.0511                 0.0513
 IR Inten    --      4.9298                 1.3413                 0.1188

                     10                     11                     12
                      A                      A                      A
 Frequencies --    298.2066               324.0642               342.9359
 Red. masses --      2.6582                 2.7704                 4.4294
 Frc consts  --      0.1393                 0.1714                 0.3069
 IR Inten    --      1.4199                 1.1743                 1.4451

                     13                     14                     15
                      A                      A                      A
 Frequencies --    355.2883               415.3509               450.7176
 Red. masses --      2.7701                 2.7882                 3.6541
 Frc consts  --      0.2060                 0.2834                 0.4374
 IR Inten    --      1.1180                 4.0420                 3.5960

                     16                     17                     18
                      A                      A                      A
 Frequencies --    558.0614               572.8465               578.0829
 Red. masses --      2.9983                 4.0853                 1.1534
 Frc consts  --      0.5502                 0.7899                 0.2271
 IR Inten    --      1.4659                 2.3744               119.9078

                     19                     20                     21
                      A                      A                      A
 Frequencies --    636.1480               696.2538               711.7584
 Red. masses --      3.3104                 5.6314                 5.3098
 Frc consts  --      0.7893                 1.6084                 1.5849
 IR Inten    --      0.6579                 0.1672                 2.0230

                     22                     23                     24
                      A                      A                      A
 Frequencies --    722.9068               759.5814               830.8783
 Red. masses --      1.4608                10.8955                 1.9140
 Frc consts  --      0.4498                 3.7038                 0.7785
 IR Inten    --     22.0789                 1.8209                33.8295

                     25                     26                     27
                      A                      A                      A
 Frequencies --    855.7797               938.6066               954.8588
 Red. masses --      1.7187                 1.8112                 1.7170
 Frc consts  --      0.7416                 0.9401                 0.9224
 IR Inten    --     78.0498                 0.1357                 1.6345

                     28                     29                     30
                      A                      A                      A
 Frequencies --    978.0050               988.3647              1058.6944
 Red. masses --      1.1982                 3.1131                 1.5596
 Frc consts  --      0.6752                 1.7918                 1.0299
 IR Inten    --      0.0028                87.8794                 1.9450

                     31                     32                     33
                      A                      A                      A
 Frequencies --   1062.7268              1125.5931              1192.1168
 Red. masses --      1.3935                 2.8129                 5.4923
 Frc consts  --      0.9273                 2.0998                 4.5988
 IR Inten    --      0.1459                17.9118                14.0576

                     34                     35                     36
                      A                      A                      A
 Frequencies --   1217.4819              1226.1710              1241.8778
 Red. masses --      1.2398                 3.0651                 2.6102
 Frc consts  --      1.0827                 2.7152                 2.3718
 IR Inten    --      0.0312                14.4897                 6.9628

                     37                     38                     39
                      A                      A                      A
 Frequencies --   1260.8254              1298.6541              1317.6953
 Red. masses --      2.6390                 2.3464                 2.7367
 Frc consts  --      2.4717                 2.3315                 2.7997
 IR Inten    --      0.5957               100.3949                56.7134

                     40                     41                     42
                      A                      A                      A
 Frequencies --   1376.1518              1420.3115              1427.5056
 Red. masses --      1.8747                 1.2205                 1.2255
 Frc consts  --      2.0918                 1.4506                 1.4714
 IR Inten    --     45.1335                 4.8025                 2.2236

                     43                     44                     45
                      A                      A                      A
 Frequencies --   1455.6467              1481.6636              1508.2171
 Red. masses --      1.2751                 3.5385                 1.0484
 Frc consts  --      1.5919                 4.5769                 1.4052
 IR Inten    --     16.4514               128.2117                 0.0015

                     46                     47                     48
                      A                      A                      A
 Frequencies --   1516.7174              1519.3984              1531.3483
 Red. masses --      1.0531                 1.0456                 1.0538
 Frc consts  --      1.4274                 1.4222                 1.4560
 IR Inten    --      3.4720                 0.0582                 5.1885

                     49                     50                     51
                      A                      A                      A
 Frequencies --   1532.9737              1550.5803              1621.4414
 Red. masses --      1.0503                 1.0889                 5.5187
 Frc consts  --      1.4543                 1.5425                 8.5485
 IR Inten    --      4.6499                13.8693                11.0077

                     52                     53                     54
                      A                      A                      A
 Frequencies --   1680.3995              1727.0836              3044.0619
 Red. masses --      1.1901                 5.6017                 1.0351
 Frc consts  --      1.9800                 9.8445                 5.6510
 IR Inten    --     13.6452                17.0352                28.3367

                     55                     56                     57
                      A                      A                      A
 Frequencies --   3048.0050              3057.9844              3111.5223
 Red. masses --      1.0355                 1.0365                 1.1021
 Frc consts  --      5.6678                 5.7105                 6.2865
 IR Inten    --     24.3486                30.7116                13.1303

                     58                     59                     60
                      A                      A                      A
 Frequencies --   3114.9072              3126.0478              3126.9876
 Red. masses --      1.1020                 1.1010                 1.1030
 Frc consts  --      6.2995                 6.3393                 6.3546
 IR Inten    --     31.7738                55.0121                 4.6981

                     61                     62                     63
                      A                      A                      A
 Frequencies --   3130.7756              3138.4523              3284.7361
 Red. masses --      1.1019                 1.1025                 1.0986
 Frc consts  --      6.3633                 6.3984                 6.9838
 IR Inten    --     41.8651                26.1918                 1.3717

                     64                     65                     66
                      A                      A                      A
 Frequencies --   3488.4508              3564.6984              3606.7352
 Red. masses --      1.0483                 1.0947                 1.0647
 Frc consts  --      7.5166                 8.1955                 8.1604
 IR Inten    --      1.7041                 6.0632               113.4171

 - Thermochemistry -
 -------------------
 Temperature   298.150 Kelvin.  Pressure   1.00000 Atm.
 Atom     1 has atomic number  6 and mass  12.00000

 Molecular mass:   155.09463 amu.
 Principal axes and moments of inertia in atomic units:
                           1         2         3
     Eigenvalues --   913.320782238.587942744.40250
           X            0.99998  -0.00617   0.00001
           Y            0.00617   0.99998   0.00000
           Z           -0.00001  -0.00000   1.00000
 This molecule is an asymmetric top.
 Rotational symmetry number  1.
 Warning -- assumption of classical behavior for rotation
           may cause significant error
 Rotational temperatures (Kelvin)      0.09483     0.03869     0.03156
 Rotational constants (GHZ):           1.97602     0.80620     0.65761
 Zero-point vibrational energy     537207.5 (Joules/Mol)
                                  128.39569 (Kcal/Mol)
 Warning -- explicit consideration of  18 degrees of freedom as
           vibrations may cause significant error
 Vibrational temperatures:     42.45   115.03   139.22   243.46   319.79
          (Kelvin)            333.95   369.13   400.52   411.52   429.05
                              466.26   493.41   511.18   597.60   648.48
                              802.93   824.20   831.73   915.28  1001.75
                             1024.06  1040.10  1092.87  1195.45  1231.28
                             1350.45  1373.83  1407.13  1422.04  1523.23
                             1529.03  1619.48  1715.19  1751.68  1764.19
                             1786.79  1814.05  1868.47  1895.87  1979.98
                             2043.51  2053.86  2094.35  2131.78  2169.99
                             2182.22  2186.08  2203.27  2205.61  2230.94
                             2332.89  2417.72  2484.89  4379.73  4385.40
                             4399.76  4476.79  4481.66  4497.69  4499.04
                             4504.49  4515.53  4726.00  5019.10  5128.81
                             5189.29

 Zero-point correction=                           0.204612 (Hartree/Particle)
 Thermal correction to Energy=                    0.216583
 Thermal correction to Enthalpy=                  0.217527
 Thermal correction to Gibbs Free Energy=         0.166900
 Sum of electronic and zero-point Energies=           -517.676338
 Sum of electronic and thermal Energies=              -517.664366
 Sum of electronic and thermal Enthalpies=            -517.663422
 Sum of electronic and thermal Free Energies=         -517.714049

                     E (Thermal)             CV                S
                      KCal/Mol        Cal/Mol-Kelvin    Cal/Mol-Kelvin
 Total                  135.908             45.116            106.554
 Electronic               0.000              0.000              0.000
 Translational            0.889              2.981             41.026
 Rotational               0.889              2.981             30.107
 Vibrational            134.131             39.155             35.421
 Vibration     1          0.593              1.984              5.863
 Vibration     2          0.600              1.963              3.892
 Vibration     3          0.603              1.951              3.519
 Vibration     4          0.625              1.880              2.444
 Vibration     5          0.648              1.807              1.941
 Vibration     6          0.653              1.792              1.863
 Vibration     7          0.666              1.752              1.685
 Vibration     8          0.679              1.714              1.544
 Vibration     9          0.684              1.700              1.497
 Vibration    10          0.691              1.677              1.427
 Vibration    11          0.709              1.627              1.290
 Vibration    12          0.722              1.590              1.198
 Vibration    13          0.731              1.564              1.143
 Vibration    14          0.779              1.437              0.908
 Vibration    15          0.809              1.359              0.794
 Vibration    16          0.914              1.122              0.528
 Vibration    17          0.929              1.090              0.499
 Vibration    18          0.935              1.079              0.489

                           ! Non-Optimized Parameters !
 Normal termination of Gaussian 16 at Tue Dec  8 20:02:02 2020.

 ----------------------------------------------------------------------
 # B3LYP/6-311++G(d,p) empiricaldispersion=gd3bj scf=xqc pop=npa geom=c
 heck
 ----------------------------------------------------------------------

 ---------------------------------------
 CID_146945696_JID_1400_Energie_neutraal
 ---------------------------------------
 Structure from the checkpoint file:  "JID_1400.chk"
 Charge =  0 Multiplicity = 1

 SCF Done:  E(RB3LYP) =  -518.042273367     A.U. after   14 cycles
 Normal termination of Gaussian 16 at Tue Dec  8 20:03:58 2020.

 ----------------------------------------------------------------------
 # B3LYP/6-311++G(d,p) empiricaldispersion=gd3bj scf=xqc pop=npa geom=c
 heck
 ----------------------------------------------------------------------

 -------------------------------------
 CID_146945696_JID_1400_Energie_kation
 -------------------------------------
 Structure from the checkpoint file:  "JID_1400.chk"
 Charge =  1 Multiplicity = 2

 SCF Done:  E(UB3LYP) =  -517.759663342     A.U. after   20 cycles
 Normal termination of Gaussian 16 at Tue Dec  8 20:07:10 2020.
 Gaussian 16:  ES64L-G16RevA.03 25-Dec-2016

 ----------------------------------------------------------------------
 # B3LYP/6-311++G(d,p) empiricaldispersion=gd3bj scf=xqc pop=npa geom=c
 heck
 ----------------------------------------------------------------------

 ------------------------------------
 CID_146945696_JID_1400_Energie_anion
 ------------------------------------
 Structure from the checkpoint file:  "JID_1400.chk"
 Charge = -1 Multiplicity = 2

                         Standard orientation:
 ---------------------------------------------------------------------
 Center     Atomic      Atomic             Coordinates (Angstroms)
 Number     Number       Type             X           Y           Z
 ---------------------------------------------------------------------
      1          6           0       -2.326121   -0.584057   -1.258800
      2          6           0       -1.698493    0.053593    0.000010
      3          6           0       -1.970327    1.567449   -0.000983
      4          6           0       -2.325580   -0.582315    1.259987
      5          6           0       -0.215636   -0.188383   -0.000112
      6          6           0        0.910088    0.585151    0.000014
      7          6           0        2.049744   -0.292994    0.000105
      8          6           0        1.548268   -1.560388   -0.000017
      9          8           0        0.190319   -1.517603   -0.000119
     10          7           0        3.369090    0.251542   -0.000166
     11          8           0        1.037971    1.938909   -0.000116
     12          1           0       -3.412374   -0.433875   -1.260622
     13          1           0       -2.127737   -1.659905   -1.293183
     14          1           0       -1.914906   -0.132112   -2.168030
     15          1           0       -3.051792    1.744604   -0.000875
     16          1           0       -1.540931    2.050566    0.881726
     17          1           0       -1.541312    2.049310   -0.884570
     18          1           0       -2.127169   -1.658117    1.295754
     19          1           0       -1.913953   -0.129113    2.168405
     20          1           0       -3.411837   -0.432144    1.262100
     21          1           0        1.996340   -2.542864    0.000103
     22          1           0        3.898518   -0.028717    0.821990
     23          1           0        3.899977   -0.032984   -0.819887
     24          1           0        2.005568    2.085773   -0.001083
 ---------------------------------------------------------------------

 SCF Done:  E(UB3LYP) =  -518.030120120     A.U. after   31 cycles

 The electronic state is 2-A.
 Alpha  occ. eigenvalues --  -19.07180 -19.03729 -14.19685 -10.11036 -10.10723
 Alpha  occ. eigenvalues --  -10.10292 -10.09610 -10.08717 -10.06262 -10.06262
 Alpha  occ. eigenvalues --  -10.05960  -0.99532  -0.94696  -0.78525  -0.72873
 Alpha  occ. eigenvalues --   -0.66199  -0.62123  -0.59049  -0.58956  -0.49572
 Alpha  occ. eigenvalues --   -0.49389  -0.44499  -0.41806  -0.38295  -0.38275
 Alpha  occ. eigenvalues --   -0.35514  -0.35189  -0.34616  -0.33085  -0.32975
 Alpha  occ. eigenvalues --   -0.29086  -0.28940  -0.28116  -0.27115  -0.26831
 Alpha  occ. eigenvalues --   -0.26758  -0.24213  -0.23826  -0.22746  -0.15844
 Alpha  occ. eigenvalues --   -0.14067  -0.10086   0.04727
 Alpha virt. eigenvalues --    0.06367   0.08292   0.08578   0.09381   0.09569
 Alpha virt. eigenvalues --    0.10073   0.11116   0.11538   0.11773   0.12379
 Alpha virt. eigenvalues --    0.12907   0.13485   0.14218   0.15387   0.15619

  Beta  occ. eigenvalues --  -19.07172 -19.03707 -14.19581 -10.11031 -10.10705
  Beta  occ. eigenvalues --  -10.10291 -10.09609 -10.08714 -10.06249 -10.06249
  Beta  occ. eigenvalues --  -10.05946  -0.99512  -0.94651  -0.78382  -0.72864
  Beta  occ. eigenvalues --   -0.66133  -0.62089  -0.59023  -0.58929  -0.49532
  Beta  occ. eigenvalues --   -0.49339  -0.44438  -0.41768  -0.38257  -0.38169
  Beta  occ. eigenvalues --   -0.35471  -0.35160  -0.34562  -0.33058  -0.32959
  Beta  occ. eigenvalues --   -0.29067  -0.28916  -0.28082  -0.27096  -0.26814
  Beta  occ. eigenvalues --   -0.26732  -0.24194  -0.23812  -0.22726  -0.15752
  Beta  occ. eigenvalues --   -0.14033  -0.10077
  Beta virt. eigenvalues --    0.06535   0.08137   0.08575   0.08666   0.09915
  Beta virt. eigenvalues --    0.10046   0.10699   0.11302   0.11556   0.12387
  Beta virt. eigenvalues --    0.12616   0.13485   0.13656   0.14295   0.15227

 Mulliken charges and spin densities:
               1          2
     1  C   -0.127833  -0.490502
     2  C    0.563333   0.103568
     3  C   -0.206433  -0.425049
     4  C   -0.127208  -0.491255
     5  C    1.553540  -2.000475
     6  C   -4.218843   4.439778
     7  C    4.453311  -4.795032
     8  C   -0.170509   0.249281
     9  O   -0.038470   0.036856
    10  N   -0.565690   0.149600
    11  O   -0.274584  -0.032090
    12  H   -0.010954   0.156508
    13  H    0.100143   0.059120
    14  H    0.009528   0.126427
    15  H   -0.022984   0.162949
    16  H    0.054829   0.109254
    17  H    0.055037   0.108982
    18  H    0.100260   0.059063
    19  H    0.009351   0.126598
    20  H   -0.011113   0.156633
    21  H   -0.905296   1.091353
    22  H   -0.627036   0.904786
    23  H   -0.626528   0.904093
    24  H    0.034148   0.289553
 Sum of Mulliken charges =  -1.00000   1.00000

 Dipole moment (field-independent basis, Debye):
    X=             -9.4457    Y=              0.8249    Z=             -0.0051  Tot=              9.4817
 Quadrupole moment (field-independent basis, Debye-Ang):
   XX=           -150.9868   YY=            -99.6300   ZZ=            -92.4686
   XY=              6.8518   XZ=             -0.0180   YZ=             -0.0058

 Summary of Natural Population Analysis:

                                       Natural Population
                Natural  -----------------------------------------------
    Atom  No    Charge         Core      Valence    Rydberg      Total
 -----------------------------------------------------------------------
      C    1   -0.27944      0.99963     2.27407    0.00574     3.27944
      C    2   -0.06398      0.99956     2.05484    0.00957     3.06398
      C    3   -0.28123      0.99964     2.27553    0.00606     3.28123
      C    4   -0.27944      0.99963     2.27407    0.00574     3.27944
      C    5    0.11167      0.99936     1.87148    0.01749     2.88833
      C    6    0.11746      0.99924     1.86889    0.01442     2.88254
      C    7    0.00895      0.99943     1.97764    0.01398     2.99105
      C    8    0.05826      0.99944     1.92730    0.01500     2.94174
      O    9   -0.24033      0.99986     3.23290    0.00757     4.24033
      N   10   -0.43668      0.99974     2.92465    0.01229     3.93668
      O   11   -0.34593      0.99988     3.33988    0.00618     4.34593
      H   12    0.09398      0.00000     0.40504    0.00098     0.40602
      H   13    0.10304      0.00000     0.39580    0.00115     0.39696
      H   14    0.10112      0.00000     0.39787    0.00101     0.39888
      H   15    0.09473      0.00000     0.40437    0.00090     0.40527
      H   16    0.10567      0.00000     0.39324    0.00109     0.39433
      H   17    0.10565      0.00000     0.39326    0.00109     0.39435
      H   18    0.10304      0.00000     0.39581    0.00115     0.39696
      H   19    0.10112      0.00000     0.39787    0.00101     0.39888
      H   20    0.09398      0.00000     0.40504    0.00098     0.40602
      H   21    0.09627      0.00000     0.40195    0.00178     0.40373
      H   22    0.19340      0.00000     0.28977    0.01683     0.30660
      H   23    0.19342      0.00000     0.28974    0.01684     0.30658
      H   24    0.24527      0.00000     0.25103    0.00370     0.25473
 =======================================================================
   * Total *   -0.00000     10.99541    30.84205    0.16254    42.00000

 Normal termination of Gaussian 16 at Tue Dec  8 20:13:11 2020.
