 Gaussian 16, Revision A.03,

 -----------------------------------------------------------
 # opt freq B3LYP/6-31G(d) empiricaldispersion=gd3bj scf=xqc
 -----------------------------------------------------------

 ------------------------------
 CID_59235697_JID_1876_neutraal
 ------------------------------
 Symbolic Z-matrix:
 Charge =  0 Multiplicity = 1

 SCF Done:  E(RB3LYP) =  -463.278000536     A.U. after   13 cycles
 SCF Done:  E(RB3LYP) =  -463.281810596     A.U. after   11 cycles
 SCF Done:  E(RB3LYP) =  -463.282195941     A.U. after   10 cycles
 SCF Done:  E(RB3LYP) =  -463.282297520     A.U. after   10 cycles
 SCF Done:  E(RB3LYP) =  -463.282514499     A.U. after    9 cycles
 SCF Done:  E(RB3LYP) =  -463.282626226     A.U. after   10 cycles
 SCF Done:  E(RB3LYP) =  -463.282681649     A.U. after   10 cycles
 SCF Done:  E(RB3LYP) =  -463.282701797     A.U. after    8 cycles
 SCF Done:  E(RB3LYP) =  -463.282714324     A.U. after    9 cycles
 SCF Done:  E(RB3LYP) =  -463.282717742     A.U. after    9 cycles
 SCF Done:  E(RB3LYP) =  -463.282719049     A.U. after    7 cycles
 SCF Done:  E(RB3LYP) =  -463.282719189     A.U. after    6 cycles
 SCF Done:  E(RB3LYP) =  -463.282719228     A.U. after    6 cycles
 Optimization completed.
    -- Stationary point found.

 1\1\GINC-NODE308\FOpt\RB3LYP\6-31G(d)\C9H18N2\VSC10255\08-Dec-2020\0\\
 # opt freq B3LYP/6-31G(d) empiricaldispersion=gd3bj scf=xqc\\CID_59235
 697_JID_1876_neutraal\\0,1\C,1.1347169251,0.0988690134,-0.0318426004\N
 ,1.0166508185,0.4846450732,1.3578564453\C,0.9099735857,1.9265561423,1.
 5637030225\C,1.2071956602,2.1538632403,3.067468029\C,1.8821490631,0.82
 18558276,3.4876194862\C,2.1360290695,0.0649144784,2.196115774\C,1.3968
 376647,0.067593128,4.7001926941\C,2.7855929548,0.655981547,4.678974153
 6\N,1.9138615274,3.4182974103,3.2779643196\C,1.6933055707,4.0357346134

 Normal termination of Gaussian 16 at Tue Dec  8 21:25:06 2020.

 --------------------------------------------------------------------
 #N Geom=AllCheck Guess=TCheck SCRF=Check GenChk RB3LYP/6-31G(d) Freq
 --------------------------------------------------------------------

 Structure from the checkpoint file:  "JID_1876.chk"
 ------------------------------
 CID_59235697_JID_1876_neutraal
 ------------------------------
 Charge =  0 Multiplicity = 1

 SCF Done:  E(RB3LYP) =  -463.282719228     A.U. after    1 cycles

  Exact polarizability: 114.835  -0.080 103.096  -0.716  -0.330  93.571
 Approx polarizability: 144.150  -1.240 142.224   0.933  -1.162 142.437

                      1                      2                      3
                      A                      A                      A
 Frequencies --     51.0776               112.4226               125.5344
 Red. masses --      2.6135                 2.4271                 2.6213
 Frc consts  --      0.0040                 0.0181                 0.0243
 IR Inten    --      0.1232                 0.2951                 0.5599

                      4                      5                      6
                      A                      A                      A
 Frequencies --    183.9691               210.8924               228.3956
 Red. masses --      1.7786                 1.6814                 1.1547
 Frc consts  --      0.0355                 0.0441                 0.0355
 IR Inten    --      0.5278                 0.9863                 0.7589

                      7                      8                      9
                      A                      A                      A
 Frequencies --    249.3109               256.7052               282.0145
 Red. masses --      1.9474                 1.2584                 1.6355
 Frc consts  --      0.0713                 0.0489                 0.0766
 IR Inten    --      0.0654                 1.1760                 0.4333

                     10                     11                     12
                      A                      A                      A
 Frequencies --    300.8613               324.0300               370.5873
 Red. masses --      2.9247                 2.5315                 2.8564
 Frc consts  --      0.1560                 0.1566                 0.2311
 IR Inten    --      2.4713                 4.3789                 0.6945

                     13                     14                     15
                      A                      A                      A
 Frequencies --    373.5331               391.2353               444.0913
 Red. masses --      2.3567                 1.9948                 2.8703
 Frc consts  --      0.1937                 0.1799                 0.3335
 IR Inten    --      3.9572                 2.7357                 5.3548

                     16                     17                     18
                      A                      A                      A
 Frequencies --    501.5800               571.1938               613.3735
 Red. masses --      3.4693                 3.2884                 3.0753
 Frc consts  --      0.5142                 0.6321                 0.6817
 IR Inten    --      0.2920                 4.2658                 0.8212

                     19                     20                     21
                      A                      A                      A
 Frequencies --    754.1248               793.6663               853.8374
 Red. masses --      2.4749                 1.0741                 3.1074
 Frc consts  --      0.8293                 0.3986                 1.3347
 IR Inten    --      1.9715                 0.1129                 4.1888

                     22                     23                     24
                      A                      A                      A
 Frequencies --    896.0002               905.1072               934.2633
 Red. masses --      3.1685                 3.2753                 1.6711
 Frc consts  --      1.4987                 1.5809                 0.8594
 IR Inten    --     17.1661                14.2072                 1.4582

                     25                     26                     27
                      A                      A                      A
 Frequencies --    965.1258               988.5231              1022.5068
 Red. masses --      1.5382                 2.1603                 1.8596
 Frc consts  --      0.8442                 1.2438                 1.1455
 IR Inten    --      4.7506                 9.8994                16.7959

                     28                     29                     30
                      A                      A                      A
 Frequencies --   1046.8626              1060.7810              1071.0227
 Red. masses --      2.1317                 1.6033                 1.9008
 Frc consts  --      1.3765                 1.0629                 1.2846
 IR Inten    --      5.3267                 9.7272                10.4763

                     31                     32                     33
                      A                      A                      A
 Frequencies --   1081.3794              1084.7985              1091.3189
 Red. masses --      1.6773                 1.4991                 1.6710
 Frc consts  --      1.1556                 1.0394                 1.1726
 IR Inten    --     20.8740                 8.8199                 5.8606

                     34                     35                     36
                      A                      A                      A
 Frequencies --   1100.2075              1132.7650              1160.1212
 Red. masses --      2.0763                 1.2526                 1.4732
 Frc consts  --      1.4808                 0.9470                 1.1682
 IR Inten    --     20.9397                10.0676                22.0999

                     37                     38                     39
                      A                      A                      A
 Frequencies --   1179.7324              1194.7173              1200.7269
 Red. masses --      1.5704                 1.4255                 1.3364
 Frc consts  --      1.2877                 1.1988                 1.1352
 IR Inten    --     17.4151                 5.0440                 1.3376

                     40                     41                     42
                      A                      A                      A
 Frequencies --   1204.8147              1237.1799              1275.3772
 Red. masses --      1.5676                 2.3613                 2.0551
 Frc consts  --      1.3407                 2.1295                 1.9696
 IR Inten    --      6.5439                10.6272                10.9323

                     43                     44                     45
                      A                      A                      A
 Frequencies --   1282.1314              1292.1254              1307.2031
 Red. masses --      2.0369                 1.8514                 1.4721
 Frc consts  --      1.9728                 1.8212                 1.4821
 IR Inten    --     19.7070                 4.6195                 1.8483

                     46                     47                     48
                      A                      A                      A
 Frequencies --   1330.9619              1348.6127              1387.2440
 Red. masses --      2.5096                 1.7676                 1.5858
 Frc consts  --      2.6193                 1.8941                 1.7981
 IR Inten    --     27.4130                 6.2013                13.3990

                     49                     50                     51
                      A                      A                      A
 Frequencies --   1414.3659              1428.4357              1469.4945
 Red. masses --      1.9944                 1.4657                 1.1495
 Frc consts  --      2.3507                 1.7621                 1.4624
 IR Inten    --     25.6000                 8.4473                 2.6135

                     52                     53                     54
                      A                      A                      A
 Frequencies --   1481.3947              1491.9212              1499.0975
 Red. masses --      1.1953                 1.0901                 1.1418
 Frc consts  --      1.5455                 1.4295                 1.5119
 IR Inten    --      1.7770                 0.5601                 5.4574

                     55                     56                     57
                      A                      A                      A
 Frequencies --   1510.4071              1517.1365              1525.1239
 Red. masses --      1.0640                 1.0500                 1.1248
 Frc consts  --      1.4302                 1.4240                 1.5415
 IR Inten    --      9.4681                16.0715                 1.4365

                     58                     59                     60
                      A                      A                      A
 Frequencies --   1527.1507              1531.1819              1536.8835
 Red. masses --      1.0870                 1.0800                 1.2142
 Frc consts  --      1.4937                 1.4918                 1.6897
 IR Inten    --      5.5864                 2.6994                 1.9969

                     61                     62                     63
                      A                      A                      A
 Frequencies --   1542.0676              1551.3072              1557.1511
 Red. masses --      1.0843                 1.0788                 1.0870
 Frc consts  --      1.5192                 1.5297                 1.5528
 IR Inten    --      4.0956                 5.6147                 8.1918

                     64                     65                     66
                      A                      A                      A
 Frequencies --   2891.9878              2923.3319              2949.1640
 Red. masses --      1.0728                 1.0629                 1.0725
 Frc consts  --      5.2864                 5.3520                 5.4959
 IR Inten    --     56.2324                90.2583                86.7024

                     67                     68                     69
                      A                      A                      A
 Frequencies --   2954.8089              2986.2078              3062.9783
 Red. masses --      1.0598                 1.0568                 1.0731
 Frc consts  --      5.4515                 5.5526                 5.9315
 IR Inten    --     80.8647                74.1686                47.5007

                     70                     71                     72
                      A                      A                      A
 Frequencies --   3067.9028              3071.6055              3073.8351
 Red. masses --      1.0863                 1.0844                 1.0703
 Frc consts  --      6.0239                 6.0279                 5.9582
 IR Inten    --     30.4440                30.5961                46.4402

                     73                     74                     75
                      A                      A                      A
 Frequencies --   3074.3266              3088.8962              3113.5908
 Red. masses --      1.0809                 1.0888                 1.1012
 Frc consts  --      6.0192                 6.1210                 6.2900
 IR Inten    --     45.7741                49.4969                36.3694

                     76                     77                     78
                      A                      A                      A
 Frequencies --   3116.8762              3128.2961              3134.2059
 Red. masses --      1.1042                 1.0986                 1.0532
 Frc consts  --      6.3204                 6.3342                 6.0957
 IR Inten    --     30.4732                28.7073                23.0637

                     79                     80                     81
                      A                      A                      A
 Frequencies --   3146.7377              3212.3237              3236.7672
 Red. masses --      1.0596                 1.1180                 1.1123
 Frc consts  --      6.1819                 6.7970                 6.8657
 IR Inten    --     16.5534                 7.7963                17.9953

 - Thermochemistry -
 -------------------
 Temperature   298.150 Kelvin.  Pressure   1.00000 Atm.
 Atom     1 has atomic number  6 and mass  12.00000

 Molecular mass:   154.14700 amu.
 Principal axes and moments of inertia in atomic units:
                           1         2         3
     Eigenvalues --  1163.494401983.133552570.30608
           X            0.99991   0.01122  -0.00679
           Y           -0.01129   0.99989  -0.00968
           Z            0.00668   0.00975   0.99993
 This molecule is an asymmetric top.
 Rotational symmetry number  1.
 Warning -- assumption of classical behavior for rotation
           may cause significant error
 Rotational temperatures (Kelvin)      0.07444     0.04368     0.03370
 Rotational constants (GHZ):           1.55114     0.91005     0.70215
 Zero-point vibrational energy     697369.1 (Joules/Mol)
                                  166.67521 (Kcal/Mol)
 Warning -- explicit consideration of  18 degrees of freedom as
           vibrations may cause significant error
 Vibrational temperatures:     73.49   161.75   180.62   264.69   303.43
          (Kelvin)            328.61   358.70   369.34   405.76   432.87
                              466.21   533.19   537.43   562.90   638.95
                              721.66   821.82   882.51  1085.02  1141.91
                             1228.48  1289.14  1302.25  1344.20  1388.60
                             1422.26  1471.16  1506.20  1526.23  1540.96
                             1555.86  1560.78  1570.16  1582.95  1629.80
                             1669.16  1697.37  1718.93  1727.58  1733.46
                             1780.03  1834.98  1844.70  1859.08  1880.77
                             1914.96  1940.35  1995.93  2034.96  2055.20
                             2114.27  2131.40  2146.54  2156.87  2173.14
                             2182.82  2194.31  2197.23  2203.03  2211.23
                             2218.69  2231.99  2240.39  4160.93  4206.02
                             4243.19  4251.31  4296.49  4406.94  4414.03
                             4419.36  4422.56  4423.27  4444.23  4479.76
                             4484.49  4500.92  4509.42  4527.45  4621.82
                             4656.99

 Zero-point correction=                           0.265614 (Hartree/Particle)
 Thermal correction to Energy=                    0.277327
 Thermal correction to Enthalpy=                  0.278271
 Thermal correction to Gibbs Free Energy=         0.228837
 Sum of electronic and zero-point Energies=           -463.017105
 Sum of electronic and thermal Energies=              -463.005393
 Sum of electronic and thermal Enthalpies=            -463.004449
 Sum of electronic and thermal Free Energies=         -463.053882

                     E (Thermal)             CV                S
                      KCal/Mol        Cal/Mol-Kelvin    Cal/Mol-Kelvin
 Total                  174.025             45.353            104.042
 Electronic               0.000              0.000              0.000
 Translational            0.889              2.981             41.008
 Rotational               0.889              2.981             30.162
 Vibrational            172.248             39.392             32.872
 Vibration     1          0.595              1.977              4.775
 Vibration     2          0.607              1.939              3.227
 Vibration     3          0.610              1.928              3.013
 Vibration     4          0.631              1.862              2.288
 Vibration     5          0.643              1.824              2.036
 Vibration     6          0.651              1.798              1.892
 Vibration     7          0.662              1.764              1.735
 Vibration     8          0.666              1.751              1.684
 Vibration     9          0.681              1.707              1.521
 Vibration    10          0.693              1.672              1.412
 Vibration    11          0.709              1.627              1.290
 Vibration    12          0.743              1.533              1.077
 Vibration    13          0.745              1.526              1.065
 Vibration    14          0.759              1.489              0.995
 Vibration    15          0.804              1.374              0.814
 Vibration    16          0.857              1.247              0.654
 Vibration    17          0.927              1.094              0.502
 Vibration    18          0.973              1.004              0.427

 Optimization completed.
    -- Stationary point found.

 1\1\GINC-NODE308\Freq\RB3LYP\6-31G(d)\C9H18N2\VSC10255\08-Dec-2020\0\\
 #N Geom=AllCheck Guess=TCheck SCRF=Check GenChk RB3LYP/6-31G(d) Freq\\
 CID_59235697_JID_1876_neutraal\\0,1\C,1.1347169251,0.0988690134,-0.031
 8426004\N,1.0166508185,0.4846450732,1.3578564453\C,0.9099735857,1.9265
 561423,1.5637030225\C,1.2071956602,2.1538632403,3.067468029\C,1.882149
 0631,0.8218558276,3.4876194862\C,2.1360290695,0.0649144784,2.196115774
 \C,1.3968376647,0.067593128,4.7001926941\C,2.7855929548,0.655981547,4.
 6789741536\N,1.9138615274,3.4182974103,3.2779643196\C,1.6933055707,4.0

 Normal termination of Gaussian 16 at Tue Dec  8 21:33:04 2020.

 ----------------------------------------------------------------------
 # B3LYP/6-311++G(d,p) empiricaldispersion=gd3bj scf=xqc pop=npa geom=c
 heck
 ----------------------------------------------------------------------

 --------------------------------------
 CID_59235697_JID_1876_Energie_neutraal
 --------------------------------------
 Structure from the checkpoint file:  "JID_1876.chk"
 Charge =  0 Multiplicity = 1

 SCF Done:  E(RB3LYP) =  -463.409658081     A.U. after   14 cycles
 Normal termination of Gaussian 16 at Tue Dec  8 21:36:39 2020.

 ----------------------------------------------------------------------
 # B3LYP/6-311++G(d,p) empiricaldispersion=gd3bj scf=xqc pop=npa geom=c
 heck
 ----------------------------------------------------------------------

 ------------------------------------
 CID_59235697_JID_1876_Energie_kation
 ------------------------------------
 Structure from the checkpoint file:  "JID_1876.chk"
 Charge =  1 Multiplicity = 2

 SCF Done:  E(UB3LYP) =  -463.133122491     A.U. after   24 cycles
 Normal termination of Gaussian 16 at Tue Dec  8 21:43:01 2020.
 Gaussian 16:  ES64L-G16RevA.03 25-Dec-2016

 -----------------------------------
 CID_59235697_JID_1876_Energie_anion
 -----------------------------------
 Structure from the checkpoint file:  "JID_1876.chk"
 Charge = -1 Multiplicity = 2

                         Standard orientation:
 ---------------------------------------------------------------------
 Center     Atomic      Atomic             Coordinates (Angstroms)
 Number     Number       Type             X           Y           Z
 ---------------------------------------------------------------------
      1          6           0       -3.222273   -0.843889    0.080595
      2          7           0       -1.988589   -0.224215   -0.353055
      3          6           0       -0.912842   -1.174586   -0.622171
      4          6           0        0.386133   -0.330499   -0.660899
      5          6           0       -0.045486    0.992635    0.024195
      6          6           0       -1.424060    0.725340    0.601676
      7          6           0        0.232476    2.320904   -0.633993
      8          6           0        0.896069    1.969375    0.674198
      9          7           0        1.519131   -1.085057   -0.122905
     10          6           0        2.816220   -0.707903   -0.656976
     11          6           0        1.548019   -1.247856    1.321934
     12          1           0       -3.589395   -1.523741   -0.696151
     13          1           0       -3.985491   -0.075933    0.248538
     14          1           0       -3.106720   -1.425762    1.017962
     15          1           0       -0.831163   -1.939509    0.172898
     16          1           0       -1.090165   -1.707276   -1.562572
     17          1           0        0.639283   -0.114849   -1.703261
     18          1           0       -2.047895    1.624248    0.673989
     19          1           0       -1.345656    0.290049    1.620976
     20          1           0        0.848454    2.320744   -1.530517
     21          1           0       -0.554852    3.070476   -0.633478
     22          1           0        0.554714    2.470757    1.577240
     23          1           0        1.959517    1.758088    0.667153
     24          1           0        3.202700    0.262636   -0.294210
     25          1           0        3.553788   -1.472852   -0.385144
     26          1           0        2.765823   -0.662509   -1.749994
     27          1           0        1.814081   -0.328737    1.871171
     28          1           0        0.572079   -1.581580    1.685000
     29          1           0        2.281563   -2.020471    1.580769
 ---------------------------------------------------------------------

 SCF Done:  E(UB3LYP) =  -463.391499054     A.U. after   30 cycles

 The electronic state is 2-A.
 Alpha  occ. eigenvalues --  -14.19894 -14.19892 -10.09666 -10.08649 -10.08313
 Alpha  occ. eigenvalues --  -10.08258 -10.08050 -10.07834 -10.07777 -10.06880
 Alpha  occ. eigenvalues --  -10.06630  -0.84007  -0.81026  -0.75447  -0.64963
 Alpha  occ. eigenvalues --   -0.60997  -0.60164  -0.56412  -0.50489  -0.50237
 Alpha  occ. eigenvalues --   -0.47522  -0.44021  -0.39764  -0.38907  -0.37459
 Alpha  occ. eigenvalues --   -0.36258  -0.35278  -0.33191  -0.32789  -0.31022
 Alpha  occ. eigenvalues --   -0.29820  -0.28819  -0.28397  -0.26804  -0.26278
 Alpha  occ. eigenvalues --   -0.26006  -0.25525  -0.24167  -0.23149  -0.19368
 Alpha  occ. eigenvalues --   -0.17859  -0.11580  -0.10435   0.04747
 Alpha virt. eigenvalues --    0.06724   0.07538   0.07720   0.09194   0.09326
 Alpha virt. eigenvalues --    0.09728   0.09919   0.10755   0.11724   0.12092
 Alpha virt. eigenvalues --    0.12520   0.12707   0.13475   0.14177   0.14265

  Beta  occ. eigenvalues --  -14.19887 -14.19885 -10.09658 -10.08626 -10.08283
  Beta  occ. eigenvalues --  -10.08245 -10.08012 -10.07807 -10.07776 -10.06861
  Beta  occ. eigenvalues --  -10.06614  -0.83989  -0.81006  -0.75433  -0.64937
  Beta  occ. eigenvalues --   -0.60959  -0.60109  -0.56359  -0.50425  -0.50181
  Beta  occ. eigenvalues --   -0.47470  -0.43974  -0.39720  -0.38870  -0.37423
  Beta  occ. eigenvalues --   -0.36228  -0.35244  -0.33151  -0.32758  -0.30985
  Beta  occ. eigenvalues --   -0.29791  -0.28787  -0.28364  -0.26773  -0.26247
  Beta  occ. eigenvalues --   -0.25973  -0.25494  -0.24133  -0.23123  -0.19345
  Beta  occ. eigenvalues --   -0.17840  -0.11534  -0.10400
  Beta virt. eigenvalues --    0.06935   0.07721   0.08208   0.08438   0.09768
  Beta virt. eigenvalues --    0.09902   0.10309   0.10442   0.11157   0.12215
  Beta virt. eigenvalues --    0.12442   0.13008   0.13175   0.13816   0.14412

 Mulliken charges and spin densities:
               1          2
     1  C    0.862603  -1.128719
     2  N   -0.042609   0.225883
     3  C    0.208647  -0.477382
     4  C   -1.032366  -0.067535
     5  C   -1.275721   2.154276
     6  C    0.653832  -1.291821
     7  C    1.204483  -1.696021
     8  C   -0.363767  -0.177054
     9  N    0.102491   0.188195
    10  C    0.930205  -1.129015
    11  C    0.428780  -0.764311
    12  H   -0.179706   0.315155
    13  H   -0.371832   0.501378
    14  H   -0.209277   0.319314
    15  H    0.044073   0.050496
    16  H   -0.056073   0.242171
    17  H   -0.049107   0.199304
    18  H   -0.123814   0.311805
    19  H    0.034846   0.096772
    20  H   -0.106191   0.255564
    21  H   -0.096555   0.233721
    22  H   -0.281647   0.431468
    23  H    0.095373   0.022079
    24  H   -0.095666   0.203454
    25  H   -0.290648   0.431584
    26  H   -0.443618   0.583816
    27  H   -0.171139   0.314352
    28  H   -0.101667   0.226269
    29  H   -0.273930   0.424801
 Sum of Mulliken charges =  -1.00000   1.00000

 Dipole moment (field-independent basis, Debye):
    X=             -0.4477    Y=              0.5538    Z=             -0.1847  Tot=              0.7356
 Quadrupole moment (field-independent basis, Debye-Ang):
   XX=           -136.9106   YY=           -112.7185   ZZ=           -108.0030
   XY=              3.0792   XZ=              3.3709   YZ=             -0.0609

 Summary of Natural Population Analysis:

                                       Natural Population
                Natural  -----------------------------------------------
    Atom  No    Charge         Core      Valence    Rydberg      Total
 -----------------------------------------------------------------------
      C    1   -0.17485      0.99965     2.16641    0.00878     3.17485
      N    2   -0.27767      0.99972     2.76593    0.01202     3.77767
      C    3   -0.08137      0.99960     2.06945    0.01231     3.08137
      C    4    0.00350      0.99953     1.98199    0.01499     2.99650
      C    5   -0.05910      0.99953     2.04511    0.01446     3.05910
      C    6   -0.07752      0.99957     2.06562    0.01233     3.07752
      C    7   -0.18733      0.99958     2.17910    0.00865     3.18733
      C    8   -0.19367      0.99957     2.18518    0.00891     3.19367
      N    9   -0.28100      0.99972     2.76642    0.01486     3.78100
      C   10   -0.17107      0.99963     2.16300    0.00843     3.17107
      C   11   -0.17870      0.99963     2.17044    0.00862     3.17870
      H   12    0.09480      0.00000     0.40398    0.00122     0.40520
      H   13    0.09563      0.00000     0.40307    0.00130     0.40437
      H   14    0.07984      0.00000     0.41852    0.00165     0.42016
      H   15    0.08272      0.00000     0.41537    0.00190     0.41728
      H   16    0.09681      0.00000     0.40183    0.00136     0.40319
      H   17    0.10064      0.00000     0.39750    0.00186     0.39936
      H   18    0.09763      0.00000     0.40055    0.00182     0.40237
      H   19    0.08043      0.00000     0.41776    0.00181     0.41957
      H   20    0.10065      0.00000     0.39803    0.00132     0.39935
      H   21    0.10030      0.00000     0.39867    0.00102     0.39970
      H   22    0.10200      0.00000     0.39683    0.00117     0.39800
      H   23    0.10513      0.00000     0.39320    0.00166     0.39487
      H   24    0.07803      0.00000     0.42027    0.00170     0.42197
      H   25    0.09420      0.00000     0.40441    0.00139     0.40580
      H   26    0.09601      0.00000     0.40236    0.00163     0.40399
      H   27    0.08326      0.00000     0.41523    0.00151     0.41674
      H   28    0.09602      0.00000     0.40235    0.00162     0.40398
      H   29    0.09465      0.00000     0.40423    0.00112     0.40535
 =======================================================================
   * Total *    0.00000     10.99574    31.85281    0.15144    43.00000

 Normal termination of Gaussian 16 at Tue Dec  8 21:51:13 2020.
