 Gaussian 16, Revision A.03,

 -----------------------------------------------------------
 # opt freq B3LYP/6-31G(d) empiricaldispersion=gd3bj scf=xqc
 -----------------------------------------------------------

 ---------------------------
 CID_100558_JID_599_neutraal
 ---------------------------
 Symbolic Z-matrix:
 Charge =  0 Multiplicity = 1

 SCF Done:  E(RB3LYP) =  -509.410174652     A.U. after   15 cycles
 SCF Done:  E(RB3LYP) =  -509.417954926     A.U. after   13 cycles
 SCF Done:  E(RB3LYP) =  -509.419734514     A.U. after   12 cycles
 SCF Done:  E(RB3LYP) =  -509.420049674     A.U. after   11 cycles
 SCF Done:  E(RB3LYP) =  -509.420208471     A.U. after   12 cycles
 SCF Done:  E(RB3LYP) =  -509.420376910     A.U. after   12 cycles
 SCF Done:  E(RB3LYP) =  -509.420583975     A.U. after   12 cycles
 SCF Done:  E(RB3LYP) =  -509.420969008     A.U. after   12 cycles
 SCF Done:  E(RB3LYP) =  -509.421396880     A.U. after   12 cycles
 SCF Done:  E(RB3LYP) =  -509.421812660     A.U. after   12 cycles
 SCF Done:  E(RB3LYP) =  -509.421943313     A.U. after   11 cycles
 SCF Done:  E(RB3LYP) =  -509.421989172     A.U. after   11 cycles
 SCF Done:  E(RB3LYP) =  -509.422003300     A.U. after   10 cycles
 SCF Done:  E(RB3LYP) =  -509.422013021     A.U. after    9 cycles
 SCF Done:  E(RB3LYP) =  -509.422014069     A.U. after    8 cycles
 SCF Done:  E(RB3LYP) =  -509.422014181     A.U. after    8 cycles
 Optimization completed.
    -- Stationary point found.
 Normal termination of Gaussian 16 at Tue Dec  8 12:13:40 2020.

 --------------------------------------------------------------------
 #N Geom=AllCheck Guess=TCheck SCRF=Check GenChk RB3LYP/6-31G(d) Freq
 --------------------------------------------------------------------

 Structure from the checkpoint file:  "JID_599.chk"
 ---------------------------
 CID_100558_JID_599_neutraal
 ---------------------------
 Charge =  0 Multiplicity = 1

 SCF Done:  E(RB3LYP) =  -509.422014181     A.U. after    1 cycles

  Exact polarizability: 101.923   4.032  95.784  -0.932   2.298  38.188
 Approx polarizability: 168.434   8.193 152.338  -2.357   3.684  57.898

                      1                      2                      3
                      A                      A                      A
 Frequencies --     99.2891               115.0272               147.8790
 Red. masses --      4.2619                 2.6873                 1.4244
 Frc consts  --      0.0248                 0.0209                 0.0184
 IR Inten    --      0.0933                 1.1795                 0.0726

                      4                      5                      6
                      A                      A                      A
 Frequencies --    179.5638               214.8182               280.8380
 Red. masses --      4.7249                 3.7020                 3.5857
 Frc consts  --      0.0898                 0.1007                 0.1666
 IR Inten    --      0.7557                 0.1641                 2.4481

                      7                      8                      9
                      A                      A                      A
 Frequencies --    289.2400               401.5598               442.3533
 Red. masses --      4.1714                 1.5804                 2.4808
 Frc consts  --      0.2056                 0.1501                 0.2860
 IR Inten    --      1.0722                54.2386                16.0386

                     10                     11                     12
                      A                      A                      A
 Frequencies --    451.9909               500.8397               557.0806
 Red. masses --      3.9456                 5.0842                 5.6816
 Frc consts  --      0.4749                 0.7514                 1.0389
 IR Inten    --      3.8725                20.6704                10.6519

                     13                     14                     15
                      A                      A                      A
 Frequencies --    594.1873               676.4237               709.8367
 Red. masses --      4.9704                 3.5153                 1.2003
 Frc consts  --      1.0339                 0.9477                 0.3563
 IR Inten    --     16.1263                51.9629                79.8675

                     16                     17                     18
                      A                      A                      A
 Frequencies --    750.8356               782.6775               786.3547
 Red. masses --      3.6232                10.3496                 5.5078
 Frc consts  --      1.2034                 3.7354                 2.0066
 IR Inten    --    135.6929                43.9500                10.4819

                     19                     20                     21
                      A                      A                      A
 Frequencies --    833.4952               970.2382               986.8051
 Red. masses --      3.1860                 2.9416                 1.4026
 Frc consts  --      1.3041                 1.6315                 0.8047
 IR Inten    --     54.4823                12.4329                 2.4504

                     22                     23                     24
                      A                      A                      A
 Frequencies --   1011.1581              1059.8013              1078.3368
 Red. masses --      1.6828                 4.0549                 1.4148
 Frc consts  --      1.0137                 2.6834                 0.9693
 IR Inten    --      9.4931                42.8868                 0.7222

                     25                     26                     27
                      A                      A                      A
 Frequencies --   1117.6311              1231.9184              1293.9038
 Red. masses --      4.9138                 4.0681                 1.9406
 Frc consts  --      3.6163                 3.6375                 1.9143
 IR Inten    --     13.4785                 2.5743                 3.7895

                     28                     29                     30
                      A                      A                      A
 Frequencies --   1344.0590              1419.6262              1429.2033
 Red. masses --      1.6455                 1.4674                 1.9997
 Frc consts  --      1.7514                 1.7424                 2.4066
 IR Inten    --     22.7478               103.2951                52.6570

                     31                     32                     33
                      A                      A                      A
 Frequencies --   1449.3549              1464.7764              1515.0831
 Red. masses --      1.2626                 1.4587                 1.1352
 Frc consts  --      1.5627                 1.8440                 1.5353
 IR Inten    --      3.9541                23.2750                12.0901

                     34                     35                     36
                      A                      A                      A
 Frequencies --   1521.8385              1531.3223              1601.8412
 Red. masses --      2.0863                 1.1049                 3.9548
 Frc consts  --      2.8468                 1.5265                 5.9788
 IR Inten    --     28.6707                29.6062               427.3946

                     37                     38                     39
                      A                      A                      A
 Frequencies --   1692.3941              1819.7948              3016.1326
 Red. masses --      6.7802                10.4588                 1.0466
 Frc consts  --     11.4418                20.4069                 5.6098
 IR Inten    --     81.6899               723.4907                47.0925

                     40                     41                     42
                      A                      A                      A
 Frequencies --   3067.0575              3124.9181              3128.3630
 Red. masses --      1.0943                 1.0926                 1.0937
 Frc consts  --      6.0652                 6.2863                 6.3062
 IR Inten    --     26.0343                 9.2987                38.9378

                     43                     44                     45
                      A                      A                      A
 Frequencies --   3519.9487              3605.4216              3718.0736
 Red. masses --      1.0767                 1.0765                 1.0685
 Frc consts  --      7.8599                 8.2449                 8.7030
 IR Inten    --     15.0560                72.0002                70.1438

 - Thermochemistry -
 -------------------
 Temperature   298.150 Kelvin.  Pressure   1.00000 Atm.
 Atom     1 has atomic number  6 and mass  12.00000

 Molecular mass:   141.05383 amu.
 Principal axes and moments of inertia in atomic units:
                           1         2         3
     Eigenvalues --  1001.241141413.421542391.39409
           X            0.99871   0.05070  -0.00083
           Y           -0.05069   0.99870   0.00593
           Z            0.00113  -0.00589   0.99998
 This molecule is an asymmetric top.
 Rotational symmetry number  1.
 Warning -- assumption of classical behavior for rotation
           may cause significant error
 Rotational temperatures (Kelvin)      0.08651     0.06128     0.03622
 Rotational constants (GHZ):           1.80250     1.27686     0.75468
 Zero-point vibrational energy     344125.5 (Joules/Mol)
                                   82.24797 (Kcal/Mol)
 Warning -- explicit consideration of  13 degrees of freedom as
           vibrations may cause significant error
 Vibrational temperatures:    142.85   165.50   212.76   258.35   309.08
          (Kelvin)            404.06   416.15   577.75   636.45   650.31
                              720.60   801.51   854.90   973.22  1021.30
                             1080.28  1126.10  1131.39  1199.21  1395.96
                             1419.79  1454.83  1524.82  1551.49  1608.02
                             1772.46  1861.64  1933.80  2042.53  2056.30
                             2085.30  2107.49  2179.87  2189.59  2203.23
                             2304.69  2434.98  2618.28  4339.54  4412.81
                             4496.06  4501.02  5064.42  5187.40  5349.48

 Zero-point correction=                           0.131070 (Hartree/Particle)
 Thermal correction to Energy=                    0.140250
 Thermal correction to Enthalpy=                  0.141195
 Thermal correction to Gibbs Free Energy=         0.096797
 Sum of electronic and zero-point Energies=           -509.290944
 Sum of electronic and thermal Energies=              -509.281764
 Sum of electronic and thermal Enthalpies=            -509.280820
 Sum of electronic and thermal Free Energies=         -509.325218

                     E (Thermal)             CV                S
                      KCal/Mol        Cal/Mol-Kelvin    Cal/Mol-Kelvin
 Total                   88.009             34.033             93.444
 Electronic               0.000              0.000              0.000
 Translational            0.889              2.981             40.743
 Rotational               0.889              2.981             29.605
 Vibrational             86.231             28.071             23.096
 Vibration     1          0.604              1.950              3.468
 Vibration     2          0.608              1.937              3.182
 Vibration     3          0.617              1.905              2.699
 Vibration     4          0.629              1.867              2.333
 Vibration     5          0.645              1.818              2.002
 Vibration     6          0.681              1.709              1.529
 Vibration     7          0.686              1.694              1.478
 Vibration     8          0.767              1.467              0.957
 Vibration     9          0.802              1.378              0.819
 Vibration    10          0.811              1.356              0.790
 Vibration    11          0.856              1.248              0.656
 Vibration    12          0.913              1.124              0.530
 Vibration    13          0.952              1.044              0.460

                           ! Non-Optimized Parameters !
 Normal termination of Gaussian 16 at Tue Dec  8 12:17:45 2020.

 ----------------------------------------------------------------------
 # B3LYP/6-311++G(d,p) empiricaldispersion=gd3bj scf=xqc pop=npa geom=c
 heck
 ----------------------------------------------------------------------

 -----------------------------------
 CID_100558_JID_599_Energie_neutraal
 -----------------------------------
 Structure from the checkpoint file:  "JID_599.chk"
 Charge =  0 Multiplicity = 1

 SCF Done:  E(RB3LYP) =  -509.581539604     A.U. after   16 cycles
 Normal termination of Gaussian 16 at Tue Dec  8 12:19:23 2020.

 ----------------------------------------------------------------------
 # B3LYP/6-311++G(d,p) empiricaldispersion=gd3bj scf=xqc pop=npa geom=c
 heck
 ----------------------------------------------------------------------

 ---------------------------------
 CID_100558_JID_599_Energie_kation
 ---------------------------------
 Structure from the checkpoint file:  "JID_599.chk"
 Charge =  1 Multiplicity = 2

 SCF Done:  E(UB3LYP) =  -509.278381825     A.U. after   22 cycles
 Normal termination of Gaussian 16 at Tue Dec  8 12:24:10 2020.
 Gaussian 16:  ES64L-G16RevA.03 25-Dec-2016

 ----------------------------------------------------------------------
 # B3LYP/6-311++G(d,p) empiricaldispersion=gd3bj scf=xqc pop=npa geom=c
 heck
 ----------------------------------------------------------------------

 --------------------------------
 CID_100558_JID_599_Energie_anion
 --------------------------------
 Structure from the checkpoint file:  "JID_599.chk"
 Charge = -1 Multiplicity = 2

                         Standard orientation:
 ---------------------------------------------------------------------
 Center     Atomic      Atomic             Coordinates (Angstroms)
 Number     Number       Type             X           Y           Z
 ---------------------------------------------------------------------
      1          6           0        1.743918    2.111671   -0.002598
      2          6           0        0.537232    1.214281    0.004360
      3          6           0        0.632746   -0.164716   -0.042552
      4          7           0       -0.490567   -0.910399   -0.047606
      5          6           0       -1.816574   -0.375386   -0.007916
      6          8           0       -2.751993   -1.155009   -0.004618
      7          7           0       -1.902912    1.000965    0.027418
      8          6           0       -0.792200    1.702324    0.035252
      9          7           0        1.857834   -0.820215   -0.173865
     10          8           0        1.799084   -2.188088    0.206166
     11          1           0        2.392345    1.956146    0.872711
     12          1           0        2.363542    1.969582   -0.897689
     13          1           0        1.432227    3.160125    0.017574
     14          1           0       -0.407919   -1.919309   -0.011027
     15          1           0       -0.921434    2.786993    0.069819
     16          1           0        2.593746   -0.378167    0.372666
     17          1           0        2.089556   -2.652105   -0.597346
 ---------------------------------------------------------------------

 SCF Done:  E(UB3LYP) =  -509.587051346     A.U. after   31 cycles

 The electronic state is 2-A.
 Alpha  occ. eigenvalues --  -19.05645 -18.95528 -14.27566 -14.23792 -14.16593
 Alpha  occ. eigenvalues --  -10.16446 -10.14297 -10.09040 -10.07353 -10.06126
 Alpha  occ. eigenvalues --   -0.98283  -0.92262  -0.84869  -0.78280  -0.74971
 Alpha  occ. eigenvalues --   -0.67374  -0.58662  -0.54168  -0.51946  -0.44982
 Alpha  occ. eigenvalues --   -0.42748  -0.40439  -0.39430  -0.36159  -0.33136
 Alpha  occ. eigenvalues --   -0.32459  -0.30995  -0.30649  -0.29243  -0.27363
 Alpha  occ. eigenvalues --   -0.24477  -0.21429  -0.20603  -0.16664  -0.14960
 Alpha  occ. eigenvalues --   -0.13409  -0.09772   0.03992
 Alpha virt. eigenvalues --    0.06840   0.07428   0.09347   0.10484   0.11442
 Alpha virt. eigenvalues --    0.12306   0.13213   0.13929   0.14474   0.15835
 Alpha virt. eigenvalues --    0.16283   0.16801   0.17348   0.18593   0.19024

  Beta  occ. eigenvalues --  -19.05483 -18.95516 -14.27510 -14.23690 -14.16499
  Beta  occ. eigenvalues --  -10.16437 -10.14099 -10.08871 -10.07331 -10.06196
  Beta  occ. eigenvalues --   -0.97945  -0.92177  -0.84657  -0.78013  -0.74723
  Beta  occ. eigenvalues --   -0.67304  -0.58511  -0.53844  -0.51839  -0.44812
  Beta  occ. eigenvalues --   -0.42629  -0.40272  -0.39273  -0.35816  -0.32904
  Beta  occ. eigenvalues --   -0.32336  -0.30841  -0.30615  -0.29180  -0.27277
  Beta  occ. eigenvalues --   -0.23980  -0.21257  -0.19922  -0.16337  -0.14872
  Beta  occ. eigenvalues --   -0.13325  -0.09473
  Beta virt. eigenvalues --    0.07013   0.08256   0.08907   0.09808   0.10763
  Beta virt. eigenvalues --    0.11715   0.12620   0.13473   0.14247   0.14580
  Beta virt. eigenvalues --    0.15760   0.16335   0.16905   0.17841   0.18751

 Mulliken charges and spin densities:
               1          2
     1  C    1.232406  -1.986164
     2  C    1.079009  -0.252244
     3  C   -1.491074   1.223478
     4  N   -0.280250  -0.040444
     5  C    0.326436  -0.098367
     6  O   -0.395593   0.006472
     7  N   -0.263629   0.046892
     8  C   -0.490209   0.236410
     9  N   -0.065518  -0.150709
    10  O   -0.168528   0.029610
    11  H   -0.153163   0.306035
    12  H   -0.099042   0.264373
    13  H    0.119992   0.012465
    14  H    0.291635   0.047533
    15  H    0.102381   0.035378
    16  H   -0.221851   0.498749
    17  H   -0.523001   0.820533
 Sum of Mulliken charges =  -1.00000   1.00000

 Dipole moment (field-independent basis, Debye):
    X=              0.5810    Y=              4.6636    Z=              1.0174  Tot=              4.8086
 Quadrupole moment (field-independent basis, Debye-Ang):
   XX=           -113.6836   YY=            -89.5323   ZZ=            -73.7860
   XY=              9.0324   XZ=              2.4977   YZ=             -1.6417

 Summary of Natural Population Analysis:

                                       Natural Population
                Natural  -----------------------------------------------
    Atom  No    Charge         Core      Valence    Rydberg      Total
 -----------------------------------------------------------------------
      C    1   -0.29122      0.99965     2.28564    0.00594     3.29122
      C    2   -0.12708      0.99947     2.11810    0.00951     3.12708
      C    3    0.25110      0.99946     1.73555    0.01389     2.74890
      N    4   -0.28792      0.99962     2.77961    0.00869     3.78792
      C    5    0.38921      0.99970     1.58437    0.02672     2.61079
      O    6   -0.33155      0.99987     3.32566    0.00601     4.33155
      N    7   -0.28174      0.99967     2.77069    0.01138     3.78174
      C    8    0.09422      0.99958     1.89173    0.01447     2.90578
      N    9   -0.15108      0.99964     2.63699    0.01446     3.65108
      O   10   -0.28572      0.99991     3.27745    0.00835     4.28572
      H   11    0.09716      0.00000     0.40133    0.00151     0.40284
      H   12    0.10191      0.00000     0.39680    0.00130     0.39809
      H   13    0.10196      0.00000     0.39714    0.00090     0.39804
      H   14    0.21094      0.00000     0.28656    0.00250     0.28906
      H   15    0.07881      0.00000     0.41960    0.00159     0.42119
      H   16    0.18504      0.00000     0.31194    0.00302     0.31496
      H   17    0.24597      0.00000     0.21086    0.04317     0.25403
 =======================================================================
   * Total *   -0.00000      9.99656    26.83001    0.17342    37.00000

 Normal termination of Gaussian 16 at Tue Dec  8 12:32:28 2020.
