 Gaussian 16, Revision A.03,

 -----------------------------------------------------------
 # opt freq B3LYP/6-31G(d) empiricaldispersion=gd3bj scf=xqc
 -----------------------------------------------------------

 ------------------------------
 CID_84128960_JID_6812_neutraal
 ------------------------------
 Symbolic Z-matrix:
 Charge =  0 Multiplicity = 1

 SCF Done:  E(RB3LYP) =  -676.167299424     A.U. after   14 cycles
 SCF Done:  E(RB3LYP) =  -676.171864233     A.U. after   12 cycles
 SCF Done:  E(RB3LYP) =  -676.170947471     A.U. after   12 cycles
 SCF Done:  E(RB3LYP) =  -676.172175500     A.U. after   11 cycles
 SCF Done:  E(RB3LYP) =  -676.173025448     A.U. after   11 cycles
 SCF Done:  E(RB3LYP) =  -676.173231707     A.U. after   11 cycles
 SCF Done:  E(RB3LYP) =  -676.173260288     A.U. after   10 cycles
 SCF Done:  E(RB3LYP) =  -676.173269580     A.U. after    9 cycles
 SCF Done:  E(RB3LYP) =  -676.173276002     A.U. after    9 cycles
 SCF Done:  E(RB3LYP) =  -676.173278569     A.U. after    9 cycles
 SCF Done:  E(RB3LYP) =  -676.173279550     A.U. after    8 cycles
 SCF Done:  E(RB3LYP) =  -676.173279964     A.U. after    7 cycles
 SCF Done:  E(RB3LYP) =  -676.173280011     A.U. after    7 cycles
 SCF Done:  E(RB3LYP) =  -676.173280009     A.U. after    6 cycles
 Optimization completed.
    -- Stationary point found.
 Normal termination of Gaussian 16 at Thu Dec 10 23:36:57 2020.

 --------------------------------------------------------------------
 #N Geom=AllCheck Guess=TCheck SCRF=Check GenChk RB3LYP/6-31G(d) Freq
 --------------------------------------------------------------------

 Structure from the checkpoint file:  "JID_6812.chk"
 ------------------------------
 CID_84128960_JID_6812_neutraal
 ------------------------------
 Charge =  0 Multiplicity = 1

 SCF Done:  E(RB3LYP) =  -676.173280008     A.U. after    1 cycles

  Exact polarizability: 194.139   8.991 140.602 -15.175  14.909 125.616
 Approx polarizability: 259.896  19.573 217.867 -26.326  35.763 199.973

                      1                      2                      3
                      A                      A                      A
 Frequencies --     26.6285                49.5361                62.2799
 Red. masses --      3.8071                 3.2137                 3.0190
 Frc consts  --      0.0016                 0.0046                 0.0069
 IR Inten    --      0.2059                 1.2369                 0.8143

                      4                      5                      6
                      A                      A                      A
 Frequencies --     84.6672               108.4013               143.6496
 Red. masses --      2.8575                 2.2308                 1.8293
 Frc consts  --      0.0121                 0.0154                 0.0222
 IR Inten    --      0.8634                 1.0978                 0.2364

                      7                      8                      9
                      A                      A                      A
 Frequencies --    181.5758               196.4257               213.4077
 Red. masses --      2.9840                 4.0201                 2.9735
 Frc consts  --      0.0580                 0.0914                 0.0798
 IR Inten    --      0.8906                 2.5035                 1.1333

                     10                     11                     12
                      A                      A                      A
 Frequencies --    237.8708               248.3101               263.0234
 Red. masses --      1.4824                 1.7982                 1.5388
 Frc consts  --      0.0494                 0.0653                 0.0627
 IR Inten    --      0.3406                 0.6858                 0.8023

                     13                     14                     15
                      A                      A                      A
 Frequencies --    269.6984               288.8730               335.0180
 Red. masses --      1.5014                 1.2823                 2.6226
 Frc consts  --      0.0643                 0.0630                 0.1734
 IR Inten    --      0.3956                 0.2468                 0.3572

                     16                     17                     18
                      A                      A                      A
 Frequencies --    348.3594               356.5405               414.9640
 Red. masses --      3.5170                 2.6827                 2.8962
 Frc consts  --      0.2515                 0.2009                 0.2938
 IR Inten    --      0.6748                 0.4595                 3.5615

                     19                     20                     21
                      A                      A                      A
 Frequencies --    432.2459               434.8520               468.4342
 Red. masses --      2.5425                 2.9264                 2.7901
 Frc consts  --      0.2799                 0.3260                 0.3607
 IR Inten    --      2.3843                 1.4030                 0.7353

                     22                     23                     24
                      A                      A                      A
 Frequencies --    483.1921               549.4220               600.5017
 Red. masses --      2.9154                 4.1335                 3.2905
 Frc consts  --      0.4010                 0.7352                 0.6991
 IR Inten    --      0.7458                 1.7855                 2.5480

                     25                     26                     27
                      A                      A                      A
 Frequencies --    623.5797               694.5307               729.1031
 Red. masses --      4.7657                 3.6946                 4.5825
 Frc consts  --      1.0918                 1.0500                 1.4353
 IR Inten    --      2.0588                 2.1161                 0.6930

                     28                     29                     30
                      A                      A                      A
 Frequencies --    772.1398               781.8705               820.1217
 Red. masses --      2.9991                 3.2207                 3.3695
 Frc consts  --      1.0535                 1.1600                 1.3353
 IR Inten    --     12.0657                 7.3662                16.5039

                     31                     32                     33
                      A                      A                      A
 Frequencies --    825.6782               843.6472               862.9570
 Red. masses --      1.3683                 1.5544                 1.9215
 Frc consts  --      0.5496                 0.6518                 0.8431
 IR Inten    --     42.5529                18.1443                 6.7866

                     34                     35                     36
                      A                      A                      A
 Frequencies --    902.4521               916.8564               921.6930
 Red. masses --      1.7911                 1.6950                 1.7365
 Frc consts  --      0.8595                 0.8395                 0.8692
 IR Inten    --      1.8020                 2.2682                 3.4888

                     37                     38                     39
                      A                      A                      A
 Frequencies --    941.0678               947.7179               957.6297
 Red. masses --      1.5476                 1.5400                 2.1811
 Frc consts  --      0.8075                 0.8150                 1.1785
 IR Inten    --      1.0006                 2.8616                 7.3986

                     40                     41                     42
                      A                      A                      A
 Frequencies --    964.9903               970.8146               996.5157
 Red. masses --      1.5576                 2.3130                 2.2173
 Frc consts  --      0.8546                 1.2844                 1.2973
 IR Inten    --      0.4338                15.8261                 2.6880

                     43                     44                     45
                      A                      A                      A
 Frequencies --   1017.2709              1034.9182              1052.1587
 Red. masses --      6.0616                 1.5070                 1.3912
 Frc consts  --      3.6958                 0.9510                 0.9074
 IR Inten    --     63.9957                 3.0145                 1.9011

                     46                     47                     48
                      A                      A                      A
 Frequencies --   1088.6848              1131.1592              1144.8206
 Red. masses --      1.6299                 2.4461                 2.0782
 Frc consts  --      1.1382                 1.8441                 1.6048
 IR Inten    --      3.1370                23.4423                13.4431

                     49                     50                     51
                      A                      A                      A
 Frequencies --   1151.9387              1161.6744              1176.3536
 Red. masses --      1.3736                 1.4546                 2.4489
 Frc consts  --      1.0739                 1.1566                 1.9966
 IR Inten    --      6.2428                13.5368                22.5915

                     52                     53                     54
                      A                      A                      A
 Frequencies --   1197.1966              1216.0222              1218.8664
 Red. masses --      1.5854                 2.1656                 1.2479
 Frc consts  --      1.3388                 1.8867                 1.0923
 IR Inten    --     11.6443                 3.0782                 1.2233

                     55                     56                     57
                      A                      A                      A
 Frequencies --   1229.8289              1256.6066              1264.7340
 Red. masses --      1.3743                 1.5846                 2.1648
 Frc consts  --      1.2247                 1.4743                 2.0402
 IR Inten    --      4.7592                65.1269                 2.0267

                     58                     59                     60
                      A                      A                      A
 Frequencies --   1288.4680              1299.1544              1311.8389
 Red. masses --      3.4467                 1.4838                 1.9138
 Frc consts  --      3.3713                 1.4755                 1.9405
 IR Inten    --     90.3086                19.7193                15.0884

                     61                     62                     63
                      A                      A                      A
 Frequencies --   1333.1023              1343.9454              1362.7534
 Red. masses --      1.4127                 1.6433                 1.4769
 Frc consts  --      1.4792                 1.7487                 1.6160
 IR Inten    --      7.4939                 3.5608                 2.2622

                     64                     65                     66
                      A                      A                      A
 Frequencies --   1384.8509              1410.6182              1413.8145
 Red. masses --      2.3804                 1.5672                 1.3640
 Frc consts  --      2.6898                 1.8374                 1.6064
 IR Inten    --      6.6096                 4.9325                 2.6864

                     67                     68                     69
                      A                      A                      A
 Frequencies --   1428.3696              1452.1901              1482.9076
 Red. masses --      1.2520                 1.2449                 1.1842
 Frc consts  --      1.5050                 1.5468                 1.5343
 IR Inten    --      3.9192                10.7160                 1.8240

                     70                     71                     72
                      A                      A                      A
 Frequencies --   1487.2616              1508.7721              1512.2500
 Red. masses --      3.6711                 1.0892                 1.1270
 Frc consts  --      4.7844                 1.4608                 1.5185
 IR Inten    --      0.6592                 0.3669                12.4103

                     73                     74                     75
                      A                      A                      A
 Frequencies --   1514.7214              1516.4902              1517.0829
 Red. masses --      1.1488                 1.0606                 1.0597
 Frc consts  --      1.5529                 1.4371                 1.4370
 IR Inten    --      9.3057                 9.1195                 4.5207

                     76                     77                     78
                      A                      A                      A
 Frequencies --   1523.4900              1533.4077              1537.7456
 Red. masses --      1.0931                 1.0600                 1.1637
 Frc consts  --      1.4948                 1.4684                 1.6213
 IR Inten    --      0.9097                 2.9767                21.0613

                     79                     80                     81
                      A                      A                      A
 Frequencies --   1538.8728              1545.3679              1547.9738
 Red. masses --      1.5101                 1.0813                 1.0605
 Frc consts  --      2.1069                 1.5214                 1.4972
 IR Inten    --     75.6238                22.0062                 1.3284

                     82                     83                     84
                      A                      A                      A
 Frequencies --   1552.4853              1653.2442              1674.8603
 Red. masses --      1.4188                 7.0300                 6.7033
 Frc consts  --      2.0147                11.3208                11.0789
 IR Inten    --     38.4184                 0.5225                25.9127

                     85                     86                     87
                      A                      A                      A
 Frequencies --   2896.8058              2940.1401              3030.9926
 Red. masses --      1.0736                 1.0622                 1.0575
 Frc consts  --      5.3079                 5.4099                 5.7240
 IR Inten    --     62.0213               106.3403                21.7712

                     88                     89                     90
                      A                      A                      A
 Frequencies --   3034.0377              3038.4472              3046.4440
 Red. masses --      1.0768                 1.0427                 1.0443
 Frc consts  --      5.8404                 5.6715                 5.7103
 IR Inten    --     26.5071                51.7582                50.4889

                     91                     92                     93
                      A                      A                      A
 Frequencies --   3047.9102              3056.4800              3065.1605
 Red. masses --      1.0674                 1.0686                 1.0721
 Frc consts  --      5.8425                 5.8818                 5.9344
 IR Inten    --     27.3328                66.2306                52.4921

                     94                     95                     96
                      A                      A                      A
 Frequencies --   3071.8118              3100.7946              3103.6407
 Red. masses --      1.1035                 1.0959                 1.1012
 Frc consts  --      6.1351                 6.2080                 6.2498
 IR Inten    --     17.1986                26.3129                32.9865

                     97                     98                     99
                      A                      A                      A
 Frequencies --   3105.0477              3112.5723              3116.2359
 Red. masses --      1.1009                 1.1015                 1.1014
 Frc consts  --      6.2535                 6.2876                 6.3016
 IR Inten    --     13.6636                63.7233                31.7832

                    100                    101                    102
                      A                      A                      A
 Frequencies --   3137.0951              3153.2567              3183.5767
 Red. masses --      1.1015                 1.0968                 1.0888
 Frc consts  --      6.3871                 6.4255                 6.5015
 IR Inten    --     36.9315                25.0831                12.8644

                    103                    104                    105
                      A                      A                      A
 Frequencies --   3190.2911              3221.1915              3533.7803
 Red. masses --      1.0904                 1.0932                 1.0730
 Frc consts  --      6.5386                 6.6832                 7.8944
 IR Inten    --     10.6307                 7.9054                22.4161

 - Thermochemistry -
 -------------------
 Temperature   298.150 Kelvin.  Pressure   1.00000 Atm.
 Atom     1 has atomic number  6 and mass  12.00000

 Molecular mass:   219.16231 amu.
 Principal axes and moments of inertia in atomic units:
                           1         2         3
     Eigenvalues --  1913.010795787.809956381.80553
           X            0.99996  -0.00443  -0.00759
           Y            0.00456   0.99985   0.01676
           Z            0.00752  -0.01680   0.99983
 This molecule is an asymmetric top.
 Rotational symmetry number  1.
 Warning -- assumption of classical behavior for rotation
           may cause significant error
 Rotational temperatures (Kelvin)      0.04528     0.01496     0.01357
 Rotational constants (GHZ):           0.94340     0.31182     0.28279
 Zero-point vibrational energy     864153.8 (Joules/Mol)
                                  206.53771 (Kcal/Mol)
 Warning -- explicit consideration of  24 degrees of freedom as
           vibrations may cause significant error
 Vibrational temperatures:     38.31    71.27    89.61   121.82   155.97
          (Kelvin)            206.68   261.25   282.61   307.05   342.24
                              357.26   378.43   388.04   415.62   482.02
                              501.21   512.98   597.04   621.91   625.66
                              673.97   695.21   790.50   863.99   897.19
                              999.27  1049.02  1110.94  1124.94  1179.97
                             1187.97  1213.82  1241.60  1298.43  1319.15
                             1326.11  1353.99  1363.55  1377.82  1388.41
                             1396.79  1433.76  1463.63  1489.02  1513.82
                             1566.37  1627.49  1647.14  1657.38  1671.39
                             1692.51  1722.50  1749.58  1753.68  1769.45
                             1807.98  1819.67  1853.82  1869.19  1887.44
                             1918.04  1933.64  1960.70  1992.49  2029.57
                             2034.16  2055.11  2089.38  2133.57  2139.84
                             2170.79  2175.79  2179.35  2181.89  2182.74
                             2191.96  2206.23  2212.47  2214.09  2223.44
                             2227.19  2233.68  2378.65  2409.75  4167.86
                             4230.21  4360.92  4365.30  4371.65  4383.15
                             4385.26  4397.59  4410.08  4419.65  4461.35
                             4465.45  4467.47  4478.30  4483.57  4513.58
                             4536.83  4580.46  4590.12  4634.58  5084.32

 Zero-point correction=                           0.329139 (Hartree/Particle)
 Thermal correction to Energy=                    0.345166
 Thermal correction to Enthalpy=                  0.346110
 Thermal correction to Gibbs Free Energy=         0.285506
 Sum of electronic and zero-point Energies=           -675.844141
 Sum of electronic and thermal Energies=              -675.828114
 Sum of electronic and thermal Enthalpies=            -675.827170
 Sum of electronic and thermal Free Energies=         -675.887774

                     E (Thermal)             CV                S
                      KCal/Mol        Cal/Mol-Kelvin    Cal/Mol-Kelvin
 Total                  216.595             62.008            127.551
 Electronic               0.000              0.000              0.000
 Translational            0.889              2.981             42.057
 Rotational               0.889              2.981             32.624
 Vibrational            214.817             56.047             52.870
 Vibration     1          0.593              1.984              6.066
 Vibration     2          0.595              1.978              4.836
 Vibration     3          0.597              1.972              4.384
 Vibration     4          0.601              1.960              3.780
 Vibration     5          0.606              1.943              3.297
 Vibration     6          0.616              1.910              2.755
 Vibration     7          0.630              1.865              2.312
 Vibration     8          0.636              1.845              2.166
 Vibration     9          0.644              1.821              2.014
 Vibration    10          0.656              1.783              1.819
 Vibration    11          0.662              1.766              1.743
 Vibration    12          0.670              1.741              1.642
 Vibration    13          0.674              1.729              1.598
 Vibration    14          0.685              1.694              1.481
 Vibration    15          0.716              1.606              1.236
 Vibration    16          0.726              1.579              1.174
 Vibration    17          0.732              1.562              1.137
 Vibration    18          0.778              1.438              0.909
 Vibration    19          0.793              1.400              0.851
 Vibration    20          0.795              1.394              0.843
 Vibration    21          0.826              1.320              0.742
 Vibration    22          0.839              1.287              0.702
 Vibration    23          0.905              1.141              0.545
 Vibration    24          0.959              1.031              0.449

 Optimization completed.
    -- Stationary point found.
 Normal termination of Gaussian 16 at Thu Dec 10 23:49:55 2020.

 ----------------------------------------------------------------------
 # B3LYP/6-311++G(d,p) empiricaldispersion=gd3bj scf=xqc pop=npa geom=c
 heck
 ----------------------------------------------------------------------

 --------------------------------------
 CID_84128960_JID_6812_Energie_neutraal
 --------------------------------------
 Structure from the checkpoint file:  "JID_6812.chk"
 Charge =  0 Multiplicity = 1

 SCF Done:  E(RB3LYP) =  -676.356938971     A.U. after   15 cycles
 Normal termination of Gaussian 16 at Thu Dec 10 23:55:53 2020.

 ----------------------------------------------------------------------
 # B3LYP/6-311++G(d,p) empiricaldispersion=gd3bj scf=xqc pop=npa geom=c
 heck
 ----------------------------------------------------------------------

 ------------------------------------
 CID_84128960_JID_6812_Energie_kation
 ------------------------------------
 Structure from the checkpoint file:  "JID_6812.chk"
 Charge =  1 Multiplicity = 2

 SCF Done:  E(UB3LYP) =  -676.084178114     A.U. after   24 cycles
 Normal termination of Gaussian 16 at Fri Dec 11 00:08:56 2020.
 Gaussian 16:  ES64L-G16RevA.03 25-Dec-2016

 ----------------------------------------------------------------------
 # B3LYP/6-311++G(d,p) empiricaldispersion=gd3bj scf=xqc pop=npa geom=c
 heck
 ----------------------------------------------------------------------

 -----------------------------------
 CID_84128960_JID_6812_Energie_anion
 -----------------------------------
 Structure from the checkpoint file:  "JID_6812.chk"
 Charge = -1 Multiplicity = 2

                         Standard orientation:
 ---------------------------------------------------------------------
 Center     Atomic      Atomic             Coordinates (Angstroms)
 Number     Number       Type             X           Y           Z
 ---------------------------------------------------------------------
      1          6           0       -2.285582   -1.263734   -1.415526
      2          6           0       -2.581792   -0.701727   -0.018253
      3          6           0       -3.940641   -1.239801    0.465123
      4          6           0       -1.517570   -1.180281    1.017836
      5          6           0       -0.111094   -0.655590    0.849182
      6          6           0        0.787411   -1.259948   -0.048923
      7          6           0        2.056896   -0.729250   -0.221081
      8          6           0        2.445212    0.403190    0.498848
      9          6           0        1.592485    1.023229    1.403183
     10          6           0        0.316590    0.472577    1.565921
     11          8           0        3.717485    0.814841    0.219010
     12          6           0        4.338906   -0.222160   -0.583434
     13          6           0        3.198486   -1.111464   -1.135181
     14          6           0       -2.681203    0.841044   -0.067714
     15          7           0       -1.657050    1.489384   -0.877923
     16          6           0       -1.789855    2.938423   -0.875345
     17          1           0       -2.271152   -2.360974   -1.393652
     18          1           0       -1.329158   -0.905275   -1.800604
     19          1           0       -3.058024   -0.947761   -2.125584
     20          1           0       -3.907730   -2.327622    0.597553
     21          1           0       -4.224893   -0.793799    1.426439
     22          1           0       -4.731021   -1.012802   -0.259455
     23          1           0       -1.878469   -0.901851    2.016145
     24          1           0       -1.502500   -2.277856    0.989834
     25          1           0        0.479629   -2.141060   -0.605648
     26          1           0        1.913491    1.893600    1.965299
     27          1           0       -0.370824    0.937665    2.268095
     28          1           0        4.930329    0.271453   -1.357140
     29          1           0        5.010606   -0.792867    0.069052
     30          1           0        3.455911   -2.174597   -1.093808
     31          1           0        2.965048   -0.869669   -2.180098
     32          1           0       -3.650750    1.107896   -0.511425
     33          1           0       -2.709713    1.224780    0.974060
     34          1           0       -0.739397    1.242807   -0.518087
     35          1           0       -1.787537    3.392691    0.134596
     36          1           0       -0.970973    3.382437   -1.450771
     37          1           0       -2.732912    3.221335   -1.359243
 ---------------------------------------------------------------------

 SCF Done:  E(UB3LYP) =  -676.341962968     A.U. after   33 cycles
 SCF Done:  E(UB3LYP) =  -676.341962967     a.u. after    1 cycles

 The electronic state is 2-A.
 Alpha  occ. eigenvalues --  -19.05706 -14.19566 -10.13361 -10.13351 -10.09255
 Alpha  occ. eigenvalues --  -10.09162 -10.09028 -10.08827 -10.08587 -10.08381
 Alpha  occ. eigenvalues --  -10.08227 -10.08180 -10.08174 -10.07526 -10.06572
 Alpha  occ. eigenvalues --  -10.05588  -0.97788  -0.80922  -0.76732  -0.72394
 Alpha  occ. eigenvalues --   -0.70000  -0.66644  -0.63784  -0.59900  -0.59109
 Alpha  occ. eigenvalues --   -0.58843  -0.53865  -0.53465  -0.51227  -0.48754
 Alpha  occ. eigenvalues --   -0.44837  -0.41647  -0.40943  -0.39596  -0.38899
 Alpha  occ. eigenvalues --   -0.37681  -0.36186  -0.35154  -0.34436  -0.34082
 Alpha  occ. eigenvalues --   -0.32777  -0.31655  -0.30946  -0.30557  -0.29726
 Alpha  occ. eigenvalues --   -0.29490  -0.28956  -0.28836  -0.27573  -0.27068
 Alpha  occ. eigenvalues --   -0.26493  -0.25994  -0.24397  -0.23750  -0.23041
 Alpha  occ. eigenvalues --   -0.22397  -0.20923  -0.16187  -0.13134  -0.12002
 Alpha  occ. eigenvalues --    0.04275
 Alpha virt. eigenvalues --    0.05827   0.06599   0.06965   0.07334   0.07832
 Alpha virt. eigenvalues --    0.08635   0.08741   0.09045   0.09283   0.09915
 Alpha virt. eigenvalues --    0.10136   0.10659   0.10863   0.11637   0.11753

  Beta  occ. eigenvalues --  -19.05705 -14.19558 -10.13357 -10.13320 -10.09241
  Beta  occ. eigenvalues --  -10.09146 -10.09026 -10.08791 -10.08586 -10.08382
  Beta  occ. eigenvalues --  -10.08219 -10.08170 -10.08164 -10.07512 -10.06550
  Beta  occ. eigenvalues --  -10.05570  -0.97780  -0.80909  -0.76720  -0.72378
  Beta  occ. eigenvalues --   -0.69968  -0.66626  -0.63749  -0.59868  -0.59076
  Beta  occ. eigenvalues --   -0.58806  -0.53815  -0.53418  -0.51175  -0.48734
  Beta  occ. eigenvalues --   -0.44804  -0.41609  -0.40908  -0.39569  -0.38869
  Beta  occ. eigenvalues --   -0.37659  -0.36155  -0.35128  -0.34417  -0.34057
  Beta  occ. eigenvalues --   -0.32740  -0.31624  -0.30916  -0.30523  -0.29707
  Beta  occ. eigenvalues --   -0.29460  -0.28931  -0.28815  -0.27547  -0.27033
  Beta  occ. eigenvalues --   -0.26472  -0.25965  -0.24375  -0.23730  -0.23018
  Beta  occ. eigenvalues --   -0.22374  -0.20900  -0.16168  -0.13104  -0.11986
  Beta virt. eigenvalues --    0.06176   0.06876   0.07010   0.07251   0.07681
  Beta virt. eigenvalues --    0.08355   0.09008   0.09152   0.09451   0.09459
  Beta virt. eigenvalues --    0.10253   0.10364   0.10884   0.11187   0.11844

 Mulliken charges and spin densities:
               1          2
     1  C    0.004054  -0.623086
     2  C   -0.828350   1.769076
     3  C    0.496721  -1.059245
     4  C    0.961333  -1.758999
     5  C    0.478428   0.453182
     6  C   -1.853282   1.628997
     7  C    0.244285   0.837398
     8  C    0.434351  -1.645711
     9  C   -0.874784   0.452838
    10  C   -0.336013   0.055899
    11  O   -0.151549   0.056908
    12  C    0.763300  -0.936439
    13  C    1.428243  -2.025852
    14  C   -0.182759  -0.819951
    15  N   -0.169173   0.137201
    16  C    0.119092  -0.418511
    17  H   -0.182576   0.331831
    18  H    0.073086   0.091816
    19  H    0.067620   0.083325
    20  H   -0.075909   0.220370
    21  H   -0.178273   0.315233
    22  H   -0.073687   0.206525
    23  H   -0.029603   0.221461
    24  H    0.017761   0.151162
    25  H   -0.222145   0.402904
    26  H   -0.081662   0.267332
    27  H   -0.316853   0.469562
    28  H   -0.346085   0.522148
    29  H   -0.164839   0.338107
    30  H   -0.433288   0.604986
    31  H   -0.098950   0.275650
    32  H    0.064915   0.112025
    33  H    0.099404   0.027978
    34  H    0.525520  -0.298308
    35  H   -0.051664   0.168750
    36  H   -0.052370   0.194137
    37  H   -0.074298   0.189304
 Sum of Mulliken charges =  -1.00000   1.00000

 Dipole moment (field-independent basis, Debye):
    X=             -1.9677    Y=              1.7735    Z=              1.4610  Tot=              3.0252
 Quadrupole moment (field-independent basis, Debye-Ang):
   XX=           -185.4695   YY=           -145.3757   ZZ=           -139.9083
   XY=              4.0537   XZ=              9.4210   YZ=             -1.8330

 Summary of Natural Population Analysis:

                                       Natural Population
                Natural  -----------------------------------------------
    Atom  No    Charge         Core      Valence    Rydberg      Total
 -----------------------------------------------------------------------
      C    1   -0.28732      0.99962     2.27967    0.00803     3.28732
      C    2   -0.04392      0.99957     2.03303    0.01132     3.04392
      C    3   -0.28247      0.99963     2.27545    0.00739     3.28247
      C    4   -0.19476      0.99956     2.18384    0.01136     3.19476
      C    5   -0.03238      0.99952     2.02176    0.01110     3.03238
      C    6   -0.09026      0.99946     2.08140    0.00939     3.09026
      C    7   -0.03881      0.99947     2.02950    0.00985     3.03881
      C    8    0.15883      0.99933     1.82827    0.01358     2.84117
      C    9   -0.12562      0.99951     2.11706    0.00906     3.12562
      C   10   -0.09983      0.99952     2.09064    0.00966     3.09983
      O   11   -0.27594      0.99987     3.26788    0.00819     4.27594
      C   12   -0.00475      0.99960     1.99364    0.01152     3.00475
      C   13   -0.20862      0.99962     2.20087    0.00813     3.20862
      C   14   -0.08529      0.99957     2.07230    0.01341     3.08529
      N   15   -0.34188      0.99974     2.83228    0.00986     3.84188
      C   16   -0.17481      0.99967     2.16841    0.00674     3.17481
      H   17    0.09608      0.00000     0.40289    0.00103     0.40392
      H   18    0.10858      0.00000     0.38981    0.00161     0.39142
      H   19    0.10023      0.00000     0.39893    0.00083     0.39977
      H   20    0.10022      0.00000     0.39882    0.00096     0.39978
      H   21    0.09974      0.00000     0.39920    0.00106     0.40026
      H   22    0.09908      0.00000     0.39999    0.00093     0.40092
      H   23    0.10225      0.00000     0.39619    0.00155     0.39775
      H   24    0.10315      0.00000     0.39557    0.00128     0.39685
      H   25    0.10402      0.00000     0.39445    0.00153     0.39598
      H   26    0.10566      0.00000     0.39303    0.00131     0.39434
      H   27    0.10219      0.00000     0.39662    0.00119     0.39781
      H   28    0.09251      0.00000     0.40562    0.00187     0.40749
      H   29    0.08472      0.00000     0.41361    0.00167     0.41528
      H   30    0.11096      0.00000     0.38693    0.00211     0.38904
      H   31    0.10691      0.00000     0.39149    0.00160     0.39309
      H   32    0.09155      0.00000     0.40708    0.00137     0.40845
      H   33    0.07991      0.00000     0.41849    0.00160     0.42009
      H   34    0.18047      0.00000     0.31472    0.00481     0.31953
      H   35    0.07673      0.00000     0.42157    0.00170     0.42327
      H   36    0.09469      0.00000     0.40439    0.00092     0.40531
      H   37    0.08819      0.00000     0.41061    0.00121     0.41181
 =======================================================================
   * Total *   -0.00000     15.99325    43.81602    0.19073    60.00000

 Normal termination of Gaussian 16 at Fri Dec 11 00:26:55 2020.
