 Gaussian 16, Revision A.03,

 -----------------------------------------------------------
 # opt freq B3LYP/6-31G(d) empiricaldispersion=gd3bj scf=xqc
 -----------------------------------------------------------

 ------------------------------
 CID_43196137_JID_7225_neutraal
 ------------------------------
 Symbolic Z-matrix:
 Charge =  0 Multiplicity = 1

 SCF Done:  E(RB3LYP) =  -730.295222047     A.U. after   15 cycles
 SCF Done:  E(RB3LYP) =  -730.298513598     A.U. after   12 cycles
 SCF Done:  E(RB3LYP) =  -730.298817758     A.U. after   14 cycles
 SCF Done:  E(RB3LYP) =  -730.299493371     A.U. after   12 cycles
 SCF Done:  E(RB3LYP) =  -730.300232104     A.U. after   12 cycles
 SCF Done:  E(RB3LYP) =  -730.298054905     A.U. after   15 cycles
 SCF Done:  E(RB3LYP) =  -730.301115099     A.U. after   11 cycles
 SCF Done:  E(RB3LYP) =  -730.301331336     A.U. after   11 cycles
 SCF Done:  E(RB3LYP) =  -730.301466670     A.U. after   11 cycles
 SCF Done:  E(RB3LYP) =  -730.301555879     A.U. after   11 cycles
 SCF Done:  E(RB3LYP) =  -730.302181976     A.U. after    9 cycles
 SCF Done:  E(RB3LYP) =  -730.302183092     A.U. after   10 cycles
 SCF Done:  E(RB3LYP) =  -730.302183187     A.U. after    9 cycles
 SCF Done:  E(RB3LYP) =  -730.302183238     A.U. after    7 cycles
 SCF Done:  E(RB3LYP) =  -730.302183247     A.U. after    7 cycles
 Optimization completed.
    -- Stationary point found.
 Normal termination of Gaussian 16 at Mon Dec 14 19:13:28 2020.

 --------------------------------------------------------------------
 #N Geom=AllCheck Guess=TCheck SCRF=Check GenChk RB3LYP/6-31G(d) Freq
 --------------------------------------------------------------------

 Structure from the checkpoint file:  "JID_7225.chk"
 ------------------------------
 CID_43196137_JID_7225_neutraal
 ------------------------------
 Charge =  0 Multiplicity = 1

 SCF Done:  E(RB3LYP) =  -730.302183247     A.U. after    1 cycles

  Exact polarizability: 220.685 -18.745 158.454   5.019  -7.254 111.292
 Approx polarizability: 298.368 -33.301 251.875  10.467 -19.370 160.110

                      1                      2                      3
                      A                      A                      A
 Frequencies --     13.0401                18.0770                34.3877
 Red. masses --      4.2495                 3.6144                 3.9608
 Frc consts  --      0.0004                 0.0007                 0.0028
 IR Inten    --      0.5734                 0.2234                 1.3094

                      4                      5                      6
                      A                      A                      A
 Frequencies --     46.5947                56.3531                79.2521
 Red. masses --      2.9411                 4.8499                 2.8879
 Frc consts  --      0.0038                 0.0091                 0.0107
 IR Inten    --      0.4156                 1.6756                 0.3828

                      7                      8                      9
                      A                      A                      A
 Frequencies --    107.7811               124.7001               141.5640
 Red. masses --      3.7020                 3.5322                 5.4745
 Frc consts  --      0.0253                 0.0324                 0.0646
 IR Inten    --      1.9666                 2.3016                 2.3519

                     10                     11                     12
                      A                      A                      A
 Frequencies --    189.1941               202.5083               215.6370
 Red. masses --      2.5126                 1.8524                 2.8705
 Frc consts  --      0.0530                 0.0448                 0.0786
 IR Inten    --      1.4420                 6.1897                 7.1378

                     13                     14                     15
                      A                      A                      A
 Frequencies --    240.7156               260.8536               282.1355
 Red. masses --      1.3220                 1.4492                 3.8067
 Frc consts  --      0.0451                 0.0581                 0.1785
 IR Inten    --      0.1988                 0.5171                 0.6256

                     16                     17                     18
                      A                      A                      A
 Frequencies --    307.4125               323.0780               351.0568
 Red. masses --      3.5918                 2.8874                 2.1898
 Frc consts  --      0.2000                 0.1776                 0.1590
 IR Inten    --      0.0507                 0.8653                 6.2505

                     19                     20                     21
                      A                      A                      A
 Frequencies --    375.8837               413.4563               443.5652
 Red. masses --      2.6585                 3.0392                 2.6316
 Frc consts  --      0.2213                 0.3061                 0.3051
 IR Inten    --      4.2206                 0.1376                 0.7211

                     22                     23                     24
                      A                      A                      A
 Frequencies --    494.4328               508.9007               526.2398
 Red. masses --      4.9831                 4.1250                 3.3142
 Frc consts  --      0.7177                 0.6294                 0.5408
 IR Inten    --      1.8314                 1.3803                 4.2984

                     25                     26                     27
                      A                      A                      A
 Frequencies --    559.9175               587.4491               590.9513
 Red. masses --      6.0343                 2.8548                 2.8496
 Frc consts  --      1.1146                 0.5805                 0.5863
 IR Inten    --      0.2299                19.9084                 2.7281

                     28                     29                     30
                      A                      A                      A
 Frequencies --    663.2115               721.3439               749.6494
 Red. masses --      6.9605                 3.6281                 3.8477
 Frc consts  --      1.8038                 1.1123                 1.2740
 IR Inten    --      1.3332                 0.6827                 2.1282

                     31                     32                     33
                      A                      A                      A
 Frequencies --    781.4581               811.0825               827.5687
 Red. masses --      1.5105                 1.1459                 4.2062
 Frc consts  --      0.5435                 0.4441                 1.6973
 IR Inten    --     30.0802                 5.1842                 0.5187

                     34                     35                     36
                      A                      A                      A
 Frequencies --    834.4091               855.9409               868.0933
 Red. masses --      1.4148                 1.4215                 1.3696
 Frc consts  --      0.5804                 0.6136                 0.6081
 IR Inten    --     18.2013                19.9418                13.3106

                     37                     38                     39
                      A                      A                      A
 Frequencies --    893.0459               901.1921               915.4381
 Red. masses --      2.0758                 2.4296                 2.3514
 Frc consts  --      0.9754                 1.1626                 1.1610
 IR Inten    --     11.5024                 0.1948                 2.5312

                     40                     41                     42
                      A                      A                      A
 Frequencies --    969.6587               972.8922               990.5266
 Red. masses --      1.7675                 1.3815                 1.3182
 Frc consts  --      0.9792                 0.7704                 0.7620
 IR Inten    --      4.6270                 1.5628                 0.8468

                     43                     44                     45
                      A                      A                      A
 Frequencies --   1021.9587              1042.7491              1048.7505
 Red. masses --      1.8658                 2.8099                 1.7662
 Frc consts  --      1.1481                 1.8001                 1.1445
 IR Inten    --      5.9870                 7.0664                 3.3148

                     46                     47                     48
                      A                      A                      A
 Frequencies --   1076.3429              1090.6232              1108.7925
 Red. masses --      2.1677                 2.0667                 2.1499
 Frc consts  --      1.4796                 1.4483                 1.5573
 IR Inten    --     25.1569                23.5554                13.1481

                     49                     50                     51
                      A                      A                      A
 Frequencies --   1124.4451              1146.1176              1156.5917
 Red. masses --      1.9275                 1.5557                 1.9433
 Frc consts  --      1.4359                 1.2040                 1.5316
 IR Inten    --      3.4857                13.9023                 3.1335

                     52                     53                     54
                      A                      A                      A
 Frequencies --   1172.8770              1179.5694              1209.7893
 Red. masses --      2.7337                 3.8235                 1.3042
 Frc consts  --      2.2157                 3.1345                 1.1246
 IR Inten    --     56.6764               154.8123                 4.7581

                     55                     56                     57
                      A                      A                      A
 Frequencies --   1215.9810              1233.6768              1238.5760
 Red. masses --      1.7730                 2.9206                 2.1761
 Frc consts  --      1.5446                 2.6189                 1.9669
 IR Inten    --     25.1095                 1.4451                 0.9634

                     58                     59                     60
                      A                      A                      A
 Frequencies --   1264.8746              1268.7595              1325.5693
 Red. masses --      1.3412                 1.1818                 1.5100
 Frc consts  --      1.2643                 1.1208                 1.5633
 IR Inten    --      8.3244                28.0016                21.6933

                     61                     62                     63
                      A                      A                      A
 Frequencies --   1333.1539              1341.2511              1342.8548
 Red. masses --      1.4202                 1.9783                 1.1728
 Frc consts  --      1.4872                 2.0968                 1.2460
 IR Inten    --      5.3034                 1.3076                11.6629

                     64                     65                     66
                      A                      A                      A
 Frequencies --   1378.3537              1384.9073              1401.6558
 Red. masses --      1.3303                 1.5305                 1.3440
 Frc consts  --      1.4891                 1.7295                 1.5557
 IR Inten    --     27.3474                10.3251                17.3816

                     67                     68                     69
                      A                      A                      A
 Frequencies --   1417.6203              1418.8232              1433.2481
 Red. masses --      1.3338                 1.5099                 1.2451
 Frc consts  --      1.5793                 1.7908                 1.5070
 IR Inten    --      5.0037                16.2375                 6.9321

                     70                     71                     72
                      A                      A                      A
 Frequencies --   1439.6846              1450.6662              1460.1571
 Red. masses --      1.2882                 1.3956                 2.4357
 Frc consts  --      1.5732                 1.7304                 3.0596
 IR Inten    --     29.0821                 5.6964                 8.7635

                     73                     74                     75
                      A                      A                      A
 Frequencies --   1499.0371              1513.7473              1518.6587
 Red. masses --      1.1406                 1.1024                 1.0496
 Frc consts  --      1.5101                 1.4883                 1.4262
 IR Inten    --     13.9843                 4.3612                 3.9332

                     76                     77                     78
                      A                      A                      A
 Frequencies --   1519.1816              1523.7558              1531.7680
 Red. masses --      1.0599                 1.1042                 1.0931
 Frc consts  --      1.4413                 1.5106                 1.5111
 IR Inten    --      1.0977                 7.1553                14.8427

                     79                     80                     81
                      A                      A                      A
 Frequencies --   1534.6853              1545.4117              1551.6961
 Red. masses --      1.0674                 1.0920                 1.1015
 Frc consts  --      1.4812                 1.5367                 1.5626
 IR Inten    --      1.2727                22.5160                13.4912

                     82                     83                     84
                      A                      A                      A
 Frequencies --   1556.0722              1619.0213              1670.9333
 Red. masses --      2.3877                 6.2945                 5.7236
 Frc consts  --      3.4063                 9.7211                 9.4154
 IR Inten    --     11.1794                 0.7938                17.9198

                     85                     86                     87
                      A                      A                      A
 Frequencies --   2349.9584              2924.8062              2949.4040
 Red. masses --     12.6798                 1.0818                 1.0745
 Frc consts  --     41.2556                 5.4526                 5.5072
 IR Inten    --     44.0710                55.9490               102.1636

                     88                     89                     90
                      A                      A                      A
 Frequencies --   2989.2036              3003.1053              3037.7118
 Red. masses --      1.0701                 1.0584                 1.0748
 Frc consts  --      5.6334                 5.6242                 5.8435
 IR Inten    --     67.1544                31.2483                23.3189

                     91                     92                     93
                      A                      A                      A
 Frequencies --   3043.1311              3054.0826              3062.3758
 Red. masses --      1.0929                 1.0375                 1.0345
 Frc consts  --      5.9630                 5.7017                 5.7160
 IR Inten    --     61.5862                27.7434                14.5649

                     94                     95                     96
                      A                      A                      A
 Frequencies --   3089.0107              3090.5047              3121.8814
 Red. masses --      1.0933                 1.0972                 1.1012
 Frc consts  --      6.1466                 6.1743                 6.3233
 IR Inten    --     17.9748                42.3603                41.1777

                     97                     98                     99
                      A                      A                      A
 Frequencies --   3126.1666              3130.8654              3137.1123
 Red. masses --      1.0911                 1.1036                 1.1022
 Frc consts  --      6.2824                 6.3739                 6.3912
 IR Inten    --     16.0729                39.1349                26.4385

                    100                    101                    102
                      A                      A                      A
 Frequencies --   3141.9677              3189.2538              3211.2806
 Red. masses --      1.0993                 1.0889                 1.0885
 Frc consts  --      6.3939                 6.5257                 6.6135
 IR Inten    --     34.3354                 9.2373                 2.0917

                    103                    104                    105
                      A                      A                      A
 Frequencies --   3219.8769              3226.6342              3467.9224
 Red. masses --      1.0938                 1.0943                 1.0738
 Frc consts  --      6.6815                 6.7126                 7.6088
 IR Inten    --      6.7688                 2.6038                 0.7474

 - Thermochemistry -
 -------------------
 Temperature   298.150 Kelvin.  Pressure   1.00000 Atm.
 Atom     1 has atomic number  6 and mass  12.00000

 Molecular mass:   232.15756 amu.
 Principal axes and moments of inertia in atomic units:
                           1         2         3
     Eigenvalues --  2006.79258********************
           X            0.99983   0.01814  -0.00233
           Y           -0.01814   0.99983   0.00199
           Z            0.00236  -0.00195   1.00000
 This molecule is an asymmetric top.
 Rotational symmetry number  1.
 Warning -- assumption of classical behavior for rotation
           may cause significant error
 Rotational temperatures (Kelvin)      0.04316     0.00822     0.00756
 Rotational constants (GHZ):           0.89932     0.17131     0.15760
 Zero-point vibrational energy     844140.6 (Joules/Mol)
                                  201.75445 (Kcal/Mol)
 Warning -- explicit consideration of  27 degrees of freedom as
           vibrations may cause significant error
 Vibrational temperatures:     18.76    26.01    49.48    67.04    81.08
          (Kelvin)            114.03   155.07   179.42   203.68   272.21
                              291.36   310.25   346.34   375.31   405.93
                              442.30   464.84   505.09   540.81   594.87
                              638.19   711.38   732.19   757.14   805.60
                              845.21   850.25   954.21  1037.85  1078.58
                             1124.34  1166.97  1190.69  1200.53  1231.51
                             1248.99  1284.89  1296.61  1317.11  1395.12
                             1399.77  1425.15  1470.37  1500.28  1508.92
                             1548.62  1569.16  1595.31  1617.83  1649.01
                             1664.08  1687.51  1697.14  1740.62  1749.53
                             1774.99  1782.03  1819.87  1825.46  1907.20
                             1918.11  1929.76  1932.07  1983.14  1992.57
                             2016.67  2039.64  2041.37  2062.12  2071.38
                             2087.19  2100.84  2156.78  2177.94  2185.01
                             2185.76  2192.34  2203.87  2208.07  2223.50
                             2232.54  2238.84  2329.41  2404.10  3381.07
                             4208.14  4243.53  4300.80  4320.80  4370.59
                             4378.39  4394.14  4406.08  4444.40  4446.55
                             4491.69  4497.86  4504.62  4513.60  4520.59
                             4588.62  4620.32  4632.68  4642.41  4989.57

 Zero-point correction=                           0.321516 (Hartree/Particle)
 Thermal correction to Energy=                    0.339395
 Thermal correction to Enthalpy=                  0.340339
 Thermal correction to Gibbs Free Energy=         0.272018
 Sum of electronic and zero-point Energies=           -729.980667
 Sum of electronic and thermal Energies=              -729.962788
 Sum of electronic and thermal Enthalpies=            -729.961844
 Sum of electronic and thermal Free Energies=         -730.030165

                     E (Thermal)             CV                S
                      KCal/Mol        Cal/Mol-Kelvin    Cal/Mol-Kelvin
 Total                  212.974             65.545            143.795
 Electronic               0.000              0.000              0.000
 Translational            0.889              2.981             42.229
 Rotational               0.889              2.981             33.848
 Vibrational            211.196             59.583             67.718
 Vibration     1          0.593              1.987              7.484
 Vibration     2          0.593              1.986              6.835
 Vibration     3          0.594              1.983              5.559
 Vibration     4          0.595              1.979              4.957
 Vibration     5          0.596              1.975              4.581
 Vibration     6          0.600              1.963              3.909
 Vibration     7          0.606              1.943              3.308
 Vibration     8          0.610              1.928              3.026
 Vibration     9          0.615              1.912              2.783
 Vibration    10          0.633              1.855              2.236
 Vibration    11          0.639              1.836              2.110
 Vibration    12          0.645              1.817              1.995
 Vibration    13          0.658              1.778              1.798
 Vibration    14          0.669              1.744              1.656
 Vibration    15          0.681              1.707              1.521
 Vibration    16          0.697              1.660              1.376
 Vibration    17          0.708              1.629              1.294
 Vibration    18          0.728              1.573              1.161
 Vibration    19          0.747              1.521              1.056
 Vibration    20          0.777              1.441              0.914
 Vibration    21          0.803              1.375              0.815
 Vibration    22          0.850              1.262              0.672
 Vibration    23          0.864              1.230              0.636
 Vibration    24          0.881              1.192              0.596
 Vibration    25          0.916              1.118              0.524
 Vibration    26          0.945              1.059              0.472
 Vibration    27          0.948              1.051              0.465

 Optimization completed.
    -- Stationary point found.
 Normal termination of Gaussian 16 at Mon Dec 14 19:25:42 2020.

 ----------------------------------------------------------------------
 # B3LYP/6-311++G(d,p) empiricaldispersion=gd3bj scf=xqc pop=npa geom=c
 heck
 ----------------------------------------------------------------------

 --------------------------------------
 CID_43196137_JID_7225_Energie_neutraal
 --------------------------------------
 Structure from the checkpoint file:  "JID_7225.chk"
 Charge =  0 Multiplicity = 1

 SCF Done:  E(RB3LYP) =  -730.504762355     A.U. after   14 cycles
 Normal termination of Gaussian 16 at Mon Dec 14 19:32:11 2020.

 ----------------------------------------------------------------------
 # B3LYP/6-311++G(d,p) empiricaldispersion=gd3bj scf=xqc pop=npa geom=c
 heck
 ----------------------------------------------------------------------

 ------------------------------------
 CID_43196137_JID_7225_Energie_kation
 ------------------------------------
 Structure from the checkpoint file:  "JID_7225.chk"
 Charge =  1 Multiplicity = 2

 SCF Done:  E(UB3LYP) =  -730.197553822     A.U. after   24 cycles
 Normal termination of Gaussian 16 at Mon Dec 14 19:47:21 2020.
 Gaussian 16:  ES64L-G16RevA.03 25-Dec-2016

 ----------------------------------------------------------------------
 # B3LYP/6-311++G(d,p) empiricaldispersion=gd3bj scf=xqc pop=npa geom=c
 heck
 ----------------------------------------------------------------------

 -----------------------------------
 CID_43196137_JID_7225_Energie_anion
 -----------------------------------
 Structure from the checkpoint file:  "JID_7225.chk"
 Charge = -1 Multiplicity = 2

                         Standard orientation:
 ---------------------------------------------------------------------
 Center     Atomic      Atomic             Coordinates (Angstroms)
 Number     Number       Type             X           Y           Z
 ---------------------------------------------------------------------
      1          6           0        5.104443    2.370842    0.406827
      2          6           0        4.145132    1.321207    0.962971
      3          8           0        4.081249    0.139143    0.181945
      4          6           0        3.422945    0.294105   -1.066193
      5          6           0        2.994774   -1.088156   -1.544544
      6          6           0        2.000046   -1.750894   -0.590465
      7          7           0        0.761240   -0.975612   -0.519161
      8          6           0       -0.240541   -1.491362    0.418463
      9          6           0        0.226395   -1.303060    1.871801
     10          6           0       -1.552911   -0.761182    0.204149
     11          6           0       -2.770967   -1.443004    0.303923
     12          6           0       -3.980843   -0.774062    0.154085
     13          6           0       -3.985459    0.605318   -0.106008
     14          6           0       -2.768195    1.298005   -0.211368
     15          6           0       -1.567161    0.616128   -0.055347
     16          6           0       -5.226193    1.302115   -0.268005
     17          7           0       -6.233856    1.868298   -0.399737
     18          1           0        6.102631    1.940337    0.273969
     19          1           0        5.181275    3.219346    1.096485
     20          1           0        4.765786    2.756481   -0.560754
     21          1           0        4.478974    0.994832    1.953695
     22          1           0        3.134673    1.748819    1.074841
     23          1           0        2.536983    0.934874   -0.947452
     24          1           0        4.089087    0.762894   -1.806536
     25          1           0        2.558512   -0.997292   -2.549563
     26          1           0        3.881075   -1.726837   -1.638010
     27          1           0        1.823556   -2.798962   -0.896523
     28          1           0        2.454277   -1.774989    0.402521
     29          1           0        0.342319   -0.951495   -1.448688
     30          1           0       -0.426036   -2.571723    0.262886
     31          1           0        0.457125   -0.248455    2.052965
     32          1           0       -0.560843   -1.614942    2.565173
     33          1           0        1.120488   -1.895422    2.086584
     34          1           0       -2.770370   -2.512153    0.499377
     35          1           0       -4.921997   -1.308467    0.229583
     36          1           0       -2.776062    2.363985   -0.413962
     37          1           0       -0.621935    1.141219   -0.141581
 ---------------------------------------------------------------------

 SCF Done:  E(UB3LYP) =  -730.508904712     A.U. after   33 cycles
 SCF Done:  E(UB3LYP) =  -730.508904712     a.u. after    1 cycles

 The electronic state is 2-A.
 Alpha  occ. eigenvalues --  -19.03691 -14.20109 -14.16718 -10.13219 -10.12636
 Alpha  occ. eigenvalues --  -10.10040 -10.09917 -10.08547 -10.07964 -10.06893
 Alpha  occ. eigenvalues --  -10.06367 -10.05951 -10.05698 -10.05480 -10.05479
 Alpha  occ. eigenvalues --  -10.05059 -10.04650  -0.94993  -0.81629  -0.77155
 Alpha  occ. eigenvalues --   -0.73925  -0.70293  -0.67185  -0.64936  -0.63039
 Alpha  occ. eigenvalues --   -0.62097  -0.58609  -0.53953  -0.52345  -0.49670
 Alpha  occ. eigenvalues --   -0.48884  -0.47162  -0.42588  -0.41460  -0.40237
 Alpha  occ. eigenvalues --   -0.39150  -0.38461  -0.37252  -0.35113  -0.33951
 Alpha  occ. eigenvalues --   -0.33521  -0.32482  -0.32342  -0.30701  -0.30512
 Alpha  occ. eigenvalues --   -0.29710  -0.29508  -0.28399  -0.27233  -0.27020
 Alpha  occ. eigenvalues --   -0.26862  -0.25888  -0.25135  -0.23497  -0.23217
 Alpha  occ. eigenvalues --   -0.22884  -0.21942  -0.21352  -0.19836  -0.17579
 Alpha  occ. eigenvalues --   -0.14406  -0.13809  -0.12952   0.03933
 Alpha virt. eigenvalues --    0.05143   0.06585   0.07022   0.07914   0.08444
 Alpha virt. eigenvalues --    0.08667   0.09269   0.09879   0.09974   0.10182
 Alpha virt. eigenvalues --    0.10720   0.11195   0.11773   0.12104   0.12559

  Beta  occ. eigenvalues --  -19.03688 -14.20091 -14.16464 -10.13211 -10.12630
  Beta  occ. eigenvalues --  -10.10067 -10.09912 -10.08543 -10.07937 -10.06887
  Beta  occ. eigenvalues --  -10.06112 -10.05913 -10.05593 -10.05510 -10.05353
  Beta  occ. eigenvalues --  -10.05099 -10.04271  -0.94987  -0.81566  -0.76763
  Beta  occ. eigenvalues --   -0.73569  -0.70223  -0.66991  -0.64743  -0.62768
  Beta  occ. eigenvalues --   -0.61827  -0.58568  -0.53756  -0.52112  -0.49593
  Beta  occ. eigenvalues --   -0.48727  -0.46953  -0.42424  -0.41442  -0.40190
  Beta  occ. eigenvalues --   -0.39125  -0.38422  -0.37116  -0.35017  -0.33879
  Beta  occ. eigenvalues --   -0.33405  -0.32335  -0.32252  -0.30638  -0.30397
  Beta  occ. eigenvalues --   -0.29663  -0.29421  -0.28354  -0.27086  -0.26887
  Beta  occ. eigenvalues --   -0.26445  -0.25323  -0.25078  -0.23185  -0.23055
  Beta  occ. eigenvalues --   -0.22850  -0.21740  -0.20392  -0.19691  -0.17566
  Beta  occ. eigenvalues --   -0.13719  -0.13512  -0.11443
  Beta virt. eigenvalues --    0.05613   0.06619   0.07086   0.07880   0.08439
  Beta virt. eigenvalues --    0.08691   0.08949   0.09394   0.09827   0.10078
  Beta virt. eigenvalues --    0.10239   0.10753   0.11201   0.11806   0.12022

 Mulliken charges and spin densities:
               1          2
     1  C    0.507693  -1.016914
     2  C   -0.419540   0.360427
     3  O   -0.078965   0.013104
     4  C   -0.217722  -0.097902
     5  C   -0.166307  -0.271455
     6  C   -0.242362   0.006725
     7  N    0.031631   0.003623
     8  C   -0.083143  -0.008230
     9  C   -0.508427  -0.184390
    10  C    0.618023   0.263420
    11  C   -0.303969   0.015046
    12  C   -0.579737   0.137737
    13  C    1.841444   0.137129
    14  C   -0.620217   0.090157
    15  C   -0.310925  -0.012771
    16  C   -1.500957  -0.082166
    17  N   -0.305330   0.136849
    18  H   -0.006619   0.153706
    19  H   -0.270002   0.408832
    20  H   -0.158692   0.301357
    21  H   -0.125007   0.276979
    22  H    0.246351  -0.129018
    23  H    0.150456   0.035969
    24  H    0.055444   0.082203
    25  H    0.076937   0.053548
    26  H    0.141348   0.024210
    27  H    0.048409   0.056714
    28  H    0.140645  -0.001734
    29  H    0.209749  -0.002716
    30  H    0.086390   0.070509
    31  H    0.117217   0.047562
    32  H    0.137415   0.003481
    33  H    0.018752   0.092070
    34  H    0.089951   0.014643
    35  H    0.142055  -0.001769
    36  H    0.159492   0.007365
    37  H    0.078521   0.015701
 Sum of Mulliken charges =  -1.00000   1.00000

 Dipole moment (field-independent basis, Debye):
    X=              7.3368    Y=             -5.0225    Z=             -0.7738  Tot=              8.9248
 Quadrupole moment (field-independent basis, Debye-Ang):
   XX=           -244.8753   YY=           -133.3910   ZZ=           -120.6714
   XY=             12.1941   XZ=            -10.7309   YZ=              1.3252

 Summary of Natural Population Analysis:

                                       Natural Population
                Natural  -----------------------------------------------
    Atom  No    Charge         Core      Valence    Rydberg      Total
 -----------------------------------------------------------------------
      C    1   -0.30237      0.99967     2.29815    0.00455     3.30237
      C    2   -0.00927      0.99960     1.99584    0.01383     3.00927
      O    3   -0.30544      0.99988     3.29562    0.00994     4.30544
      C    4   -0.01176      0.99958     2.00098    0.01120     3.01176
      C    5   -0.19815      0.99962     2.19021    0.00831     3.19815
      C    6   -0.08810      0.99963     2.07876    0.00972     3.08810
      N    7   -0.34094      0.99973     2.82999    0.01123     3.84094
      C    8   -0.01482      0.99958     2.00301    0.01223     3.01482
      C    9   -0.28065      0.99964     2.27589    0.00511     3.28065
      C   10    0.04742      0.99949     1.94304    0.01004     2.95258
      C   11   -0.11628      0.99952     2.10864    0.00812     3.11628
      C   12   -0.05624      0.99955     2.04887    0.00783     3.05624
      C   13   -0.06359      0.99942     2.05347    0.01070     3.06359
      C   14   -0.05176      0.99955     2.04446    0.00775     3.05176
      C   15   -0.11829      0.99952     2.11075    0.00802     3.11829
      C   16    0.15027      0.99964     1.83192    0.01816     2.84973
      N   17   -0.17210      0.99979     2.66127    0.01104     3.67210
      H   18    0.09924      0.00000     0.39958    0.00118     0.40076
      H   19    0.10143      0.00000     0.39734    0.00124     0.39857
      H   20    0.09759      0.00000     0.40128    0.00112     0.40241
      H   21    0.08726      0.00000     0.41146    0.00128     0.41274
      H   22    0.07880      0.00000     0.41984    0.00136     0.42120
      H   23    0.08785      0.00000     0.41037    0.00178     0.41215
      H   24    0.07791      0.00000     0.42063    0.00146     0.42209
      H   25    0.09420      0.00000     0.40470    0.00110     0.40580
      H   26    0.09929      0.00000     0.39955    0.00116     0.40071
      H   27    0.07640      0.00000     0.42206    0.00153     0.42360
      H   28    0.09946      0.00000     0.39835    0.00219     0.40054
      H   29    0.17147      0.00000     0.32554    0.00298     0.32853
      H   30    0.07572      0.00000     0.42157    0.00271     0.42428
      H   31    0.10106      0.00000     0.39781    0.00113     0.39894
      H   32    0.10033      0.00000     0.39886    0.00081     0.39967
      H   33    0.09386      0.00000     0.40465    0.00149     0.40614
      H   34    0.09356      0.00000     0.40518    0.00125     0.40644
      H   35    0.09660      0.00000     0.40254    0.00086     0.40340
      H   36    0.09678      0.00000     0.40235    0.00087     0.40322
      H   37    0.10326      0.00000     0.39524    0.00149     0.39674
 =======================================================================
   * Total *    0.00000     16.99342    45.80978    0.19680    63.00000

 Normal termination of Gaussian 16 at Mon Dec 14 20:07:00 2020.
