 Gaussian 16, Revision A.03,

 -----------------------------------------------------------
 # opt freq B3LYP/6-31G(d) empiricaldispersion=gd3bj scf=xqc
 -----------------------------------------------------------

 ------------------------------
 CID_65332093_JID_4140_neutraal
 ------------------------------
 Symbolic Z-matrix:
 Charge =  0 Multiplicity = 1

 SCF Done:  E(RB3LYP) =  -601.118588083     A.U. after   13 cycles
 SCF Done:  E(RB3LYP) =  -601.121519523     A.U. after   11 cycles
 SCF Done:  E(RB3LYP) =  -601.120143369     A.U. after   12 cycles
 SCF Done:  E(RB3LYP) =  -601.121759854     A.U. after   11 cycles
 SCF Done:  E(RB3LYP) =  -601.122131176     A.U. after   11 cycles
 SCF Done:  E(RB3LYP) =  -601.122479996     A.U. after   11 cycles
 SCF Done:  E(RB3LYP) =  -601.122560893     A.U. after   10 cycles
 SCF Done:  E(RB3LYP) =  -601.122611527     A.U. after   10 cycles
 SCF Done:  E(RB3LYP) =  -601.122624792     A.U. after   10 cycles
 SCF Done:  E(RB3LYP) =  -601.122631007     A.U. after    9 cycles
 SCF Done:  E(RB3LYP) =  -601.122633113     A.U. after    9 cycles
 SCF Done:  E(RB3LYP) =  -601.122634397     A.U. after    9 cycles
 SCF Done:  E(RB3LYP) =  -601.122634808     A.U. after    7 cycles
 SCF Done:  E(RB3LYP) =  -601.122634895     A.U. after    7 cycles
 Optimization completed.
    -- Stationary point found.
 Normal termination of Gaussian 16 at Thu Dec 10 09:20:37 2020.

 --------------------------------------------------------------------
 #N Geom=AllCheck Guess=TCheck SCRF=Check GenChk RB3LYP/6-31G(d) Freq
 --------------------------------------------------------------------

 Structure from the checkpoint file:  "JID_4140.chk"
 ------------------------------
 CID_65332093_JID_4140_neutraal
 ------------------------------
 Charge =  0 Multiplicity = 1

 SCF Done:  E(RB3LYP) =  -601.122634895     A.U. after    1 cycles

  Exact polarizability: 145.293   2.290 154.812   0.868  -0.234 107.217
 Approx polarizability: 183.443   3.375 206.424   0.250  -1.246 162.082

                      1                      2                      3
                      A                      A                      A
 Frequencies --     35.5356                49.1548                62.8417
 Red. masses --      3.1852                 3.1873                 1.6739
 Frc consts  --      0.0024                 0.0045                 0.0039
 IR Inten    --      0.1222                 0.5263                 0.9977

                      4                      5                      6
                      A                      A                      A
 Frequencies --     67.7832                82.9089               126.8813
 Red. masses --      3.5611                 3.2408                 2.2763
 Frc consts  --      0.0096                 0.0131                 0.0216
 IR Inten    --      0.2088                 0.1838                 0.2329

                      7                      8                      9
                      A                      A                      A
 Frequencies --    129.8568               164.1408               220.0278
 Red. masses --      3.0715                 3.1418                 2.4107
 Frc consts  --      0.0305                 0.0499                 0.0688
 IR Inten    --      0.4619                 0.7105                 0.2386

                     10                     11                     12
                      A                      A                      A
 Frequencies --    225.3361               256.9038               265.7067
 Red. masses --      2.7084                 1.8133                 1.7151
 Frc consts  --      0.0810                 0.0705                 0.0713
 IR Inten    --      0.7987                 0.8733                 0.7523

                     13                     14                     15
                      A                      A                      A
 Frequencies --    277.0341               293.0585               342.8500
 Red. masses --      2.2346                 3.1063                 1.8808
 Frc consts  --      0.1010                 0.1572                 0.1303
 IR Inten    --      2.8994                 0.5656                 1.0827

                     16                     17                     18
                      A                      A                      A
 Frequencies --    369.8362               414.2944               440.0746
 Red. masses --      2.5021                 2.4311                 2.0301
 Frc consts  --      0.2016                 0.2459                 0.2316
 IR Inten    --      2.8894                 5.2176                 0.1328

                     19                     20                     21
                      A                      A                      A
 Frequencies --    459.0344               489.0769               532.4044
 Red. masses --      3.1749                 2.6839                 2.0448
 Frc consts  --      0.3942                 0.3782                 0.3415
 IR Inten    --      1.3071                 0.6383                 1.8852

                     22                     23                     24
                      A                      A                      A
 Frequencies --    577.8337               641.1620               678.0005
 Red. masses --      2.1754                 1.9533                 1.8806
 Frc consts  --      0.4280                 0.4731                 0.5093
 IR Inten    --      1.9536                13.5975                 5.7481

                     25                     26                     27
                      A                      A                      A
 Frequencies --    744.4820               817.9322               827.0191
 Red. masses --      1.7621                 1.5665                 1.4034
 Frc consts  --      0.5754                 0.6175                 0.5655
 IR Inten    --     52.0933                13.0541                 0.5415

                     28                     29                     30
                      A                      A                      A
 Frequencies --    845.8431               877.4628               885.9764
 Red. masses --      2.3656                 1.4447                 2.2483
 Frc consts  --      0.9972                 0.6554                 1.0398
 IR Inten    --      9.2987                 8.4817                27.7005

                     31                     32                     33
                      A                      A                      A
 Frequencies --    889.6764               922.8779               939.4478
 Red. masses --      2.4127                 1.6596                 1.7285
 Frc consts  --      1.1252                 0.8328                 0.8988
 IR Inten    --      2.5572                 1.4117                23.0898

                     34                     35                     36
                      A                      A                      A
 Frequencies --    941.0695               948.3095               980.6271
 Red. masses --      1.3906                 2.1790                 2.1192
 Frc consts  --      0.7256                 1.1546                 1.2007
 IR Inten    --     24.5859                10.4173                 3.8985

                     37                     38                     39
                      A                      A                      A
 Frequencies --    982.5800              1011.3389              1022.4458
 Red. masses --      1.7642                 2.1260                 1.8835
 Frc consts  --      1.0035                 1.2812                 1.1601
 IR Inten    --      3.6626                 7.3598                17.2941

                     40                     41                     42
                      A                      A                      A
 Frequencies --   1037.9727              1059.9041              1078.8572
 Red. masses --      1.1109                 1.8210                 2.3833
 Frc consts  --      0.7052                 1.2053                 1.6344
 IR Inten    --      7.5530                 4.2323                 2.8789

                     43                     44                     45
                      A                      A                      A
 Frequencies --   1098.0492              1105.1956              1134.0693
 Red. masses --      2.2950                 2.2197                 2.9485
 Frc consts  --      1.6303                 1.5974                 2.2342
 IR Inten    --      0.3481                 7.8168                76.6707

                     46                     47                     48
                      A                      A                      A
 Frequencies --   1141.0134              1151.1727              1162.2027
 Red. masses --      2.0773                 2.6064                 1.9059
 Frc consts  --      1.5934                 2.0350                 1.5167
 IR Inten    --     30.6760                61.1266                14.0585

                     49                     50                     51
                      A                      A                      A
 Frequencies --   1189.9170              1201.9796              1216.5896
 Red. masses --      1.9755                 2.1228                 1.3232
 Frc consts  --      1.6481                 1.8070                 1.1538
 IR Inten    --     11.6968                 1.5967                13.7178

                     52                     53                     54
                      A                      A                      A
 Frequencies --   1245.8050              1258.3026              1290.5282
 Red. masses --      1.4066                 1.4520                 1.2199
 Frc consts  --      1.2862                 1.3545                 1.1971
 IR Inten    --      3.6269                24.5311                 1.2318

                     55                     56                     57
                      A                      A                      A
 Frequencies --   1302.5889              1316.5145              1332.8007
 Red. masses --      1.2275                 1.1768                 1.4151
 Frc consts  --      1.2271                 1.2017                 1.4810
 IR Inten    --      0.7755                 3.6983                11.7621

                     58                     59                     60
                      A                      A                      A
 Frequencies --   1341.3313              1346.9435              1353.9070
 Red. masses --      1.1972                 1.2627                 1.2441
 Frc consts  --      1.2691                 1.3497                 1.3437
 IR Inten    --      2.9250                 0.4668                 4.5387

                     61                     62                     63
                      A                      A                      A
 Frequencies --   1364.0372              1368.6004              1383.1272
 Red. masses --      1.2917                 1.3005                 1.2800
 Frc consts  --      1.4160                 1.4353                 1.4428
 IR Inten    --     15.4696                 1.7908                 9.2775

                     64                     65                     66
                      A                      A                      A
 Frequencies --   1393.8420              1397.0770              1417.6624
 Red. masses --      1.3674                 1.4144                 1.3805
 Frc consts  --      1.5652                 1.6265                 1.6346
 IR Inten    --      8.1675                 1.7854                 2.6075

                     67                     68                     69
                      A                      A                      A
 Frequencies --   1420.5973              1426.6906              1440.7861
 Red. masses --      1.3331                 1.3100                 1.3479
 Frc consts  --      1.5851                 1.5711                 1.6485
 IR Inten    --      5.0839                 9.7178                 9.4860

                     70                     71                     72
                      A                      A                      A
 Frequencies --   1446.1578              1476.7193              1507.9557
 Red. masses --      1.3645                 1.1858                 1.1398
 Frc consts  --      1.6813                 1.5236                 1.5271
 IR Inten    --      5.7940                 1.4694                17.3373

                     73                     74                     75
                      A                      A                      A
 Frequencies --   1508.8145              1517.6148              1519.3308
 Red. masses --      1.0918                 1.0838                 1.0795
 Frc consts  --      1.4644                 1.4707                 1.4682
 IR Inten    --      4.2431                 7.3277                13.9660

                     76                     77                     78
                      A                      A                      A
 Frequencies --   1521.9592              1527.8894              1529.4939
 Red. masses --      1.0949                 1.0616                 1.0727
 Frc consts  --      1.4943                 1.4601                 1.4785
 IR Inten    --      0.5815                 6.7695                 4.6502

                     79                     80                     81
                      A                      A                      A
 Frequencies --   1533.2733              1547.9697              1552.4200
 Red. masses --      1.1303                 1.0963                 1.0893
 Frc consts  --      1.5656                 1.5477                 1.5467
 IR Inten    --     19.1793                 3.9241                 4.0968

                     82                     83                     84
                      A                      A                      A
 Frequencies --   1732.5683              2951.0758              2972.6794
 Red. masses --      4.4411                 1.0731                 1.0720
 Frc consts  --      7.8545                 5.5060                 5.5815
 IR Inten    --      6.0279                73.2554                59.4435

                     85                     86                     87
                      A                      A                      A
 Frequencies --   3009.2459              3011.2505              3017.4628
 Red. masses --      1.0699                 1.0697                 1.0813
 Frc consts  --      5.7081                 5.7149                 5.8005
 IR Inten    --     14.3147                46.1081                 8.7705

                     88                     89                     90
                      A                      A                      A
 Frequencies --   3033.4906              3038.0763              3040.7738
 Red. masses --      1.0658                 1.0761                 1.0621
 Frc consts  --      5.7782                 5.8520                 5.7863
 IR Inten    --      8.1245                46.6187                28.8688

                     91                     92                     93
                      A                      A                      A
 Frequencies --   3046.0067              3046.9191              3057.1852
 Red. masses --      1.0423                 1.0651                 1.0828
 Frc consts  --      5.6977                 5.8258                 5.9625
 IR Inten    --     23.6096                30.2172                32.8744

                     94                     95                     96
                      A                      A                      A
 Frequencies --   3070.8856              3073.1744              3082.1382
 Red. masses --      1.0954                 1.1006                 1.0995
 Frc consts  --      6.0862                 6.1243                 6.1539
 IR Inten    --     30.4669                35.8483                49.2095

                     97                     98                     99
                      A                      A                      A
 Frequencies --   3086.4501              3105.2294              3111.0342
 Red. masses --      1.1036                 1.0930                 1.0991
 Frc consts  --      6.1941                 6.2095                 6.2674
 IR Inten    --     70.9649                56.9067                44.7183

                    100                    101                    102
                      A                      A                      A
 Frequencies --   3130.2468              3133.3992              3153.2188
 Red. masses --      1.0921                 1.1032                 1.0593
 Frc consts  --      6.3048                 6.3819                 6.2053
 IR Inten    --     42.0760                32.2314                14.3839

                    103                    104                    105
                      A                      A                      A
 Frequencies --   3173.8114              3235.3542              3482.0472
 Red. masses --      1.0905                 1.1151                 1.0730
 Frc consts  --      6.4719                 6.8771                 7.6654
 IR Inten    --      7.3312                20.8781                 1.8073

 - Thermochemistry -
 -------------------
 Temperature   298.150 Kelvin.  Pressure   1.00000 Atm.
 Atom     1 has atomic number  6 and mass  12.00000

 Molecular mass:   197.17796 amu.
 Principal axes and moments of inertia in atomic units:
                           1         2         3
     Eigenvalues --  3027.075523389.003945508.71981
           X            0.99957  -0.02715   0.01097
           Y            0.02723   0.99961  -0.00665
           Z           -0.01079   0.00695   0.99992
 This molecule is an asymmetric top.
 Rotational symmetry number  1.
 Warning -- assumption of classical behavior for rotation
           may cause significant error
 Rotational temperatures (Kelvin)      0.02861     0.02556     0.01572
 Rotational constants (GHZ):           0.59620     0.53253     0.32762
 Zero-point vibrational energy     896004.3 (Joules/Mol)
                                  214.15016 (Kcal/Mol)
 Warning -- explicit consideration of  22 degrees of freedom as
           vibrations may cause significant error
 Vibrational temperatures:     51.13    70.72    90.42    97.52   119.29
          (Kelvin)            182.55   186.83   236.16   316.57   324.21
                              369.63   382.29   398.59   421.65   493.28
                              532.11   596.08   633.17   660.45   703.67
                              766.01   831.37   922.49   975.49  1071.14
                             1176.82  1189.90  1216.98  1262.47  1274.72
                             1280.05  1327.82  1351.66  1353.99  1364.41
                             1410.90  1413.71  1455.09  1471.07  1493.41
                             1524.97  1552.23  1579.85  1590.13  1631.67
                             1641.66  1656.28  1672.15  1712.03  1729.38
                             1750.40  1792.44  1810.42  1856.78  1874.13
                             1894.17  1917.60  1929.88  1937.95  1947.97
                             1962.55  1969.11  1990.01  2005.43  2010.08
                             2039.70  2043.92  2052.69  2072.97  2080.70
                             2124.67  2169.61  2170.85  2183.51  2185.98
                             2189.76  2198.29  2200.60  2206.04  2227.18
                             2233.59  2492.78  4245.94  4277.02  4329.63
                             4332.52  4341.46  4364.52  4371.11  4375.00
                             4382.52  4383.84  4398.61  4418.32  4421.61
                             4434.51  4440.71  4467.73  4476.08  4503.73
                             4508.26  4536.78  4566.41  4654.95  5009.89

 Zero-point correction=                           0.341270 (Hartree/Particle)
 Thermal correction to Energy=                    0.356740
 Thermal correction to Enthalpy=                  0.357684
 Thermal correction to Gibbs Free Energy=         0.297766
 Sum of electronic and zero-point Energies=           -600.781365
 Sum of electronic and thermal Energies=              -600.765895
 Sum of electronic and thermal Enthalpies=            -600.764951
 Sum of electronic and thermal Free Energies=         -600.824869

                     E (Thermal)             CV                S
                      KCal/Mol        Cal/Mol-Kelvin    Cal/Mol-Kelvin
 Total                  223.858             58.361            126.109
 Electronic               0.000              0.000              0.000
 Translational            0.889              2.981             41.742
 Rotational               0.889              2.981             32.402
 Vibrational            222.080             52.400             51.965
 Vibration     1          0.594              1.982              5.494
 Vibration     2          0.595              1.978              4.851
 Vibration     3          0.597              1.972              4.366
 Vibration     4          0.598              1.970              4.217
 Vibration     5          0.600              1.961              3.821
 Vibration     6          0.611              1.926              2.993
 Vibration     7          0.612              1.923              2.948
 Vibration     8          0.623              1.886              2.502
 Vibration     9          0.647              1.811              1.959
 Vibration    10          0.650              1.802              1.916
 Vibration    11          0.666              1.751              1.683
 Vibration    12          0.672              1.736              1.624
 Vibration    13          0.678              1.716              1.552
 Vibration    14          0.688              1.687              1.456
 Vibration    15          0.722              1.590              1.199
 Vibration    16          0.742              1.534              1.080
 Vibration    17          0.778              1.439              0.912
 Vibration    18          0.800              1.383              0.826
 Vibration    19          0.817              1.341              0.769
 Vibration    20          0.845              1.274              0.686
 Vibration    21          0.887              1.178              0.582
 Vibration    22          0.934              1.079              0.489

 Optimization completed.
    -- Stationary point found.
 Normal termination of Gaussian 16 at Thu Dec 10 09:31:50 2020.

 ----------------------------------------------------------------------
 # B3LYP/6-311++G(d,p) empiricaldispersion=gd3bj scf=xqc pop=npa geom=c
 heck
 ----------------------------------------------------------------------

 --------------------------------------
 CID_65332093_JID_4140_Energie_neutraal
 --------------------------------------
 Structure from the checkpoint file:  "JID_4140.chk"
 Charge =  0 Multiplicity = 1

 SCF Done:  E(RB3LYP) =  -601.296086127     A.U. after   14 cycles
 Normal termination of Gaussian 16 at Thu Dec 10 09:36:45 2020.

 ----------------------------------------------------------------------
 # B3LYP/6-311++G(d,p) empiricaldispersion=gd3bj scf=xqc pop=npa geom=c
 heck
 ----------------------------------------------------------------------

 ------------------------------------
 CID_65332093_JID_4140_Energie_kation
 ------------------------------------
 Structure from the checkpoint file:  "JID_4140.chk"
 Charge =  1 Multiplicity = 2

 SCF Done:  E(UB3LYP) =  -601.000267199     A.U. after   25 cycles
 Normal termination of Gaussian 16 at Thu Dec 10 09:48:20 2020.
 Gaussian 16:  ES64L-G16RevA.03 25-Dec-2016

 ----------------------------------------------------------------------
 # B3LYP/6-311++G(d,p) empiricaldispersion=gd3bj scf=xqc pop=npa geom=c
 heck
 ----------------------------------------------------------------------

 -----------------------------------
 CID_65332093_JID_4140_Energie_anion
 -----------------------------------
 Structure from the checkpoint file:  "JID_4140.chk"
 Charge = -1 Multiplicity = 2

                         Standard orientation:
 ---------------------------------------------------------------------
 Center     Atomic      Atomic             Coordinates (Angstroms)
 Number     Number       Type             X           Y           Z
 ---------------------------------------------------------------------
      1          6           0       -2.657697    3.197512   -0.901541
      2          6           0       -2.337802    2.166694    0.177160
      3          7           0       -1.150109    1.399907   -0.189340
      4          6           0       -0.698428    0.414176    0.800985
      5          6           0       -1.644556   -0.796088    0.995284
      6          6           0       -1.812452   -1.771506   -0.194706
      7          6           0       -0.844247   -2.924742   -0.188337
      8          6           0       -1.205625   -4.206424   -0.124071
      9          6           0        0.783480    0.044205    0.542644
     10          6           0        1.727696    1.113708    1.119771
     11          6           0        3.194145    0.771776    0.828881
     12          6           0        3.387524    0.480496   -0.658663
     13          8           0        2.497060   -0.531680   -1.108889
     14          6           0        1.139158   -0.143149   -0.941828
     15          1           0       -1.799014    3.855707   -1.067138
     16          1           0       -3.521903    3.807357   -0.616941
     17          1           0       -2.896616    2.707697   -1.854140
     18          1           0       -2.119162    2.676609    1.124314
     19          1           0       -3.230734    1.541131    0.359932
     20          1           0       -1.314834    0.942703   -1.085009
     21          1           0       -0.713881    0.946328    1.762683
     22          1           0       -1.312304   -1.363312    1.874111
     23          1           0       -2.632635   -0.396686    1.253633
     24          1           0       -2.830036   -2.179526   -0.182410
     25          1           0       -1.729958   -1.212916   -1.139863
     26          1           0        0.216812   -2.683024   -0.220802
     27          1           0       -0.472222   -5.007978   -0.109445
     28          1           0       -2.252079   -4.503434   -0.085398
     29          1           0        0.993538   -0.905919    1.052572
     30          1           0        1.465970    2.080360    0.667993
     31          1           0        1.566882    1.211839    2.201075
     32          1           0        3.857386    1.589891    1.137932
     33          1           0        3.484835   -0.119312    1.400553
     34          1           0        3.228620    1.402691   -1.245362
     35          1           0        4.396465    0.113028   -0.869255
     36          1           0        0.549938   -0.929575   -1.418514
     37          1           0        0.952041    0.800486   -1.477503
 ---------------------------------------------------------------------

 SCF Done:  E(UB3LYP) =  -601.280638978     A.U. after   33 cycles
 SCF Done:  E(UB3LYP) =  -601.280638977     a.u. after    1 cycles

 The electronic state is 2-A.
 Alpha  occ. eigenvalues --  -19.02929 -14.19668 -10.12081 -10.11570 -10.10188
 Alpha  occ. eigenvalues --  -10.08963 -10.08596 -10.07889 -10.07557 -10.07451
 Alpha  occ. eigenvalues --  -10.07242 -10.07032 -10.06782 -10.05820  -0.94357
 Alpha  occ. eigenvalues --   -0.81201  -0.71821  -0.70535  -0.67807  -0.65121
 Alpha  occ. eigenvalues --   -0.63004  -0.58224  -0.55069  -0.53767  -0.50985
 Alpha  occ. eigenvalues --   -0.48830  -0.46702  -0.46212  -0.40693  -0.39338
 Alpha  occ. eigenvalues --   -0.38332  -0.37640  -0.36613  -0.35753  -0.34808
 Alpha  occ. eigenvalues --   -0.33997  -0.33488  -0.32603  -0.30843  -0.30252
 Alpha  occ. eigenvalues --   -0.28866  -0.28390  -0.27557  -0.27000  -0.26641
 Alpha  occ. eigenvalues --   -0.25256  -0.25113  -0.24449  -0.23934  -0.23102
 Alpha  occ. eigenvalues --   -0.21505  -0.21077  -0.17324  -0.16081  -0.12674
 Alpha  occ. eigenvalues --    0.04419
 Alpha virt. eigenvalues --    0.06070   0.06871   0.07168   0.08052   0.08284
 Alpha virt. eigenvalues --    0.08523   0.08832   0.09057   0.09882   0.10111
 Alpha virt. eigenvalues --    0.11002   0.11343   0.11505   0.11933   0.12037

  Beta  occ. eigenvalues --  -19.02927 -14.19655 -10.12069 -10.11565 -10.10180
  Beta  occ. eigenvalues --  -10.08934 -10.08592 -10.07866 -10.07556 -10.07434
  Beta  occ. eigenvalues --  -10.07225 -10.07018 -10.06769 -10.05785  -0.94351
  Beta  occ. eigenvalues --   -0.81175  -0.71795  -0.70511  -0.67781  -0.65093
  Beta  occ. eigenvalues --   -0.62957  -0.58187  -0.55038  -0.53729  -0.50893
  Beta  occ. eigenvalues --   -0.48791  -0.46675  -0.46163  -0.40662  -0.39303
  Beta  occ. eigenvalues --   -0.38310  -0.37611  -0.36582  -0.35724  -0.34775
  Beta  occ. eigenvalues --   -0.33971  -0.33461  -0.32566  -0.30812  -0.30213
  Beta  occ. eigenvalues --   -0.28837  -0.28362  -0.27526  -0.26962  -0.26586
  Beta  occ. eigenvalues --   -0.25227  -0.25080  -0.24412  -0.23907  -0.23079
  Beta  occ. eigenvalues --   -0.21481  -0.21059  -0.17281  -0.16064  -0.12648
  Beta virt. eigenvalues --    0.06447   0.07008   0.07249   0.07682   0.08294
  Beta virt. eigenvalues --    0.08549   0.08980   0.09228   0.09373   0.10150
  Beta virt. eigenvalues --    0.10522   0.11333   0.11656   0.11920   0.12092

 Mulliken charges and spin densities:
               1          2
     1  C    1.040584  -1.621852
     2  C    0.206725  -0.301872
     3  N   -0.027739   0.124204
     4  C    0.574673  -0.757084
     5  C    0.071021  -0.649284
     6  C   -0.061381  -0.278165
     7  C   -0.685989   1.048084
     8  C    0.798935  -1.457329
     9  C   -0.530481   1.179682
    10  C   -0.302629  -0.155338
    11  C   -0.015529  -0.409485
    12  C    0.208485  -0.454357
    13  O   -0.110751   0.025900
    14  C   -0.601303  -0.399462
    15  H   -0.070196   0.219860
    16  H   -0.290593   0.424720
    17  H   -0.362178   0.491325
    18  H   -0.321063   0.451538
    19  H   -0.199891   0.325224
    20  H    0.458733  -0.287491
    21  H    0.226676  -0.007258
    22  H   -0.029644   0.167755
    23  H   -0.207025   0.389480
    24  H   -0.421553   0.605245
    25  H   -0.297868   0.433772
    26  H    0.042899   0.165008
    27  H    0.074840   0.036043
    28  H   -0.050722   0.167153
    29  H    0.205421  -0.020379
    30  H    0.268310  -0.080845
    31  H   -0.347159   0.484017
    32  H   -0.500441   0.666931
    33  H    0.130980   0.003216
    34  H    0.100090   0.004669
    35  H   -0.124629   0.303345
    36  H    0.317035  -0.184899
    37  H   -0.166642   0.347931
 Sum of Mulliken charges =  -1.00000   1.00000

 Dipole moment (field-independent basis, Debye):
    X=              3.5710    Y=             -3.1381    Z=             -0.1016  Tot=              4.7550
 Quadrupole moment (field-independent basis, Debye-Ang):
   XX=           -168.6562   YY=           -147.2481   ZZ=           -126.1671
   XY=              2.7452   XZ=             -4.4890   YZ=             -3.7516

 Summary of Natural Population Analysis:

                                       Natural Population
                Natural  -----------------------------------------------
    Atom  No    Charge         Core      Valence    Rydberg      Total
 -----------------------------------------------------------------------
      C    1   -0.28450      0.99967     2.28033    0.00450     3.28450
      C    2   -0.08433      0.99964     2.07451    0.01019     3.08433
      N    3   -0.34661      0.99973     2.83536    0.01152     3.84661
      C    4   -0.00305      0.99957     1.98976    0.01372     3.00305
      C    5   -0.19305      0.99960     2.18402    0.00944     3.19305
      C    6   -0.21459      0.99960     2.20356    0.01142     3.21459
      C    7   -0.08006      0.99956     2.07057    0.00993     3.08006
      C    8   -0.19422      0.99956     2.18840    0.00626     3.19422
      C    9   -0.12587      0.99957     2.11480    0.01150     3.12587
      C   10   -0.18948      0.99961     2.17985    0.01002     3.18948
      C   11   -0.20337      0.99963     2.19534    0.00841     3.20337
      C   12   -0.00905      0.99958     1.99622    0.01325     3.00905
      O   13   -0.30100      0.99989     3.29234    0.00877     4.30100
      C   14   -0.01303      0.99954     2.00219    0.01130     3.01303
      H   15    0.09851      0.00000     0.40010    0.00139     0.40149
      H   16    0.10003      0.00000     0.39867    0.00130     0.39997
      H   17    0.09529      0.00000     0.40317    0.00154     0.40471
      H   18    0.08959      0.00000     0.40881    0.00160     0.41041
      H   19    0.07997      0.00000     0.41764    0.00239     0.42003
      H   20    0.16988      0.00000     0.32657    0.00355     0.33012
      H   21    0.09504      0.00000     0.40264    0.00233     0.40496
      H   22    0.09823      0.00000     0.40052    0.00125     0.40177
      H   23    0.10387      0.00000     0.39461    0.00152     0.39613
      H   24    0.10338      0.00000     0.39508    0.00154     0.39662
      H   25    0.09885      0.00000     0.39915    0.00201     0.40115
      H   26    0.09300      0.00000     0.40507    0.00193     0.40700
      H   27    0.09122      0.00000     0.40790    0.00088     0.40878
      H   28    0.09010      0.00000     0.40872    0.00118     0.40990
      H   29    0.09684      0.00000     0.40099    0.00217     0.40316
      H   30    0.10213      0.00000     0.39615    0.00172     0.39787
      H   31    0.09957      0.00000     0.39929    0.00114     0.40043
      H   32    0.10128      0.00000     0.39723    0.00149     0.39872
      H   33    0.09465      0.00000     0.40415    0.00120     0.40535
      H   34    0.07593      0.00000     0.42272    0.00135     0.42407
      H   35    0.08943      0.00000     0.40946    0.00111     0.41057
      H   36    0.09071      0.00000     0.40736    0.00193     0.40929
      H   37    0.08472      0.00000     0.41351    0.00178     0.41528
 =======================================================================
   * Total *    0.00000     13.99474    40.82675    0.17852    55.00000

 Normal termination of Gaussian 16 at Thu Dec 10 10:03:30 2020.
