 Gaussian 16, Revision A.03,

 -----------------------------------------------------------
 # opt freq B3LYP/6-31G(d) empiricaldispersion=gd3bj scf=xqc
 -----------------------------------------------------------

 ------------------------------
 CID_18364358_JID_3909_neutraal
 ------------------------------
 Symbolic Z-matrix:
 Charge =  0 Multiplicity = 1

 SCF Done:  E(RB3LYP) =  -652.143580546     A.U. after   33 cycles
 SCF Done:  E(RB3LYP) =  -652.143581395     a.u. after    2 cycles
 SCF Done:  E(RB3LYP) =  -652.166081923     A.U. after   24 cycles
 SCF Done:  E(RB3LYP) =  -652.167007704     A.U. after   22 cycles
 SCF Done:  E(RB3LYP) =  -652.161861865     A.U. after   33 cycles
 SCF Done:  E(RB3LYP) =  -652.179765567     a.u. after    4 cycles
 SCF Done:  E(RB3LYP) =  -652.174027685     A.U. after   29 cycles
 SCF Done:  E(RB3LYP) =  -652.187854221     A.U. after   25 cycles
 SCF Done:  E(RB3LYP) =  -652.196969024     A.U. after   24 cycles
 SCF Done:  E(RB3LYP) =  -652.200924800     A.U. after   21 cycles
 SCF Done:  E(RB3LYP) =  -652.344838118     A.U. after    9 cycles
 SCF Done:  E(RB3LYP) =  -652.344838248     A.U. after    8 cycles
 SCF Done:  E(RB3LYP) =  -652.344838371     A.U. after    8 cycles
 SCF Done:  E(RB3LYP) =  -652.344838527     A.U. after    8 cycles
 SCF Done:  E(RB3LYP) =  -652.344838608     A.U. after    8 cycles
 SCF Done:  E(RB3LYP) =  -652.344838611     A.U. after    7 cycles
 Optimization completed.
    -- Stationary point found.

 1\1\GINC-NODE106\FOpt\RB3LYP\6-31G(d)\C9H14O4\VSC10255\10-Dec-2020\0\\
 # opt freq B3LYP/6-31G(d) empiricaldispersion=gd3bj scf=xqc\\CID_18364
 358_JID_3909_neutraal\\0,1\C,1.6666326311,-1.0189885577,-0.0216842949\
 C,0.6958947605,-1.9754630611,0.644778615\C,-0.4792524559,-1.4990687983
 ,1.5135095702\C,-0.7521418629,-0.0332140366,1.7790926877\C,0.126878879
 5,0.5998880036,2.8571807792\O,-0.1270101176,1.6566398402,3.3866413588\
 O,1.2494083935,-0.0781590705,3.1901796151\C,-0.7316375254,-2.167234563
 1,0.1759514516\C,-1.2698725373,-1.3663415016,-0.9966710186\C,-1.284651

 Normal termination of Gaussian 16 at Thu Dec 10 01:36:09 2020.

 --------------------------------------------------------------------
 #N Geom=AllCheck Guess=TCheck SCRF=Check GenChk RB3LYP/6-31G(d) Freq
 --------------------------------------------------------------------

 Structure from the checkpoint file:  "JID_3909.chk"
 ------------------------------
 CID_18364358_JID_3909_neutraal
 ------------------------------
 Charge =  0 Multiplicity = 1

 SCF Done:  E(RB3LYP) =  -652.344838611     A.U. after    1 cycles

  Exact polarizability: 119.346  -8.266  98.664  -3.862   2.626  82.602
 Approx polarizability: 166.267 -12.625 145.140 -11.247   5.423 122.729

                      1                      2                      3
                      A                      A                      A
 Frequencies --     12.6934                16.6738                38.0219
 Red. masses --     10.6036                 4.6724                 5.2324
 Frc consts  --      0.0010                 0.0008                 0.0045
 IR Inten    --      0.0194                 0.0850                 2.2229

                      4                      5                      6
                      A                      A                      A
 Frequencies --     58.3126                82.7840                91.4535
 Red. masses --      7.0981                 3.3086                 9.6976
 Frc consts  --      0.0142                 0.0134                 0.0478
 IR Inten    --      5.1999                 0.5964                 1.2340

                      7                      8                      9
                      A                      A                      A
 Frequencies --    120.1512               129.8247               154.3724
 Red. masses --      5.9038                 3.9622                 1.2619
 Frc consts  --      0.0502                 0.0393                 0.0177
 IR Inten    --      1.5460                 3.4660                 0.1852

                     10                     11                     12
                      A                      A                      A
 Frequencies --    170.2602               202.9740               228.9608
 Red. masses --      1.4242                 1.5877                 1.5494
 Frc consts  --      0.0243                 0.0385                 0.0479
 IR Inten    --      1.3724                 0.1949                 0.7745

                     13                     14                     15
                      A                      A                      A
 Frequencies --    238.4773               271.4782               294.6650
 Red. masses --      2.7729                 1.7855                 2.3289
 Frc consts  --      0.0929                 0.0775                 0.1191
 IR Inten    --      3.8569                 0.0444                 0.4931

                     16                     17                     18
                      A                      A                      A
 Frequencies --    363.2857               415.4699               467.0905
 Red. masses --      2.7240                 3.4525                 2.9568
 Frc consts  --      0.2118                 0.3511                 0.3801
 IR Inten    --      2.1124                 1.9249                 4.6622

                     19                     20                     21
                      A                      A                      A
 Frequencies --    481.8157               511.6365               598.8865
 Red. masses --      2.5055                 2.0801                 2.8084
 Frc consts  --      0.3427                 0.3208                 0.5935
 IR Inten    --      2.8981                 8.7568                34.5880

                     22                     23                     24
                      A                      A                      A
 Frequencies --    620.0619               633.9109               644.9303
 Red. masses --     12.6100                 2.0868                12.8091
 Frc consts  --      2.8565                 0.4941                 3.1390
 IR Inten    --     77.6501                33.0480                28.4581

                     25                     26                     27
                      A                      A                      A
 Frequencies --    666.2412               696.8241               776.7614
 Red. masses --      1.8985                 3.4263                 2.6026
 Frc consts  --      0.4965                 0.9802                 0.9252
 IR Inten    --     11.6246                 3.6384                 5.7658

                     28                     29                     30
                      A                      A                      A
 Frequencies --    843.8253               874.1955               941.2667
 Red. masses --      3.1460                 5.3702                 1.4502
 Frc consts  --      1.3198                 2.4180                 0.7570
 IR Inten    --      4.2262                16.2342                 3.6425

                     31                     32                     33
                      A                      A                      A
 Frequencies --    979.5981               994.2936              1010.6184
 Red. masses --      1.4205                 1.5345                 1.4720
 Frc consts  --      0.8031                 0.8938                 0.8858
 IR Inten    --      1.6099                 3.8170                 2.5028

                     34                     35                     36
                      A                      A                      A
 Frequencies --   1023.8213              1060.2838              1092.7498
 Red. masses --      1.7834                 1.6124                 1.3708
 Frc consts  --      1.1014                 1.0680                 0.9644
 IR Inten    --      1.8689                 2.9974                 1.0650

                     37                     38                     39
                      A                      A                      A
 Frequencies --   1140.6161              1155.4651              1177.1915
 Red. masses --      1.7568                 1.6672                 2.2471
 Frc consts  --      1.3466                 1.3114                 1.8347
 IR Inten    --      5.0624                 4.6400                 0.5954

                     40                     41                     42
                      A                      A                      A
 Frequencies --   1186.8041              1223.8906              1240.6477
 Red. masses --      1.8445                 2.2690                 1.4467
 Frc consts  --      1.5307                 2.0025                 1.3120
 IR Inten    --      8.3514                14.3887                 1.9152

                     43                     44                     45
                      A                      A                      A
 Frequencies --   1288.6407              1333.2010              1351.8208
 Red. masses --      1.7539                 1.3485                 1.9161
 Frc consts  --      1.7160                 1.4122                 2.0630
 IR Inten    --      3.3848                 0.9182                15.0888

                     46                     47                     48
                      A                      A                      A
 Frequencies --   1369.2493              1371.3384              1409.7391
 Red. masses --      1.9591                15.2964                 1.4301
 Frc consts  --      2.1641                16.9484                 1.6745
 IR Inten    --    321.6399                 4.6145                 4.8623

                     49                     50                     51
                      A                      A                      A
 Frequencies --   1440.7444              1449.6655              1458.2714
 Red. masses --      1.3119                 1.2931                 1.3065
 Frc consts  --      1.6045                 1.6011                 1.6369
 IR Inten    --      2.4831                 1.2859                 2.6802

                     52                     53                     54
                      A                      A                      A
 Frequencies --   1477.1166              1492.4494              1512.8156
 Red. masses --      1.9415                 1.0931                 1.0451
 Frc consts  --      2.4958                 1.4345                 1.4092
 IR Inten    --      3.9998                 7.3155                 0.7106

                     55                     56                     57
                      A                      A                      A
 Frequencies --   1519.6773              1526.8637              1531.2405
 Red. masses --      1.0498                 1.0470                 1.0469
 Frc consts  --      1.4284                 1.4381                 1.4462
 IR Inten    --      2.1323                 2.4392                12.8630

                     58                     59                     60
                      A                      A                      A
 Frequencies --   1538.1333              1549.7901              1862.5870
 Red. masses --      1.0460                 1.1577                 9.8078
 Frc consts  --      1.4580                 1.6383                20.0472
 IR Inten    --      9.9782                 3.1596               402.8187

                     61                     62                     63
                      A                      A                      A
 Frequencies --   2434.6972              3038.3252              3049.8018
 Red. masses --     12.8633                 1.0354                 1.0388
 Frc consts  --     44.9254                 5.6316                 5.6926
 IR Inten    --    555.3682                32.1137                36.3619

                     64                     65                     66
                      A                      A                      A
 Frequencies --   3054.3289              3085.8118              3099.6198
 Red. masses --      1.0397                 1.0646                 1.1025
 Frc consts  --      5.7149                 5.9728                 6.2406
 IR Inten    --     19.4334                 3.3326                 8.5561

                     67                     68                     69
                      A                      A                      A
 Frequencies --   3104.6218              3108.1874              3112.0384
 Red. masses --      1.1019                 1.1018                 1.1018
 Frc consts  --      6.2574                 6.2712                 6.2869
 IR Inten    --     34.0698                26.9765                25.8685

                     70                     71                     72
                      A                      A                      A
 Frequencies --   3120.3108              3126.7761              3134.7246
 Red. masses --      1.0891                 1.0932                 1.0936
 Frc consts  --      6.2478                 6.2974                 6.3317
 IR Inten    --      0.6450                 5.7258                12.6374

                     73                     74                     75
                      A                      A                      A
 Frequencies --   3139.3908              3151.1958              3677.4816
 Red. masses --      1.0957                 1.0956                 1.0649
 Frc consts  --      6.3625                 6.4098                 8.4854
 IR Inten    --     24.7516                47.3223               139.1058

 - Thermochemistry -
 -------------------
 Temperature   298.150 Kelvin.  Pressure   1.00000 Atm.
 Atom     1 has atomic number  6 and mass  12.00000

 Molecular mass:   186.08921 amu.
 Principal axes and moments of inertia in atomic units:
                           1         2         3
     Eigenvalues --  1472.198944935.203995690.67770
           X            0.99992  -0.01256   0.00250
           Y            0.01252   0.99978   0.01678
           Z           -0.00271  -0.01675   0.99986
 This molecule is an asymmetric top.
 Rotational symmetry number  1.
 Warning -- assumption of classical behavior for rotation
           may cause significant error
 Rotational temperatures (Kelvin)      0.05883     0.01755     0.01522
 Rotational constants (GHZ):           1.22588     0.36569     0.31714
 Zero-point vibrational energy     585296.5 (Joules/Mol)
                                  139.88923 (Kcal/Mol)
 Warning -- explicit consideration of  22 degrees of freedom as
           vibrations may cause significant error
 Vibrational temperatures:     18.26    23.99    54.71    83.90   119.11
          (Kelvin)            131.58   172.87   186.79   222.11   244.97
                              292.03   329.42   343.12   390.60   423.96
                              522.69   597.77   672.04   693.23   736.13
                              861.66   892.13   912.06   927.91   958.57
                             1002.57  1117.59  1214.08  1257.77  1354.27
                             1409.42  1430.57  1454.05  1473.05  1525.51
                             1572.22  1641.09  1662.46  1693.72  1707.55
                             1760.91  1785.02  1854.07  1918.18  1944.97
                             1970.04  1973.05  2028.30  2072.91  2085.75
                             2098.13  2125.24  2147.30  2176.60  2186.48
                             2196.82  2203.11  2213.03  2229.80  2679.85
                             3502.99  4371.47  4387.98  4394.50  4439.79
                             4459.66  4466.86  4471.99  4477.53  4489.43
                             4498.73  4510.17  4516.88  4533.87  5291.08

 Zero-point correction=                           0.222928 (Hartree/Particle)
 Thermal correction to Energy=                    0.238710
 Thermal correction to Enthalpy=                  0.239654
 Thermal correction to Gibbs Free Energy=         0.176192
 Sum of electronic and zero-point Energies=           -652.121911
 Sum of electronic and thermal Energies=              -652.106128
 Sum of electronic and thermal Enthalpies=            -652.105184
 Sum of electronic and thermal Free Energies=         -652.168646

                     E (Thermal)             CV                S
                      KCal/Mol        Cal/Mol-Kelvin    Cal/Mol-Kelvin
 Total                  149.793             53.983            133.567
 Electronic               0.000              0.000              0.000
 Translational            0.889              2.981             41.569
 Rotational               0.889              2.981             32.092
 Vibrational            148.015             48.022             59.906
 Vibration     1          0.593              1.987              7.537
 Vibration     2          0.593              1.986              6.995
 Vibration     3          0.594              1.982              5.360
 Vibration     4          0.596              1.974              4.513
 Vibration     5          0.600              1.961              3.824
 Vibration     6          0.602              1.955              3.629
 Vibration     7          0.609              1.932              3.098
 Vibration     8          0.612              1.923              2.949
 Vibration     9          0.620              1.898              2.618
 Vibration    10          0.625              1.879              2.433
 Vibration    11          0.639              1.836              2.106
 Vibration    12          0.652              1.797              1.887
 Vibration    13          0.656              1.782              1.814
 Vibration    14          0.675              1.726              1.587
 Vibration    15          0.689              1.684              1.447
 Vibration    16          0.737              1.548              1.108
 Vibration    17          0.779              1.437              0.907
 Vibration    18          0.824              1.323              0.746
 Vibration    19          0.838              1.290              0.705
 Vibration    20          0.867              1.224              0.630
 Vibration    21          0.957              1.034              0.452
 Vibration    22          0.980              0.990              0.416

                           ! Non-Optimized Parameters !

 1\1\GINC-NODE106\Freq\RB3LYP\6-31G(d)\C9H14O4\VSC10255\10-Dec-2020\0\\
 #N Geom=AllCheck Guess=TCheck SCRF=Check GenChk RB3LYP/6-31G(d) Freq\\
 CID_18364358_JID_3909_neutraal\\0,1\C,1.6666326311,-1.0189885577,-0.02
 16842949\C,0.6958947605,-1.9754630611,0.644778615\C,-0.4792524559,-1.4
 990687983,1.5135095702\C,-0.7521418629,-0.0332140366,1.7790926877\C,0.
 1268788795,0.5998880036,2.8571807792\O,-0.1270101176,1.6566398402,3.38
 66413588\O,1.2494083935,-0.0781590705,3.1901796151\C,-0.7316375254,-2.
 1672345631,0.1759514516\C,-1.2698725373,-1.3663415016,-0.9966710186\C,

 Normal termination of Gaussian 16 at Thu Dec 10 01:42:33 2020.

 ----------------------------------------------------------------------
 # B3LYP/6-311++G(d,p) empiricaldispersion=gd3bj scf=xqc pop=npa geom=c
 heck
 ----------------------------------------------------------------------

 --------------------------------------
 CID_18364358_JID_3909_Energie_neutraal
 --------------------------------------
 Structure from the checkpoint file:  "JID_3909.chk"
 Charge =  0 Multiplicity = 1

 SCF Done:  E(RB3LYP) =  -652.551358574     A.U. after   14 cycles
 Normal termination of Gaussian 16 at Thu Dec 10 01:45:24 2020.

 ----------------------------------------------------------------------
 # B3LYP/6-311++G(d,p) empiricaldispersion=gd3bj scf=xqc pop=npa geom=c
 heck
 ----------------------------------------------------------------------

 ------------------------------------
 CID_18364358_JID_3909_Energie_kation
 ------------------------------------
 Structure from the checkpoint file:  "JID_3909.chk"
 Charge =  1 Multiplicity = 2

 SCF Done:  E(UB3LYP) =  -652.206585040     A.U. after   23 cycles
 Normal termination of Gaussian 16 at Thu Dec 10 01:52:02 2020.
 Gaussian 16:  ES64L-G16RevA.03 25-Dec-2016

 -----------------------------------
 CID_18364358_JID_3909_Energie_anion
 -----------------------------------
 Structure from the checkpoint file:  "JID_3909.chk"
 Charge = -1 Multiplicity = 2

                         Standard orientation:
 ---------------------------------------------------------------------
 Center     Atomic      Atomic             Coordinates (Angstroms)
 Number     Number       Type             X           Y           Z
 ---------------------------------------------------------------------
      1          6           0       -2.262368   -1.515865   -1.282707
      2          6           0       -2.404767   -0.742294    0.014466
      3          6           0       -1.242411    0.034518    0.653299
      4          6           0        0.141151    0.078386    0.038837
      5          6           0        1.000606   -1.158132    0.299852
      6          8           0        2.197222   -1.184512    0.129770
      7          8           0        0.346206   -2.265568    0.719440
      8          6           0       -2.436366    0.770800    0.077482
      9          6           0       -2.295616    1.596131   -1.189478
     10          6           0       -3.390735    1.395459    1.081085
     11          6           0        3.872720    0.979667   -0.096628
     12          8           0        4.712153    0.313549   -0.558016
     13          8           0        3.070759    1.702472    0.358808
     14          1           0       -1.565751   -1.046561   -1.981732
     15          1           0       -3.231157   -1.593023   -1.788911
     16          1           0       -1.900702   -2.535263   -1.103361
     17          1           0       -3.068580   -1.230648    0.728168
     18          1           0       -1.217168    0.012993    1.743007
     19          1           0       -0.600931   -2.050867    0.799287
     20          1           0        0.100984    0.195934   -1.049094
     21          1           0        0.708581    0.937924    0.406851
     22          1           0       -3.274342    1.723323   -1.667476
     23          1           0       -1.909543    2.594778   -0.952666
     24          1           0       -1.626993    1.151057   -1.929319
     25          1           0       -3.046393    2.393074    1.380592
     26          1           0       -4.394150    1.502690    0.650729
     27          1           0       -3.477855    0.785048    1.986656
 ---------------------------------------------------------------------

 SCF Done:  E(UB3LYP) =  -652.542872474     A.U. after   32 cycles

 The electronic state is 2-A.
 Alpha  occ. eigenvalues --  -19.11142 -19.11064 -19.07230 -19.01606 -10.27019
 Alpha  occ. eigenvalues --  -10.21180 -10.09310 -10.09125 -10.08775 -10.08395
 Alpha  occ. eigenvalues --  -10.06747 -10.06244 -10.06039  -1.06756  -1.02835
 Alpha  occ. eigenvalues --   -1.01012  -0.92986  -0.78422  -0.66884  -0.64292
 Alpha  occ. eigenvalues --   -0.60525  -0.58514  -0.52307  -0.47571  -0.47425
 Alpha  occ. eigenvalues --   -0.44587  -0.43154  -0.42337  -0.42250  -0.41597
 Alpha  occ. eigenvalues --   -0.39729  -0.37353  -0.36418  -0.35087  -0.33556
 Alpha  occ. eigenvalues --   -0.31655  -0.30453  -0.29854  -0.29621  -0.28589
 Alpha  occ. eigenvalues --   -0.28380  -0.28213  -0.28153  -0.27768  -0.25584
 Alpha  occ. eigenvalues --   -0.24243  -0.22774  -0.20185  -0.17903  -0.16782
 Alpha  occ. eigenvalues --    0.04181
 Alpha virt. eigenvalues --    0.06926   0.07304   0.07671   0.08696   0.09195
 Alpha virt. eigenvalues --    0.09942   0.10238   0.10392   0.11073   0.11482
 Alpha virt. eigenvalues --    0.11857   0.12026   0.13052   0.13459   0.13786

  Beta  occ. eigenvalues --  -19.11133 -19.11050 -19.07207 -19.01599 -10.27018
  Beta  occ. eigenvalues --  -10.21174 -10.09288 -10.09124 -10.08758 -10.08373
  Beta  occ. eigenvalues --  -10.06702 -10.06189 -10.05999  -1.06726  -1.02806
  Beta  occ. eigenvalues --   -1.00977  -0.92958  -0.78383  -0.66847  -0.64232
  Beta  occ. eigenvalues --   -0.60445  -0.58433  -0.52265  -0.47525  -0.47402
  Beta  occ. eigenvalues --   -0.44516  -0.43146  -0.42313  -0.42224  -0.41546
  Beta  occ. eigenvalues --   -0.39675  -0.37315  -0.36368  -0.35054  -0.33514
  Beta  occ. eigenvalues --   -0.31612  -0.30418  -0.29814  -0.29566  -0.28559
  Beta  occ. eigenvalues --   -0.28336  -0.28180  -0.28123  -0.27750  -0.25527
  Beta  occ. eigenvalues --   -0.24188  -0.22748  -0.20163  -0.17870  -0.16758
  Beta virt. eigenvalues --    0.06503   0.07421   0.08079   0.08466   0.09144
  Beta virt. eigenvalues --    0.09639   0.10445   0.10854   0.11013   0.11454
  Beta virt. eigenvalues --    0.11550   0.11907   0.12357   0.13196   0.13702

 Mulliken charges and spin densities:
               1          2
     1  C    1.280802  -1.905986
     2  C    0.063428  -0.443423
     3  C    1.251342  -1.584590
     4  C   -0.004358  -0.217526
     5  C    0.117515  -0.229272
     6  O   -0.319827  -0.002622
     7  O   -0.138229  -0.023556
     8  C   -2.555677   3.033724
     9  C    0.119474  -0.621796
    10  C    1.604488  -2.019132
    11  C    0.377727   0.072865
    12  O   -0.215203  -0.018219
    13  O   -0.190163  -0.028877
    14  H   -0.037434   0.186405
    15  H   -0.336612   0.504458
    16  H   -0.073965   0.216508
    17  H   -0.698848   0.952221
    18  H   -0.134868   0.414277
    19  H    0.208808   0.103171
    20  H    0.129704   0.054873
    21  H    0.070009   0.177669
    22  H   -0.277790   0.443331
    23  H   -0.130479   0.276968
    24  H   -0.325152   0.441929
    25  H   -0.097638   0.242152
    26  H   -0.212526   0.362747
    27  H   -0.474528   0.611703
 Sum of Mulliken charges =  -1.00000   1.00000

 Dipole moment (field-independent basis, Debye):
    X=              6.2604    Y=              1.2215    Z=             -0.0093  Tot=              6.3785
 Quadrupole moment (field-independent basis, Debye-Ang):
   XX=           -157.7975   YY=           -120.3105   ZZ=           -113.8142
   XY=              6.3338   XZ=              0.8958   YZ=              1.8445

 Summary of Natural Population Analysis:

                                       Natural Population
                Natural  -----------------------------------------------
    Atom  No    Charge         Core      Valence    Rydberg      Total
 -----------------------------------------------------------------------
      C    1   -0.29298      0.99965     2.28596    0.00737     3.29298
      C    2   -0.11368      0.99954     2.10259    0.01155     3.11368
      C    3   -0.12797      0.99953     2.11669    0.01175     3.12797
      C    4   -0.25242      0.99955     2.24415    0.00872     3.25242
      C    5    0.41312      0.99972     1.56273    0.02443     2.58688
      O    6   -0.31189      0.99986     3.30475    0.00728     4.31189
      O    7   -0.34096      0.99987     3.33541    0.00568     4.34096
      C    8   -0.03526      0.99953     2.02242    0.01331     3.03526
      C    9   -0.28449      0.99962     2.27840    0.00647     3.28449
      C   10   -0.27730      0.99962     2.27118    0.00650     3.27730
      C   11    0.51306      0.99985     1.46340    0.02369     2.48694
      O   12   -0.25452      0.99986     3.24757    0.00709     4.25452
      O   13   -0.26091      0.99986     3.25384    0.00721     4.26091
      H   14    0.09936      0.00000     0.39923    0.00142     0.40064
      H   15    0.10788      0.00000     0.39065    0.00147     0.39212
      H   16    0.10091      0.00000     0.39799    0.00111     0.39909
      H   17    0.10732      0.00000     0.38957    0.00310     0.39268
      H   18    0.10798      0.00000     0.39029    0.00173     0.39202
      H   19    0.24993      0.00000     0.24601    0.00406     0.25007
      H   20    0.11773      0.00000     0.38049    0.00178     0.38227
      H   21    0.12394      0.00000     0.37465    0.00141     0.37606
      H   22    0.10543      0.00000     0.39312    0.00145     0.39457
      H   23    0.10226      0.00000     0.39654    0.00120     0.39774
      H   24    0.10065      0.00000     0.39799    0.00136     0.39935
      H   25    0.09906      0.00000     0.39974    0.00120     0.40094
      H   26    0.10193      0.00000     0.39666    0.00142     0.39807
      H   27    0.10182      0.00000     0.39637    0.00181     0.39818
 =======================================================================
   * Total *   -0.00000     12.99605    36.83838    0.16557    50.00000

 Normal termination of Gaussian 16 at Thu Dec 10 02:01:09 2020.
