 Gaussian 16, Revision A.03,

 -----------------------------------------------------------
 # opt freq B3LYP/6-31G(d) empiricaldispersion=gd3bj scf=xqc
 -----------------------------------------------------------

 ------------------------------
 CID_46285535_JID_8198_neutraal
 ------------------------------
 Symbolic Z-matrix:
 Charge =  0 Multiplicity = 1

 SCF Done:  E(RB3LYP) =  -1142.16088521     A.U. after   16 cycles
 SCF Done:  E(RB3LYP) =  -1142.17114398     A.U. after   14 cycles
 SCF Done:  E(RB3LYP) =  -1142.17278563     A.U. after   14 cycles
 SCF Done:  E(RB3LYP) =  -1142.17355283     A.U. after   12 cycles
 SCF Done:  E(RB3LYP) =  -1142.17397670     A.U. after   13 cycles
 SCF Done:  E(RB3LYP) =  -1142.17395863     A.U. after   13 cycles
 SCF Done:  E(RB3LYP) =  -1142.17419431     A.U. after   12 cycles
 SCF Done:  E(RB3LYP) =  -1142.17428398     A.U. after   10 cycles
 SCF Done:  E(RB3LYP) =  -1142.17432184     A.U. after   11 cycles
 SCF Done:  E(RB3LYP) =  -1142.17433806     A.U. after   10 cycles
 SCF Done:  E(RB3LYP) =  -1142.17458236     A.U. after    9 cycles
 SCF Done:  E(RB3LYP) =  -1142.17458265     A.U. after    9 cycles
 SCF Done:  E(RB3LYP) =  -1142.17458271     A.U. after    8 cycles
 SCF Done:  E(RB3LYP) =  -1142.17458266     A.U. after    7 cycles
 SCF Done:  E(RB3LYP) =  -1142.17458264     A.U. after    6 cycles
 Optimization completed.
    -- Stationary point found.
 Normal termination of Gaussian 16 at Fri Dec 11 19:45:14 2020.

 --------------------------------------------------------------------
 #N Geom=AllCheck Guess=TCheck SCRF=Check GenChk RB3LYP/6-31G(d) Freq
 --------------------------------------------------------------------

 Structure from the checkpoint file:  "JID_8198.chk"
 ------------------------------
 CID_46285535_JID_8198_neutraal
 ------------------------------
 Charge =  0 Multiplicity = 1

 SCF Done:  E(RB3LYP) =  -1142.17458264     A.U. after    1 cycles

  Exact polarizability: 255.552  13.354 163.164  -9.181   7.424 127.120
 Approx polarizability: 325.058  29.036 319.637 -15.650  12.836 208.590

                      1                      2                      3
                      A                      A                      A
 Frequencies --     28.0025                28.3639                37.9509
 Red. masses --      3.2632                 4.6413                 1.1593
 Frc consts  --      0.0015                 0.0022                 0.0010
 IR Inten    --      0.0401                 3.8569                 0.0344

                      4                      5                      6
                      A                      A                      A
 Frequencies --     48.3068                81.7659               107.0874
 Red. masses --      4.0276                 3.0917                 3.1141
 Frc consts  --      0.0055                 0.0122                 0.0210
 IR Inten    --      1.2719                 1.2230                 1.7901

                      7                      8                      9
                      A                      A                      A
 Frequencies --    115.2087               130.2133               177.9755
 Red. masses --      2.8855                 1.8584                 4.4318
 Frc consts  --      0.0226                 0.0186                 0.0827
 IR Inten    --      0.2288                 1.9269                 9.9108

                     10                     11                     12
                      A                      A                      A
 Frequencies --    189.9821               210.6184               236.2111
 Red. masses --      2.0723                 2.6762                 1.7199
 Frc consts  --      0.0441                 0.0699                 0.0565
 IR Inten    --      4.7841                 0.8673                 1.7072

                     13                     14                     15
                      A                      A                      A
 Frequencies --    246.6858               264.0057               288.2176
 Red. masses --      5.0129                 6.0255                 2.9698
 Frc consts  --      0.1797                 0.2474                 0.1454
 IR Inten    --      4.4278                 1.0975                 0.8197

                     16                     17                     18
                      A                      A                      A
 Frequencies --    307.2242               343.9415               349.8969
 Red. masses --      3.6278                 3.0930                 4.2019
 Frc consts  --      0.2017                 0.2156                 0.3031
 IR Inten    --      0.8443                 1.4878                 5.4348

                     19                     20                     21
                      A                      A                      A
 Frequencies --    365.2376               380.4078               405.7907
 Red. masses --      3.4683                 1.3214                 1.1604
 Frc consts  --      0.2726                 0.1127                 0.1126
 IR Inten    --      2.8783               109.7140                53.6065

                     22                     23                     24
                      A                      A                      A
 Frequencies --    449.6906               473.3755               497.2651
 Red. masses --      3.2545                 3.5997                 5.7973
 Frc consts  --      0.3878                 0.4753                 0.8446
 IR Inten    --      8.6349                 1.2534                 0.4151

                     25                     26                     27
                      A                      A                      A
 Frequencies --    537.2361               540.4990               574.0890
 Red. masses --      1.5266                 3.5932                 4.4554
 Frc consts  --      0.2596                 0.6185                 0.8652
 IR Inten    --    247.4342                31.9281                34.2174

                     28                     29                     30
                      A                      A                      A
 Frequencies --    576.4168               578.6483               592.8557
 Red. masses --      5.2098                 4.0338                 3.5067
 Frc consts  --      1.0199                 0.7958                 0.7262
 IR Inten    --      9.8275                 0.9579                16.1576

                     31                     32                     33
                      A                      A                      A
 Frequencies --    623.8797               645.3048               676.5461
 Red. masses --      4.8030                 4.8494                 4.2865
 Frc consts  --      1.1014                 1.1898                 1.1560
 IR Inten    --      2.2843                 7.9004                 5.9914

                     34                     35                     36
                      A                      A                      A
 Frequencies --    708.3252               719.5127               740.7649
 Red. masses --      6.0120                 8.6139                 5.3293
 Frc consts  --      1.7772                 2.6274                 1.7230
 IR Inten    --      2.7016                41.1357                 3.0264

                     37                     38                     39
                      A                      A                      A
 Frequencies --    757.3472               823.1786               865.0386
 Red. masses --      3.8462                 1.6555                 2.7185
 Frc consts  --      1.2998                 0.6609                 1.1985
 IR Inten    --     12.1865                11.8443                 5.6269

                     40                     41                     42
                      A                      A                      A
 Frequencies --    900.2612               919.3435               952.8670
 Red. masses --      1.2818                 3.5114                 1.3457
 Frc consts  --      0.6121                 1.7486                 0.7199
 IR Inten    --      2.0790                27.9375                 0.0626

                     43                     44                     45
                      A                      A                      A
 Frequencies --    960.2470              1017.8744              1038.4047
 Red. masses --      3.3888                 1.4667                 2.2384
 Frc consts  --      1.8410                 0.8953                 1.4220
 IR Inten    --      0.9230                 0.4995                42.5878

                     46                     47                     48
                      A                      A                      A
 Frequencies --   1050.0254              1052.9754              1075.6280
 Red. masses --      1.5172                 1.7286                 1.5210
 Frc consts  --      0.9856                 1.1292                 1.0369
 IR Inten    --      5.8853                 5.0448                 8.2742

                     49                     50                     51
                      A                      A                      A
 Frequencies --   1079.8123              1095.2362              1156.2808
 Red. masses --      1.5152                 2.8042                 2.2242
 Frc consts  --      1.0409                 1.9818                 1.7521
 IR Inten    --      7.7068                56.7884                 1.6352

                     52                     53                     54
                      A                      A                      A
 Frequencies --   1162.4835              1190.5415              1253.0377
 Red. masses --      1.7104                 1.5993                 2.4314
 Frc consts  --      1.3619                 1.3356                 2.2493
 IR Inten    --      8.2746                 2.3117                39.5729

                     55                     56                     57
                      A                      A                      A
 Frequencies --   1269.9830              1322.9476              1347.5091
 Red. masses --      2.9357                 1.5916                 5.8152
 Frc consts  --      2.7897                 1.6412                 6.2212
 IR Inten    --     10.3329                 2.8276                11.7687

                     58                     59                     60
                      A                      A                      A
 Frequencies --   1353.1639              1358.5150              1406.1515
 Red. masses --      3.8468                 6.1107                 1.3997
 Frc consts  --      4.1500                 6.6446                 1.6306
 IR Inten    --     47.3633                57.9212                28.2181

                     61                     62                     63
                      A                      A                      A
 Frequencies --   1424.0723              1442.5446              1445.2274
 Red. masses --      1.7813                 1.2546                 1.2488
 Frc consts  --      2.1284                 1.5382                 1.5368
 IR Inten    --      2.8172                20.5552                 7.0930

                     64                     65                     66
                      A                      A                      A
 Frequencies --   1450.6383              1460.3086              1508.9529
 Red. masses --      4.5972                 2.7688                 1.0711
 Frc consts  --      5.6998                 3.4788                 1.4370
 IR Inten    --    709.7463                31.5862                14.0918

                     67                     68                     69
                      A                      A                      A
 Frequencies --   1511.2035              1514.4194              1517.7079
 Red. masses --      1.0948                 1.0558                 1.0513
 Frc consts  --      1.4730                 1.4266                 1.4267
 IR Inten    --     23.0880                14.6728                 7.5623

                     70                     71                     72
                      A                      A                      A
 Frequencies --   1520.4380              1528.2944              1557.3060
 Red. masses --      1.1081                 1.1970                 2.4759
 Frc consts  --      1.5093                 1.6473                 3.5378
 IR Inten    --      1.6917                16.1514                44.3766

                     73                     74                     75
                      A                      A                      A
 Frequencies --   1583.6107              1607.2185              1638.4177
 Red. masses --      4.0531                 5.7732                 5.6728
 Frc consts  --      5.9887                 8.7865                 8.9721
 IR Inten    --    402.3256               362.3044                59.1098

                     76                     77                     78
                      A                      A                      A
 Frequencies --   1672.8849              1678.0559              1717.7776
 Red. masses --      5.7439                 1.3397                 9.8151
 Frc consts  --      9.4709                 2.2227                17.0640
 IR Inten    --     15.5352               147.8967               251.5450

                     79                     80                     81
                      A                      A                      A
 Frequencies --   3033.7949              3045.3350              3056.7767
 Red. masses --      1.0431                 1.0397                 1.0375
 Frc consts  --      5.6565                 5.6812                 5.7118
 IR Inten    --     10.4705                29.9925                14.9035

                     82                     83                     84
                      A                      A                      A
 Frequencies --   3102.0079              3102.7818              3115.8804
 Red. masses --      1.0956                 1.0966                 1.0983
 Frc consts  --      6.2115                 6.2204                 6.2827
 IR Inten    --     12.2638                20.2016                13.0006

                     85                     86                     87
                      A                      A                      A
 Frequencies --   3129.1275              3139.0144              3164.8497
 Red. masses --      1.1028                 1.1032                 1.0998
 Frc consts  --      6.3618                 6.4045                 6.4902
 IR Inten    --     14.9846                14.2721                 8.9144

                     88                     89                     90
                      A                      A                      A
 Frequencies --   3176.8903              3184.9884              3203.2984
 Red. masses --      1.0900                 1.0876                 1.0950
 Frc consts  --      6.4813                 6.5001                 6.6199
 IR Inten    --     19.4248                12.6909                14.1134

                     91                     92                     93
                      A                      A                      A
 Frequencies --   3582.4777              3587.7674              3697.2729
 Red. masses --      1.0479                 1.0753                 1.0990
 Frc consts  --      7.9236                 8.1549                 8.8516
 IR Inten    --     36.5039                59.2634                28.3735

 - Thermochemistry -
 -------------------
 Temperature   298.150 Kelvin.  Pressure   1.00000 Atm.
 Atom     1 has atomic number  6 and mass  12.00000

 Molecular mass:   261.09358 amu.
 Principal axes and moments of inertia in atomic units:
                           1         2         3
     Eigenvalues --  2067.598379419.02589**********
           X            0.99994   0.01060   0.00028
           Y           -0.01060   0.99980   0.01673
           Z           -0.00011  -0.01673   0.99986
 This molecule is an asymmetric top.
 Rotational symmetry number  1.
 Warning -- assumption of classical behavior for rotation
           may cause significant error
 Rotational temperatures (Kelvin)      0.04189     0.00920     0.00845
 Rotational constants (GHZ):           0.87287     0.19161     0.17612
 Zero-point vibrational energy     692564.2 (Joules/Mol)
                                  165.52683 (Kcal/Mol)
 Warning -- explicit consideration of  30 degrees of freedom as
           vibrations may cause significant error
 Vibrational temperatures:     40.29    40.81    54.60    69.50   117.64
          (Kelvin)            154.07   165.76   187.35   256.07   273.34
                              303.03   339.86   354.93   379.85   414.68
                              442.03   494.86   503.42   525.50   547.32
                              583.84   647.00   681.08   715.45   772.96
                              777.66   825.99   829.34   832.55   852.99
                              897.62   928.45   973.40  1019.12  1035.22
                             1065.80  1089.65  1184.37  1244.60  1295.28
                             1322.73  1370.96  1381.58  1464.49  1494.03
                             1510.75  1515.00  1547.59  1553.61  1575.80
                             1663.63  1672.55  1712.92  1802.84  1827.22
                             1903.43  1938.77  1946.90  1954.60  2023.14
                             2048.92  2075.50  2079.36  2087.14  2101.06
                             2171.05  2174.28  2178.91  2183.64  2187.57
                             2198.87  2240.62  2278.46  2312.43  2357.32
                             2406.91  2414.35  2471.50  4364.95  4381.56
                             4398.02  4463.10  4464.21  4483.06  4502.12
                             4516.34  4553.51  4570.84  4582.49  4608.83
                             5154.39  5162.00  5319.55

 Zero-point correction=                           0.263784 (Hartree/Particle)
 Thermal correction to Energy=                    0.282048
 Thermal correction to Enthalpy=                  0.282992
 Thermal correction to Gibbs Free Energy=         0.215925
 Sum of electronic and zero-point Energies=          -1141.910799
 Sum of electronic and thermal Energies=             -1141.892535
 Sum of electronic and thermal Enthalpies=           -1141.891591
 Sum of electronic and thermal Free Energies=        -1141.958657

                     E (Thermal)             CV                S
                      KCal/Mol        Cal/Mol-Kelvin    Cal/Mol-Kelvin
 Total                  176.988             68.005            141.153
 Electronic               0.000              0.000              0.000
 Translational            0.889              2.981             42.579
 Rotational               0.889              2.981             33.656
 Vibrational            175.210             62.043             64.919
 Vibration     1          0.593              1.984              5.966
 Vibration     2          0.593              1.984              5.941
 Vibration     3          0.594              1.982              5.363
 Vibration     4          0.595              1.978              4.886
 Vibration     5          0.600              1.962              3.848
 Vibration     6          0.606              1.944              3.321
 Vibration     7          0.608              1.937              3.179
 Vibration     8          0.612              1.923              2.943
 Vibration     9          0.628              1.869              2.350
 Vibration    10          0.633              1.854              2.228
 Vibration    11          0.643              1.825              2.038
 Vibration    12          0.655              1.785              1.831
 Vibration    13          0.661              1.768              1.754
 Vibration    14          0.671              1.739              1.635
 Vibration    15          0.685              1.696              1.484
 Vibration    16          0.697              1.660              1.377
 Vibration    17          0.723              1.588              1.194
 Vibration    18          0.727              1.575              1.167
 Vibration    19          0.738              1.544              1.100
 Vibration    20          0.750              1.512              1.038
 Vibration    21          0.771              1.458              0.942
 Vibration    22          0.809              1.362              0.797
 Vibration    23          0.830              1.309              0.728
 Vibration    24          0.853              1.256              0.665
 Vibration    25          0.892              1.168              0.571
 Vibration    26          0.896              1.161              0.564
 Vibration    27          0.930              1.087              0.496
 Vibration    28          0.933              1.082              0.492
 Vibration    29          0.935              1.077              0.488
 Vibration    30          0.950              1.047              0.462

 Optimization completed.
    -- Stationary point found.
 Normal termination of Gaussian 16 at Fri Dec 11 19:57:20 2020.

 ----------------------------------------------------------------------
 # B3LYP/6-311++G(d,p) empiricaldispersion=gd3bj scf=xqc pop=npa geom=c
 heck
 ----------------------------------------------------------------------

 --------------------------------------
 CID_46285535_JID_8198_Energie_neutraal
 --------------------------------------
 Structure from the checkpoint file:  "JID_8198.chk"
 Charge =  0 Multiplicity = 1

 SCF Done:  E(RB3LYP) =  -1142.40990088     A.U. after   19 cycles
 Normal termination of Gaussian 16 at Fri Dec 11 20:03:16 2020.

 ----------------------------------------------------------------------
 # B3LYP/6-311++G(d,p) empiricaldispersion=gd3bj scf=xqc pop=npa geom=c
 heck
 ----------------------------------------------------------------------

 ------------------------------------
 CID_46285535_JID_8198_Energie_kation
 ------------------------------------
 Structure from the checkpoint file:  "JID_8198.chk"
 Charge =  1 Multiplicity = 2

 SCF Done:  E(UB3LYP) =  -1142.14147090     A.U. after   27 cycles
 Normal termination of Gaussian 16 at Fri Dec 11 20:14:55 2020.
 Gaussian 16:  ES64L-G16RevA.03 25-Dec-2016

 ----------------------------------------------------------------------
 # B3LYP/6-311++G(d,p) empiricaldispersion=gd3bj scf=xqc pop=npa geom=c
 heck
 ----------------------------------------------------------------------

 -----------------------------------
 CID_46285535_JID_8198_Energie_anion
 -----------------------------------
 Structure from the checkpoint file:  "JID_8198.chk"
 Charge = -1 Multiplicity = 2

                         Standard orientation:
 ---------------------------------------------------------------------
 Center     Atomic      Atomic             Coordinates (Angstroms)
 Number     Number       Type             X           Y           Z
 ---------------------------------------------------------------------
      1          6           0        5.532853    1.318546   -0.462462
      2          6           0        4.258852    0.523056   -0.318988
      3          6           0        3.514424    0.568831    0.862782
      4          6           0        2.316250   -0.134748    1.028665
      5          6           0        1.851627   -0.896954   -0.057605
      6          6           0        2.585477   -0.961423   -1.245496
      7          6           0        3.782196   -0.265776   -1.373177
      8          7           0        0.638818   -1.640656    0.049463
      9          6           0       -0.605886   -1.098872   -0.010514
     10          7           0       -1.687160   -1.851765    0.015073
     11          6           0       -2.809476   -1.070052   -0.062119
     12          6           0       -2.604086    0.305504   -0.147701
     13         16           0       -0.859140    0.628995   -0.151019
     14          6           0       -3.483495    1.447212   -0.187715
     15          8           0       -3.034096    2.593893   -0.245817
     16          6           0       -4.989216    1.212267   -0.154936
     17          7           0       -4.015389   -1.731278    0.002582
     18          6           0        1.568197   -0.076255    2.335087
     19          1           0        5.340389    2.284211   -0.947782
     20          1           0        5.986417    1.527066    0.511593
     21          1           0        6.269247    0.788207   -1.075403
     22          1           0        3.884925    1.161675    1.696103
     23          1           0        2.202780   -1.558110   -2.068675
     24          1           0        4.345099   -0.326070   -2.300892
     25          1           0        0.661789   -2.644409   -0.083614
     26          1           0       -5.328659    0.726593   -1.080567
     27          1           0       -5.280350    0.578872    0.690939
     28          1           0       -5.486710    2.180338   -0.074049
     29          1           0       -3.934249   -2.724981   -0.169456
     30          1           0       -4.809779   -1.295421   -0.441052
     31          1           0        2.240076    0.201005    3.152528
     32          1           0        0.760423    0.664078    2.297876
     33          1           0        1.107431   -1.040223    2.570538
 ---------------------------------------------------------------------

 SCF Done:  E(UB3LYP) =  -1142.40663475     A.U. after   33 cycles
 SCF Done:  E(UB3LYP) =  -1142.40666717     a.u. after    4 cycles

 The electronic state is 2-A.
 Alpha  occ. eigenvalues --  -88.74007 -18.95009 -14.22705 -14.21823 -14.17874
 Alpha  occ. eigenvalues --  -10.13525 -10.11898 -10.10865 -10.09495 -10.07751
 Alpha  occ. eigenvalues --  -10.07047 -10.06969 -10.06389 -10.06143 -10.06120
 Alpha  occ. eigenvalues --  -10.06120 -10.05875 -10.05482  -7.82609  -5.78939
 Alpha  occ. eigenvalues --   -5.78578  -5.78116  -0.88735  -0.87249  -0.83229
 Alpha  occ. eigenvalues --   -0.77982  -0.74443  -0.67724  -0.66925  -0.65538
 Alpha  occ. eigenvalues --   -0.62882  -0.59835  -0.58674  -0.56857  -0.51000
 Alpha  occ. eigenvalues --   -0.49675  -0.47796  -0.45957  -0.44851  -0.42036
 Alpha  occ. eigenvalues --   -0.39108  -0.37746  -0.36387  -0.36044  -0.34464
 Alpha  occ. eigenvalues --   -0.33038  -0.32489  -0.32044  -0.31548  -0.31275
 Alpha  occ. eigenvalues --   -0.30997  -0.30717  -0.29599  -0.28746  -0.27930
 Alpha  occ. eigenvalues --   -0.26285  -0.25169  -0.24509  -0.24163  -0.23398
 Alpha  occ. eigenvalues --   -0.23311  -0.22811  -0.17061  -0.16782  -0.14570
 Alpha  occ. eigenvalues --   -0.14220  -0.12735  -0.11316  -0.08064   0.04574
 Alpha virt. eigenvalues --    0.06320   0.06872   0.07689   0.08014   0.08622
 Alpha virt. eigenvalues --    0.09132   0.09140   0.09793   0.10144   0.11017
 Alpha virt. eigenvalues --    0.11110   0.11836   0.12182   0.12676   0.12929

  Beta  occ. eigenvalues --  -88.73990 -18.94790 -14.22682 -14.21773 -14.17971
  Beta  occ. eigenvalues --  -10.13192 -10.11669 -10.10667 -10.09403 -10.07770
  Beta  occ. eigenvalues --  -10.07043 -10.06838 -10.06420 -10.06140 -10.06133
  Beta  occ. eigenvalues --  -10.06009 -10.05818 -10.05518  -7.82593  -5.78937
  Beta  occ. eigenvalues --   -5.78571  -5.78054  -0.88327  -0.86988  -0.83035
  Beta  occ. eigenvalues --   -0.77868  -0.74308  -0.67621  -0.66850  -0.65361
  Beta  occ. eigenvalues --   -0.62722  -0.59590  -0.58601  -0.56733  -0.50717
  Beta  occ. eigenvalues --   -0.49511  -0.47552  -0.45798  -0.44619  -0.41932
  Beta  occ. eigenvalues --   -0.39027  -0.37622  -0.36204  -0.35923  -0.34299
  Beta  occ. eigenvalues --   -0.32655  -0.32326  -0.31911  -0.31469  -0.31180
  Beta  occ. eigenvalues --   -0.30847  -0.30422  -0.29438  -0.28516  -0.27867
  Beta  occ. eigenvalues --   -0.26116  -0.24781  -0.24403  -0.23948  -0.23256
  Beta  occ. eigenvalues --   -0.22486  -0.22222  -0.17056  -0.16383  -0.14089
  Beta  occ. eigenvalues --   -0.13958  -0.12366  -0.11140  -0.07367
  Beta virt. eigenvalues --    0.06639   0.06848   0.08011   0.08165   0.08783
  Beta virt. eigenvalues --    0.09087   0.09172   0.09786   0.09988   0.10278
  Beta virt. eigenvalues --    0.11050   0.11261   0.11816   0.12213   0.12866

 Mulliken charges and spin densities:
               1          2
     1  C    0.764996  -1.324593
     2  C   -0.111048   0.652594
     3  C   -0.655660   0.476849
     4  C    0.799025   0.015588
     5  C   -0.466352  -0.758030
     6  C    0.390300   0.050552
     7  C   -0.811307   0.190485
     8  N   -0.084547   0.082990
     9  C   -0.765420   0.087856
    10  N   -0.049992  -0.040553
    11  C   -0.887503   0.121823
    12  C    1.208634  -0.073385
    13  S    0.125534  -0.018949
    14  C    0.085311   0.136820
    15  O   -0.407921   0.078645
    16  C   -0.527221  -0.005917
    17  N   -0.325688   0.017520
    18  C   -0.588379   0.045751
    19  H    0.201318  -0.040767
    20  H   -0.160882   0.293167
    21  H   -0.114442   0.246485
    22  H    0.116792   0.028716
    23  H   -0.085668   0.229364
    24  H   -0.082178   0.222775
    25  H    0.125834   0.188057
    26  H    0.125249   0.000151
    27  H    0.150309   0.004875
    28  H    0.158570   0.009131
    29  H    0.241280   0.002564
    30  H    0.231937   0.024148
    31  H    0.069299   0.058206
    32  H    0.158191  -0.005578
    33  H    0.171628   0.002660
 Sum of Mulliken charges =  -1.00000   1.00000

 Dipole moment (field-independent basis, Debye):
    X=             -1.9314    Y=             -3.0327    Z=              0.5132  Tot=              3.6319
 Quadrupole moment (field-independent basis, Debye-Ang):
   XX=           -179.6922   YY=           -146.0888   ZZ=           -127.6124
   XY=             14.7567   XZ=              4.7646   YZ=              1.8282

 Summary of Natural Population Analysis:

                                       Natural Population
                Natural  -----------------------------------------------
    Atom  No    Charge         Core      Valence    Rydberg      Total
 -----------------------------------------------------------------------
      C    1   -0.29310      0.99964     2.28807    0.00539     3.29310
      C    2    0.00446      0.99952     1.98787    0.00815     2.99554
      C    3   -0.09354      0.99948     2.08539    0.00867     3.09354
      C    4   -0.01323      0.99947     2.00468    0.00908     3.01323
      C    5    0.07430      0.99941     1.91511    0.01118     2.92570
      C    6   -0.07733      0.99952     2.06811    0.00971     3.07733
      C    7   -0.11262      0.99952     2.10381    0.00929     3.11262
      N    8   -0.30994      0.99962     2.79734    0.01298     3.80994
      C    9    0.19974      0.99962     1.77907    0.02157     2.80026
      N   10   -0.32280      0.99964     2.81083    0.01233     3.82280
      C   11    0.22613      0.99948     1.76071    0.01368     2.77387
      C   12   -0.20620      0.99941     2.19732    0.00947     3.20620
      S   13    0.18621      4.99946     2.79509    0.01924     7.81379
      C   14    0.26680      0.99958     1.71293    0.02069     2.73320
      O   15   -0.30147      0.99988     3.29449    0.00709     4.30147
      C   16   -0.32879      0.99964     2.32467    0.00448     3.32879
      N   17   -0.39161      0.99970     2.88320    0.00872     3.89161
      C   18   -0.29677      0.99963     2.29262    0.00451     3.29677
      H   19    0.10179      0.00000     0.39743    0.00078     0.39821
      H   20    0.10098      0.00000     0.39809    0.00093     0.39902
      H   21    0.10121      0.00000     0.39777    0.00102     0.39879
      H   22    0.09286      0.00000     0.40579    0.00135     0.40714
      H   23    0.10079      0.00000     0.39828    0.00093     0.39921
      H   24    0.09610      0.00000     0.40304    0.00087     0.40390
      H   25    0.19803      0.00000     0.29835    0.00362     0.30197
      H   26    0.09666      0.00000     0.40212    0.00121     0.40334
      H   27    0.10294      0.00000     0.39579    0.00128     0.39706
      H   28    0.10645      0.00000     0.39193    0.00162     0.39355
      H   29    0.18850      0.00000     0.31004    0.00146     0.31150
      H   30    0.18709      0.00000     0.31144    0.00146     0.31291
      H   31    0.09726      0.00000     0.40184    0.00089     0.40274
      H   32    0.11241      0.00000     0.38634    0.00125     0.38759
      H   33    0.10667      0.00000     0.39242    0.00091     0.39333
 =======================================================================
   * Total *    0.00000     21.99220    46.79201    0.21579    69.00000

 Normal termination of Gaussian 16 at Fri Dec 11 21:15:02 2020.
