 Gaussian 16, Revision A.03,

 -----------------------------------------------------------
 # opt freq B3LYP/6-31G(d) empiricaldispersion=gd3bj scf=xqc
 -----------------------------------------------------------

 ------------------------------
 CID_47174539_JID_9722_neutraal
 ------------------------------
 Symbolic Z-matrix:
 Charge =  0 Multiplicity = 1

 SCF Done:  E(RB3LYP) =  -868.288407161     A.U. after   15 cycles
 SCF Done:  E(RB3LYP) =  -868.298131986     A.U. after   13 cycles
 SCF Done:  E(RB3LYP) =  -868.299911522     A.U. after   13 cycles
 SCF Done:  E(RB3LYP) =  -868.300739332     A.U. after   13 cycles
 SCF Done:  E(RB3LYP) =  -868.300893330     A.U. after   12 cycles
 SCF Done:  E(RB3LYP) =  -868.300957769     A.U. after   11 cycles
 SCF Done:  E(RB3LYP) =  -868.300976681     A.U. after   10 cycles
 SCF Done:  E(RB3LYP) =  -868.300981816     A.U. after    9 cycles
 SCF Done:  E(RB3LYP) =  -868.300984372     A.U. after    8 cycles
 SCF Done:  E(RB3LYP) =  -868.300985685     A.U. after    8 cycles
 SCF Done:  E(RB3LYP) =  -868.300986544     A.U. after    8 cycles
 SCF Done:  E(RB3LYP) =  -868.300987346     A.U. after    8 cycles
 SCF Done:  E(RB3LYP) =  -868.300987944     A.U. after    8 cycles
 SCF Done:  E(RB3LYP) =  -868.300988198     A.U. after    8 cycles
 SCF Done:  E(RB3LYP) =  -868.300988293     A.U. after    7 cycles
 Optimization completed.
    -- Stationary point found.
 Normal termination of Gaussian 16 at Sun Dec 13 16:14:52 2020.

 --------------------------------------------------------------------
 #N Geom=AllCheck Guess=TCheck SCRF=Check GenChk RB3LYP/6-31G(d) Freq
 --------------------------------------------------------------------

 Structure from the checkpoint file:  "JID_9722.chk"
 ------------------------------
 CID_47174539_JID_9722_neutraal
 ------------------------------
 Charge =  0 Multiplicity = 1

 SCF Done:  E(RB3LYP) =  -868.300988294     A.U. after    1 cycles

  Exact polarizability: 209.929  23.347 133.918  22.845  -6.067 138.293
 Approx polarizability: 309.977  47.031 229.253  52.613  -8.519 241.524

                      1                      2                      3
                      A                      A                      A
 Frequencies --     18.9528                27.7075                40.0233
 Red. masses --      5.8322                 5.4264                 5.2625
 Frc consts  --      0.0012                 0.0025                 0.0050
 IR Inten    --      0.0273                 1.4855                 4.9936

                      4                      5                      6
                      A                      A                      A
 Frequencies --    104.3976               118.4664               129.3885
 Red. masses --      3.9484                 4.6955                 4.0690
 Frc consts  --      0.0254                 0.0388                 0.0401
 IR Inten    --      2.8652                 5.8127                 2.9949

                      7                      8                      9
                      A                      A                      A
 Frequencies --    168.9569               174.8689               216.8036
 Red. masses --      3.9592                 1.3135                 3.0831
 Frc consts  --      0.0666                 0.0237                 0.0854
 IR Inten    --      3.0862                 1.2776                 2.4370

                     10                     11                     12
                      A                      A                      A
 Frequencies --    219.8290               243.0412               266.5046
 Red. masses --      3.7497                 4.2661                 4.0944
 Frc consts  --      0.1068                 0.1485                 0.1713
 IR Inten    --      1.0380                 2.1622                 5.4751

                     13                     14                     15
                      A                      A                      A
 Frequencies --    307.3529               323.7228               358.9733
 Red. masses --      5.8040                 2.9046                 1.4925
 Frc consts  --      0.3230                 0.1793                 0.1133
 IR Inten    --      0.1286                 0.7884                82.5946

                     16                     17                     18
                      A                      A                      A
 Frequencies --    398.3663               470.2250               495.2905
 Red. masses --      3.7024                 4.3240                 3.8788
 Frc consts  --      0.3462                 0.5633                 0.5606
 IR Inten    --      5.1143                18.0490                32.3882

                     19                     20                     21
                      A                      A                      A
 Frequencies --    518.5698               535.5889               553.5251
 Red. masses --      1.8630                 5.1666                 4.0724
 Frc consts  --      0.2952                 0.8732                 0.7351
 IR Inten    --     90.3950                 5.2340                 1.9768

                     22                     23                     24
                      A                      A                      A
 Frequencies --    566.7635               576.3135               603.7319
 Red. masses --      4.3475                 4.1086                 5.3243
 Frc consts  --      0.8228                 0.8040                 1.1434
 IR Inten    --     16.9153                 1.7676                 7.4589

                     25                     26                     27
                      A                      A                      A
 Frequencies --    628.7645               636.8829               680.7033
 Red. masses --      5.1931                 3.3718                 5.6949
 Frc consts  --      1.2096                 0.8058                 1.5547
 IR Inten    --      3.3290                 2.0424                13.4976

                     28                     29                     30
                      A                      A                      A
 Frequencies --    698.6063               759.3587               776.5313
 Red. masses --      7.1049                 5.3262                 5.9880
 Frc consts  --      2.0430                 1.8095                 2.1274
 IR Inten    --      5.3788                 4.6039                20.4513

                     31                     32                     33
                      A                      A                      A
 Frequencies --    794.1315               801.2470               809.9342
 Red. masses --      2.5849                 8.0848                 1.6640
 Frc consts  --      0.9604                 3.0581                 0.6432
 IR Inten    --     23.3265                 8.4600                15.2328

                     34                     35                     36
                      A                      A                      A
 Frequencies --    858.9889               883.1264               896.4882
 Red. masses --      1.4725                 5.8567                 6.7026
 Frc consts  --      0.6402                 2.6912                 3.1738
 IR Inten    --     13.5140                 9.3943                35.5647

                     37                     38                     39
                      A                      A                      A
 Frequencies --    951.6187               959.1414               971.3984
 Red. masses --      6.9964                 1.3673                 1.4270
 Frc consts  --      3.7329                 0.7411                 0.7934
 IR Inten    --      1.6899                 0.9918                 2.1053

                     40                     41                     42
                      A                      A                      A
 Frequencies --    974.4116               997.4265              1036.1316
 Red. masses --      1.3366                 2.3966                 3.4538
 Frc consts  --      0.7477                 1.4047                 2.1846
 IR Inten    --      1.2061                 3.0926                 0.2470

                     43                     44                     45
                      A                      A                      A
 Frequencies --   1059.7845              1098.3890              1109.8437
 Red. masses --      7.2394                 2.3595                 1.8012
 Frc consts  --      4.7906                 1.6772                 1.3072
 IR Inten    --     46.8791                10.2032                30.8148

                     46                     47                     48
                      A                      A                      A
 Frequencies --   1144.1194              1150.3447              1186.1133
 Red. masses --      1.5900                 4.5322                 1.2654
 Frc consts  --      1.2263                 3.5336                 1.0489
 IR Inten    --     39.1161                64.8915                 0.7501

                     49                     50                     51
                      A                      A                      A
 Frequencies --   1189.7183              1211.4292              1222.8667
 Red. masses --      2.6700                 1.6772                 1.9906
 Frc consts  --      2.2266                 1.4502                 1.7539
 IR Inten    --      3.2942                 1.5677                10.5169

                     52                     53                     54
                      A                      A                      A
 Frequencies --   1262.0253              1298.6290              1311.3909
 Red. masses --      1.3785                 2.0612                 1.8558
 Frc consts  --      1.2935                 2.0481                 1.8804
 IR Inten    --     18.0808                35.6196                 7.1865

                     55                     56                     57
                      A                      A                      A
 Frequencies --   1321.9640              1329.7949              1363.9169
 Red. masses --      5.4345                 3.0499                 3.4937
 Frc consts  --      5.5957                 3.1776                 3.8293
 IR Inten    --     17.5624                32.9726                48.5465

                     58                     59                     60
                      A                      A                      A
 Frequencies --   1371.2780              1379.9045              1395.3163
 Red. masses --      2.0827                 2.2710                 3.4466
 Frc consts  --      2.3074                 2.5478                 3.9536
 IR Inten    --     41.7147                20.8796                23.2989

                     61                     62                     63
                      A                      A                      A
 Frequencies --   1405.5800              1435.6945              1465.1000
 Red. masses --      2.1038                 2.0968                 1.6927
 Frc consts  --      2.4489                 2.5464                 2.1407
 IR Inten    --     40.4898               202.8123               131.1160

                     64                     65                     66
                      A                      A                      A
 Frequencies --   1500.4306              1501.7027              1510.1335
 Red. masses --      2.1583                 2.1953                 1.0504
 Frc consts  --      2.8629                 2.9168                 1.4114
 IR Inten    --      5.1771                94.2816                 3.5252

                     67                     68                     69
                      A                      A                      A
 Frequencies --   1515.1251              1525.3553              1528.6074
 Red. masses --      1.3435                 1.2727                 1.6889
 Frc consts  --      1.8171                 1.7447                 2.3251
 IR Inten    --     40.4108                43.4799                 5.0762

                     70                     71                     72
                      A                      A                      A
 Frequencies --   1534.6691              1560.3810              1608.4553
 Red. masses --      1.6884                 2.8097                 8.8532
 Frc consts  --      2.3429                 4.0306                13.4949
 IR Inten    --     93.1177                44.1565               261.5930

                     73                     74                     75
                      A                      A                      A
 Frequencies --   1635.3708              1655.0361              1673.5720
 Red. masses --      6.6812                 5.8451                 5.9879
 Frc consts  --     10.5279                 9.4331                 9.8814
 IR Inten    --     44.0573               101.2650               372.6825

                     76                     77                     78
                      A                      A                      A
 Frequencies --   3061.3204              3068.2163              3136.3613
 Red. masses --      1.0686                 1.0299                 1.0956
 Frc consts  --      5.9004                 5.7121                 6.3496
 IR Inten    --     56.0205                33.7956                 6.9009

                     79                     80                     81
                      A                      A                      A
 Frequencies --   3139.5002              3178.5466              3179.7973
 Red. masses --      1.1071                 1.1054                 1.0899
 Frc consts  --      6.4290                 6.5803                 6.4930
 IR Inten    --     21.7831                21.8633                 8.9447

                     82                     83                     84
                      A                      A                      A
 Frequencies --   3184.7033              3186.0805              3221.7376
 Red. masses --      1.0906                 1.0903                 1.0956
 Frc consts  --      6.5173                 6.5208                 6.7003
 IR Inten    --     19.5011                39.2466                20.7731

                     85                     86                     87
                      A                      A                      A
 Frequencies --   3260.7115              3591.8729              3655.7961
 Red. masses --      1.0970                 1.0757                 1.0806
 Frc consts  --      6.8719                 8.1770                 8.5091
 IR Inten    --      3.1302                11.7987                42.3899

 - Thermochemistry -
 -------------------
 Temperature   298.150 Kelvin.  Pressure   1.00000 Atm.
 Atom     1 has atomic number  6 and mass  12.00000

 Molecular mass:   256.10726 amu.
 Principal axes and moments of inertia in atomic units:
                           1         2         3
     Eigenvalues --  2229.031507816.189597932.16802
           X            0.99999   0.00288   0.00140
           Y           -0.00306   0.98915   0.14687
           Z           -0.00096  -0.14687   0.98915
 This molecule is an asymmetric top.
 Rotational symmetry number  1.
 Warning -- assumption of classical behavior for rotation
           may cause significant error
 Rotational temperatures (Kelvin)      0.03886     0.01108     0.01092
 Rotational constants (GHZ):           0.80965     0.23090     0.22752
 Zero-point vibrational energy     639278.0 (Joules/Mol)
                                  152.79112 (Kcal/Mol)
 Warning -- explicit consideration of  24 degrees of freedom as
           vibrations may cause significant error
 Vibrational temperatures:     27.27    39.86    57.58   150.20   170.45
          (Kelvin)            186.16   243.09   251.60   311.93   316.28
                              349.68   383.44   442.21   465.76   516.48
                              573.16   676.55   712.61   746.11   770.59
                              796.40   815.45   829.19   868.64   904.65
                              916.33   979.38  1005.14  1092.55  1117.26
                             1142.58  1152.82  1165.31  1235.89  1270.62
                             1289.85  1369.17  1379.99  1397.63  1401.96
                             1435.07  1490.76  1524.79  1580.34  1596.82
                             1646.13  1655.09  1706.55  1711.74  1742.98
                             1759.43  1815.77  1868.44  1886.80  1902.01
                             1913.28  1962.37  1972.96  1985.37  2007.55
                             2022.32  2065.64  2107.95  2158.79  2160.62
                             2172.75  2179.93  2194.65  2199.33  2208.05
                             2245.04  2314.21  2352.93  2381.23  2407.90
                             4404.56  4414.48  4512.52  4517.04  4573.22
                             4575.02  4582.08  4584.06  4635.36  4691.44
                             5167.90  5259.88

 Zero-point correction=                           0.243488 (Hartree/Particle)
 Thermal correction to Energy=                    0.259035
 Thermal correction to Enthalpy=                  0.259979
 Thermal correction to Gibbs Free Energy=         0.198601
 Sum of electronic and zero-point Energies=           -868.057500
 Sum of electronic and thermal Energies=              -868.041953
 Sum of electronic and thermal Enthalpies=            -868.041009
 Sum of electronic and thermal Free Energies=         -868.102387

                     E (Thermal)             CV                S
                      KCal/Mol        Cal/Mol-Kelvin    Cal/Mol-Kelvin
 Total                  162.547             59.554            129.182
 Electronic               0.000              0.000              0.000
 Translational            0.889              2.981             42.521
 Rotational               0.889              2.981             33.291
 Vibrational            160.769             53.592             53.370
 Vibration     1          0.593              1.986              6.741
 Vibration     2          0.593              1.984              5.987
 Vibration     3          0.594              1.981              5.258
 Vibration     4          0.605              1.946              3.371
 Vibration     5          0.609              1.934              3.125
 Vibration     6          0.612              1.924              2.955
 Vibration     7          0.625              1.881              2.447
 Vibration     8          0.627              1.873              2.382
 Vibration     9          0.646              1.815              1.986
 Vibration    10          0.647              1.811              1.960
 Vibration    11          0.659              1.774              1.781
 Vibration    12          0.672              1.735              1.619
 Vibration    13          0.697              1.660              1.377
 Vibration    14          0.708              1.628              1.291
 Vibration    15          0.734              1.557              1.127
 Vibration    16          0.765              1.474              0.969
 Vibration    17          0.827              1.316              0.737
 Vibration    18          0.851              1.260              0.670
 Vibration    19          0.874              1.209              0.613
 Vibration    20          0.891              1.171              0.575
 Vibration    21          0.909              1.132              0.537
 Vibration    22          0.923              1.103              0.510
 Vibration    23          0.933              1.082              0.492
 Vibration    24          0.962              1.024              0.443

                           ! Non-Optimized Parameters !
 Normal termination of Gaussian 16 at Sun Dec 13 16:31:19 2020.

 ----------------------------------------------------------------------
 # B3LYP/6-311++G(d,p) empiricaldispersion=gd3bj scf=xqc pop=npa geom=c
 heck
 ----------------------------------------------------------------------

 --------------------------------------
 CID_47174539_JID_9722_Energie_neutraal
 --------------------------------------
 Structure from the checkpoint file:  "JID_9722.chk"
 Charge =  0 Multiplicity = 1

 SCF Done:  E(RB3LYP) =  -868.533731743     A.U. after   16 cycles
 Normal termination of Gaussian 16 at Sun Dec 13 16:38:11 2020.

 ----------------------------------------------------------------------
 # B3LYP/6-311++G(d,p) empiricaldispersion=gd3bj scf=xqc pop=npa geom=c
 heck
 ----------------------------------------------------------------------

 ------------------------------------
 CID_47174539_JID_9722_Energie_kation
 ------------------------------------
 Structure from the checkpoint file:  "JID_9722.chk"
 Charge =  1 Multiplicity = 2

 SCF Done:  E(UB3LYP) =  -868.245486832     A.U. after   24 cycles
 Normal termination of Gaussian 16 at Sun Dec 13 16:53:20 2020.
 Gaussian 16:  ES64L-G16RevA.03 25-Dec-2016

 ----------------------------------------------------------------------
 # B3LYP/6-311++G(d,p) empiricaldispersion=gd3bj scf=xqc pop=npa geom=c
 heck
 ----------------------------------------------------------------------

 -----------------------------------
 CID_47174539_JID_9722_Energie_anion
 -----------------------------------
 Structure from the checkpoint file:  "JID_9722.chk"
 Charge = -1 Multiplicity = 2

                         Standard orientation:
 ---------------------------------------------------------------------
 Center     Atomic      Atomic             Coordinates (Angstroms)
 Number     Number       Type             X           Y           Z
 ---------------------------------------------------------------------
      1          6           0       -0.761614    2.110845    1.436073
      2          8           0       -0.961813    0.780136    0.952997
      3          6           0       -2.144158    0.489993    0.374576
      4          6           0       -2.299611   -0.840150   -0.089481
      5          6           0       -3.512557   -1.143431   -0.692322
      6          6           0       -4.507762   -0.164481   -0.812272
      7          6           0       -4.233501    1.102460   -0.318063
      8          7           0       -3.069349    1.433908    0.266757
      9          6           0       -1.189546   -1.851719    0.056409
     10          7           0        0.013484   -1.465903   -0.689123
     11          6           0        1.135010   -1.010975   -0.033994
     12          7           0        1.336773   -1.354733    1.241003
     13          6           0        2.437624   -0.894753    1.867703
     14          7           0        3.401995   -0.115229    1.391359
     15          6           0        3.218283    0.216751    0.099695
     16          6           0        2.112645   -0.216151   -0.656476
     17          7           0        2.287086    0.352101   -1.909913
     18          6           0        3.462466    1.064579   -1.844522
     19          7           0        4.044385    1.019107   -0.671056
     20          1           0       -1.491736    2.357116    2.212070
     21          1           0       -0.853049    2.838206    0.624241
     22          1           0        0.250174    2.112871    1.842946
     23          1           0       -3.682727   -2.150379   -1.066460
     24          1           0       -5.463057   -0.384783   -1.276432
     25          1           0       -4.970483    1.899935   -0.386409
     26          1           0       -0.877217   -1.957222    1.097863
     27          1           0       -1.538843   -2.829525   -0.294547
     28          1           0       -0.181607   -1.005351   -1.568417
     29          1           0        2.537567   -1.206624    2.905223
     30          1           0        1.722435    0.220421   -2.735367
     31          1           0        3.838757    1.601672   -2.705819
 ---------------------------------------------------------------------

 SCF Done:  E(UB3LYP) =  -868.537749465     A.U. after   33 cycles
 SCF Done:  E(UB3LYP) =  -868.537749465     a.u. after    1 cycles

 The electronic state is 2-A.
 Alpha  occ. eigenvalues --  -19.05611 -14.26683 -14.22873 -14.19767 -14.19735
 Alpha  occ. eigenvalues --  -14.19390 -14.19224 -10.15965 -10.15017 -10.13774
 Alpha  occ. eigenvalues --  -10.12280 -10.12253 -10.11966 -10.10699 -10.10595
 Alpha  occ. eigenvalues --  -10.09739 -10.07801 -10.07709 -10.07282  -0.98103
 Alpha  occ. eigenvalues --   -0.92418  -0.87399  -0.83669  -0.83239  -0.78315
 Alpha  occ. eigenvalues --   -0.75255  -0.70991  -0.67435  -0.66104  -0.61543
 Alpha  occ. eigenvalues --   -0.59115  -0.55665  -0.53828  -0.52052  -0.50967
 Alpha  occ. eigenvalues --   -0.49853  -0.48057  -0.43739  -0.42376  -0.41123
 Alpha  occ. eigenvalues --   -0.40357  -0.39032  -0.37667  -0.37318  -0.35727
 Alpha  occ. eigenvalues --   -0.35205  -0.34344  -0.33792  -0.32687  -0.31770
 Alpha  occ. eigenvalues --   -0.30868  -0.29816  -0.29488  -0.28595  -0.27258
 Alpha  occ. eigenvalues --   -0.25338  -0.23918  -0.23179  -0.20310  -0.18922
 Alpha  occ. eigenvalues --   -0.18148  -0.17652  -0.16599  -0.15854  -0.14965
 Alpha  occ. eigenvalues --   -0.13470  -0.11502   0.03694
 Alpha virt. eigenvalues --    0.06018   0.06859   0.07497   0.08028   0.08463
 Alpha virt. eigenvalues --    0.08723   0.09277   0.09720   0.09939   0.10137
 Alpha virt. eigenvalues --    0.11307   0.11966   0.12139   0.12733   0.13403

  Beta  occ. eigenvalues --  -19.05616 -14.26589 -14.22810 -14.19740 -14.19636
  Beta  occ. eigenvalues --  -14.19369 -14.19181 -10.15987 -10.14956 -10.13713
  Beta  occ. eigenvalues --  -10.12282 -10.12251 -10.11948 -10.10712 -10.10590
  Beta  occ. eigenvalues --  -10.09587 -10.07661 -10.07601 -10.07333  -0.98102
  Beta  occ. eigenvalues --   -0.92339  -0.87322  -0.83563  -0.83036  -0.78221
  Beta  occ. eigenvalues --   -0.75170  -0.70755  -0.67313  -0.66021  -0.61504
  Beta  occ. eigenvalues --   -0.58950  -0.55585  -0.53680  -0.51850  -0.50857
  Beta  occ. eigenvalues --   -0.49753  -0.47945  -0.43669  -0.42301  -0.41012
  Beta  occ. eigenvalues --   -0.40280  -0.38953  -0.37610  -0.37252  -0.35605
  Beta  occ. eigenvalues --   -0.35154  -0.34283  -0.33714  -0.32595  -0.31668
  Beta  occ. eigenvalues --   -0.30835  -0.29500  -0.29363  -0.28477  -0.27176
  Beta  occ. eigenvalues --   -0.25247  -0.23789  -0.22967  -0.20231  -0.18476
  Beta  occ. eigenvalues --   -0.17901  -0.17379  -0.16452  -0.15692  -0.14889
  Beta  occ. eigenvalues --   -0.13161  -0.11330
  Beta virt. eigenvalues --    0.06654   0.07201   0.07683   0.07995   0.08354
  Beta virt. eigenvalues --    0.08483   0.09207   0.09593   0.09777   0.10063
  Beta virt. eigenvalues --    0.10168   0.11300   0.11933   0.12078   0.13130

 Mulliken charges and spin densities:
               1          2
     1  C   -0.390554   0.011673
     2  O   -0.047658   0.000431
     3  C   -1.862233   0.403460
     4  C    1.951895   0.069370
     5  C   -0.927747   0.292080
     6  C    0.190764  -0.233382
     7  C   -0.221767   0.105749
     8  N   -0.069938   0.052797
     9  C    0.152941  -0.617506
    10  N    0.172045  -0.048026
    11  C   -0.128057  -0.194608
    12  N   -0.074345   0.006993
    13  C    0.044118  -0.023720
    14  N   -0.129950   0.023975
    15  C   -0.449546  -0.145894
    16  C    0.819989  -0.876383
    17  N   -0.134468  -0.071346
    18  C    0.199302   0.067581
    19  N   -0.150973  -0.007057
    20  H    0.143561   0.018386
    21  H    0.173481   0.018253
    22  H    0.149450   0.000291
    23  H   -0.053779   0.163847
    24  H    0.063626   0.082426
    25  H    0.117618   0.022882
    26  H    0.223291   0.001668
    27  H    0.124686   0.053072
    28  H    0.044633   0.183455
    29  H    0.175165  -0.000648
    30  H   -0.707326   1.050159
    31  H   -0.398223   0.590020
 Sum of Mulliken charges =  -1.00000   1.00000

 Dipole moment (field-independent basis, Debye):
    X=             -4.9697    Y=             -0.8645    Z=              3.8592  Tot=              6.3513
 Quadrupole moment (field-independent basis, Debye-Ang):
   XX=           -178.1588   YY=           -127.9063   ZZ=           -148.4773
   XY=             -1.1975   XZ=              1.4456   YZ=              3.2704

 Summary of Natural Population Analysis:

                                       Natural Population
                Natural  -----------------------------------------------
    Atom  No    Charge         Core      Valence    Rydberg      Total
 -----------------------------------------------------------------------
      C    1   -0.10081      0.99960     2.09337    0.00785     3.10081
      O    2   -0.27339      0.99985     3.26387    0.00967     4.27339
      C    3    0.27434      0.99941     1.70899    0.01725     2.72566
      C    4   -0.05162      0.99946     2.04201    0.01015     3.05162
      C    5   -0.04959      0.99953     2.04140    0.00866     3.04959
      C    6   -0.15199      0.99956     2.14306    0.00937     3.15199
      C    7    0.05395      0.99960     1.93221    0.01425     2.94605
      N    8   -0.25487      0.99966     2.74469    0.01052     3.75487
      C    9   -0.09724      0.99958     2.08505    0.01261     3.09724
      N   10   -0.29922      0.99967     2.78857    0.01098     3.79922
      C   11    0.22281      0.99949     1.76222    0.01549     2.77719
      N   12   -0.27986      0.99967     2.77056    0.00963     3.77986
      C   13    0.13623      0.99967     1.84631    0.01779     2.86377
      N   14   -0.25436      0.99968     2.74482    0.00986     3.75436
      C   15    0.17084      0.99947     1.80988    0.01980     2.82916
      C   16    0.00611      0.99939     1.98141    0.01310     2.99389
      N   17   -0.26934      0.99967     2.75807    0.01161     3.76934
      C   18    0.13663      0.99966     1.84550    0.01821     2.86337
      N   19   -0.25999      0.99970     2.75064    0.00966     3.75999
      H   20    0.08663      0.00000     0.41225    0.00112     0.41337
      H   21    0.09050      0.00000     0.40819    0.00131     0.40950
      H   22    0.09243      0.00000     0.40681    0.00077     0.40757
      H   23    0.09534      0.00000     0.40362    0.00105     0.40466
      H   24    0.09950      0.00000     0.39967    0.00083     0.40050
      H   25    0.08414      0.00000     0.41486    0.00100     0.41586
      H   26    0.12018      0.00000     0.37830    0.00153     0.37982
      H   27    0.09275      0.00000     0.40618    0.00108     0.40725
      H   28    0.19204      0.00000     0.30399    0.00397     0.30796
      H   29    0.07788      0.00000     0.42107    0.00105     0.42212
      H   30    0.21676      0.00000     0.24863    0.03462     0.28324
      H   31    0.09325      0.00000     0.40529    0.00146     0.40675
 =======================================================================
   * Total *    0.00000     18.99230    47.72148    0.28623    67.00000

 Normal termination of Gaussian 16 at Sun Dec 13 17:13:21 2020.
