 Gaussian 16, Revision A.03,

 -----------------------------------------------------------
 # opt freq B3LYP/6-31G(d) empiricaldispersion=gd3bj scf=xqc
 -----------------------------------------------------------

 -------------------------------
 CID_118387719_JID_2591_neutraal
 -------------------------------
 Symbolic Z-matrix:
 Charge =  0 Multiplicity = 1

 SCF Done:  E(RB3LYP) =  -549.770478849     A.U. after   15 cycles
 SCF Done:  E(RB3LYP) =  -549.774864734     A.U. after   12 cycles
 SCF Done:  E(RB3LYP) =  -549.776319344     A.U. after   12 cycles
 SCF Done:  E(RB3LYP) =  -549.777326396     A.U. after   12 cycles
 SCF Done:  E(RB3LYP) =  -549.777995023     A.U. after   12 cycles
 SCF Done:  E(RB3LYP) =  -549.778456444     A.U. after   12 cycles
 SCF Done:  E(RB3LYP) =  -549.778742062     A.U. after   10 cycles
 SCF Done:  E(RB3LYP) =  -549.778799315     A.U. after   11 cycles
 SCF Done:  E(RB3LYP) =  -549.778965736     A.U. after   11 cycles
 SCF Done:  E(RB3LYP) =  -549.779088441     A.U. after   11 cycles
 SCF Done:  E(RB3LYP) =  -549.779118308     A.U. after    7 cycles
 SCF Done:  E(RB3LYP) =  -549.779118352     A.U. after    7 cycles
 SCF Done:  E(RB3LYP) =  -549.779118402     A.U. after    7 cycles
 SCF Done:  E(RB3LYP) =  -549.779118473     A.U. after    7 cycles
 SCF Done:  E(RB3LYP) =  -549.779118542     A.U. after    7 cycles
 SCF Done:  E(RB3LYP) =  -549.779118583     A.U. after    7 cycles
 Optimization completed.
    -- Stationary point found.
 Normal termination of Gaussian 16 at Wed Dec  9 17:42:16 2020.

 --------------------------------------------------------------------
 #N Geom=AllCheck Guess=TCheck SCRF=Check GenChk RB3LYP/6-31G(d) Freq
 --------------------------------------------------------------------

 Structure from the checkpoint file:  "JID_2591.chk"
 -------------------------------
 CID_118387719_JID_2591_neutraal
 -------------------------------
 Charge =  0 Multiplicity = 1

 SCF Done:  E(RB3LYP) =  -549.779118583     A.U. after    1 cycles

  Exact polarizability: 166.919   4.441 102.210   0.337  -0.088  49.821
 Approx polarizability: 249.264  11.145 180.917  -2.113   0.811  75.932

                      1                      2                      3
                      A                      A                      A
 Frequencies --     53.0593                94.2502               100.7857
 Red. masses --      1.6563                 2.6522                 2.0085
 Frc consts  --      0.0027                 0.0139                 0.0120
 IR Inten    --      0.0387                 3.0362                 2.0815

                      4                      5                      6
                      A                      A                      A
 Frequencies --    154.9358               210.8788               222.8148
 Red. masses --      1.5063                 3.9280                 3.3417
 Frc consts  --      0.0213                 0.1029                 0.0977
 IR Inten    --      4.1398                 4.4299                 1.8369

                      7                      8                      9
                      A                      A                      A
 Frequencies --    250.8617               363.6050               375.0799
 Red. masses --      2.3418                 7.7667                 3.2976
 Frc consts  --      0.0868                 0.6050                 0.2733
 IR Inten    --      5.2422                 1.8171                 0.2536

                     10                     11                     12
                      A                      A                      A
 Frequencies --    410.4957               444.8572               522.7176
 Red. masses --      4.5278                 3.7467                 3.4607
 Frc consts  --      0.4495                 0.4369                 0.5571
 IR Inten    --      4.9858                 0.9185                 0.1613

                     13                     14                     15
                      A                      A                      A
 Frequencies --    556.2543               621.6400               638.9685
 Red. masses --      4.9330                 5.5900                 3.5797
 Frc consts  --      0.8993                 1.2727                 0.8611
 IR Inten    --      3.8991                 7.9794                14.6191

                     16                     17                     18
                      A                      A                      A
 Frequencies --    691.7457               747.0537               779.1515
 Red. masses --      3.2644                 6.4870                 8.3708
 Frc consts  --      0.9203                 2.1330                 2.9941
 IR Inten    --      2.4611                10.5851                 7.6791

                     19                     20                     21
                      A                      A                      A
 Frequencies --    812.0345               825.3183               831.7220
 Red. masses --      1.7208                 9.2027                 1.5131
 Frc consts  --      0.6686                 3.6933                 0.6167
 IR Inten    --     30.4671                 4.4014                10.4379

                     22                     23                     24
                      A                      A                      A
 Frequencies --    916.1380               935.8219               964.4595
 Red. masses --      4.7884                12.3480                 1.2992
 Frc consts  --      2.3679                 6.3714                 0.7120
 IR Inten    --      9.3056                 2.1900                 2.4517

                     25                     26                     27
                      A                      A                      A
 Frequencies --   1017.6717              1088.8067              1096.5627
 Red. masses --      2.6792                 6.2754                 1.5649
 Frc consts  --      1.6348                 4.3832                 1.1087
 IR Inten    --     24.7577                94.3898                20.7964

                     28                     29                     30
                      A                      A                      A
 Frequencies --   1141.7055              1145.7972              1171.6252
 Red. masses --      1.3527                 1.6929                 1.3694
 Frc consts  --      1.0389                 1.3095                 1.1076
 IR Inten    --     11.1195                24.4160                46.0405

                     31                     32                     33
                      A                      A                      A
 Frequencies --   1180.7875              1234.6119              1277.8026
 Red. masses --      1.5602                 1.7433                 4.6149
 Frc consts  --      1.2816                 1.5656                 4.4395
 IR Inten    --      4.2157                29.7546                65.1852

                     34                     35                     36
                      A                      A                      A
 Frequencies --   1306.1771              1337.0762              1374.1135
 Red. masses --      3.1762                 1.9092                 5.8550
 Frc consts  --      3.1927                 2.0110                 6.5137
 IR Inten    --     17.4944                 1.4664                 4.4195

                     37                     38                     39
                      A                      A                      A
 Frequencies --   1418.6232              1449.2163              1464.6455
 Red. masses --      3.0012                 3.1058                 1.1687
 Frc consts  --      3.5586                 3.8432                 1.4772
 IR Inten    --     28.8356               244.8218                 3.8317

                     40                     41                     42
                      A                      A                      A
 Frequencies --   1498.8397              1513.3308              1521.0749
 Red. masses --      1.3918                 1.1177                 1.1017
 Frc consts  --      1.8422                 1.5082                 1.5019
 IR Inten    --     14.7635                27.9385                22.6593

                     43                     44                     45
                      A                      A                      A
 Frequencies --   1533.4717              1548.9314              1567.9780
 Red. masses --      1.1125                 1.1624                 6.4751
 Frc consts  --      1.5413                 1.6431                 9.3795
 IR Inten    --      8.4722                 5.5001                38.7255

                     46                     47                     48
                      A                      A                      A
 Frequencies --   1577.8410              1636.5998              1684.9218
 Red. masses --      2.1465                 6.9488                 8.6628
 Frc consts  --      3.1485                10.9658                14.4901
 IR Inten    --    237.8685                97.9625               237.3767

                     49                     50                     51
                      A                      A                      A
 Frequencies --   3005.3632              3015.4457              3083.9311
 Red. masses --      1.0512                 1.0562                 1.0886
 Frc consts  --      5.5939                 5.6586                 6.1001
 IR Inten    --     61.3321               100.6955                33.5746

                     52                     53                     54
                      A                      A                      A
 Frequencies --   3109.7074              3149.6788              3186.6046
 Red. masses --      1.0852                 1.0976                 1.0984
 Frc consts  --      6.1829                 6.4157                 6.5713
 IR Inten    --     36.8505                23.0369                 3.6685

                     55                     56                     57
                      A                      A                      A
 Frequencies --   3216.7018              3249.6649              3293.9295
 Red. masses --      1.0910                 1.0916                 1.0984
 Frc consts  --      6.6510                 6.7916                 7.0218
 IR Inten    --      6.0216                 8.8446                 0.1112

 - Thermochemistry -
 -------------------
 Temperature   298.150 Kelvin.  Pressure   1.00000 Atm.
 Atom     1 has atomic number  6 and mass  12.00000

 Molecular mass:   163.07456 amu.
 Principal axes and moments of inertia in atomic units:
                           1         2         3
     Eigenvalues --   729.767922865.186543568.60088
           X            1.00000  -0.00136   0.00212
           Y            0.00136   1.00000  -0.00128
           Z           -0.00212   0.00128   1.00000
 This molecule is an asymmetric top.
 Rotational symmetry number  1.
 Warning -- assumption of classical behavior for rotation
           may cause significant error
 Rotational temperatures (Kelvin)      0.11869     0.03023     0.02427
 Rotational constants (GHZ):           2.47303     0.62989     0.50573
 Zero-point vibrational energy     440368.6 (Joules/Mol)
                                  105.25063 (Kcal/Mol)
 Warning -- explicit consideration of  13 degrees of freedom as
           vibrations may cause significant error
 Vibrational temperatures:     76.34   135.60   145.01   222.92   303.41
          (Kelvin)            320.58   360.93   523.15   539.66   590.61
                              640.05   752.07   800.33   894.40   919.33
                              995.27  1074.84  1121.03  1168.34  1187.45
                             1196.66  1318.12  1346.44  1387.64  1464.20
                             1566.55  1577.71  1642.66  1648.55  1685.71
                             1698.89  1776.33  1838.47  1879.30  1923.75
                             1977.04  2041.08  2085.10  2107.30  2156.50
                             2177.35  2188.49  2206.32  2228.57  2255.97
                             2270.16  2354.70  2424.23  4324.05  4338.55
                             4437.09  4474.18  4531.69  4584.81  4628.12
                             4675.54  4739.23

 Zero-point correction=                           0.167728 (Hartree/Particle)
 Thermal correction to Energy=                    0.177913
 Thermal correction to Enthalpy=                  0.178857
 Thermal correction to Gibbs Free Energy=         0.131430
 Sum of electronic and zero-point Energies=           -549.611391
 Sum of electronic and thermal Energies=              -549.601206
 Sum of electronic and thermal Enthalpies=            -549.600262
 Sum of electronic and thermal Free Energies=         -549.647689

                     E (Thermal)             CV                S
                      KCal/Mol        Cal/Mol-Kelvin    Cal/Mol-Kelvin
 Total                  111.642             38.161             99.819
 Electronic               0.000              0.000              0.000
 Translational            0.889              2.981             41.176
 Rotational               0.889              2.981             30.390
 Vibrational            109.865             32.200             28.253
 Vibration     1          0.596              1.976              4.700
 Vibration     2          0.603              1.953              3.570
 Vibration     3          0.604              1.948              3.439
 Vibration     4          0.620              1.897              2.611
 Vibration     5          0.643              1.824              2.036
 Vibration     6          0.648              1.806              1.936
 Vibration     7          0.663              1.761              1.725
 Vibration     8          0.737              1.547              1.107
 Vibration     9          0.746              1.523              1.059
 Vibration    10          0.775              1.447              0.925
 Vibration    11          0.804              1.372              0.811
 Vibration    12          0.878              1.200              0.604
 Vibration    13          0.912              1.126              0.531

 Optimization completed.
    -- Stationary point found.
 Normal termination of Gaussian 16 at Wed Dec  9 17:47:33 2020.

 ----------------------------------------------------------------------
 # B3LYP/6-311++G(d,p) empiricaldispersion=gd3bj scf=xqc pop=npa geom=c
 heck
 ----------------------------------------------------------------------

 ---------------------------------------
 CID_118387719_JID_2591_Energie_neutraal
 ---------------------------------------
 Structure from the checkpoint file:  "JID_2591.chk"
 Charge =  0 Multiplicity = 1

 SCF Done:  E(RB3LYP) =  -549.924093049     A.U. after   15 cycles
 Normal termination of Gaussian 16 at Wed Dec  9 17:49:32 2020.

 ----------------------------------------------------------------------
 # B3LYP/6-311++G(d,p) empiricaldispersion=gd3bj scf=xqc pop=npa geom=c
 heck
 ----------------------------------------------------------------------

 -------------------------------------
 CID_118387719_JID_2591_Energie_kation
 -------------------------------------
 Structure from the checkpoint file:  "JID_2591.chk"
 Charge =  1 Multiplicity = 2

 SCF Done:  E(UB3LYP) =  -549.649585816     A.U. after   19 cycles
 Normal termination of Gaussian 16 at Wed Dec  9 17:53:35 2020.
 Gaussian 16:  ES64L-G16RevA.03 25-Dec-2016

 ----------------------------------------------------------------------
 # B3LYP/6-311++G(d,p) empiricaldispersion=gd3bj scf=xqc pop=npa geom=c
 heck
 ----------------------------------------------------------------------

 ------------------------------------
 CID_118387719_JID_2591_Energie_anion
 ------------------------------------
 Structure from the checkpoint file:  "JID_2591.chk"
 Charge = -1 Multiplicity = 2

                         Standard orientation:
 ---------------------------------------------------------------------
 Center     Atomic      Atomic             Coordinates (Angstroms)
 Number     Number       Type             X           Y           Z
 ---------------------------------------------------------------------
      1          6           0        3.373705    0.791614    0.059484
      2          7           0        2.356360   -0.224800   -0.133523
      3          6           0        2.746990   -1.613719    0.065161
      4          6           0        1.023638    0.115984   -0.063260
      5          7           0        0.139206   -0.907485   -0.048201
      6          6           0       -1.120093   -0.536239   -0.022785
      7          6           0       -1.655259    0.755661    0.004527
      8          6           0       -0.740905    1.810683    0.008503
      9          6           0        0.607747    1.482210   -0.022429
     10          7           0       -3.050363    0.675653    0.037761
     11          6           0       -3.280149   -0.595461    0.028609
     12          8           0       -2.176294   -1.417012   -0.006233
     13          1           0        4.355249    0.333918   -0.077175
     14          1           0        3.340360    1.242502    1.063686
     15          1           0        3.274774    1.592824   -0.681107
     16          1           0        2.798235   -1.883830    1.131156
     17          1           0        2.019402   -2.267209   -0.413620
     18          1           0        3.730591   -1.771666   -0.385661
     19          1           0       -1.066502    2.845502    0.040568
     20          1           0        1.344145    2.274157   -0.011299
     21          1           0       -4.236369   -1.098082    0.044187
 ---------------------------------------------------------------------

 SCF Done:  E(UB3LYP) =  -549.914649399     A.U. after   32 cycles

 The electronic state is 2-A.
 Alpha  occ. eigenvalues --  -19.07648 -14.21535 -14.19734 -14.17884 -10.13647
 Alpha  occ. eigenvalues --  -10.13556 -10.12098 -10.08176 -10.07737 -10.07422
 Alpha  occ. eigenvalues --  -10.05772 -10.05109  -1.01149  -0.85676  -0.80976
 Alpha  occ. eigenvalues --   -0.79722  -0.67769  -0.63911  -0.60731  -0.56896
 Alpha  occ. eigenvalues --   -0.52496  -0.48888  -0.47916  -0.41647  -0.40761
 Alpha  occ. eigenvalues --   -0.38886  -0.36515  -0.35091  -0.34856  -0.33089
 Alpha  occ. eigenvalues --   -0.30715  -0.28748  -0.28460  -0.28273  -0.27003
 Alpha  occ. eigenvalues --   -0.26356  -0.26316  -0.22628  -0.19760  -0.16614
 Alpha  occ. eigenvalues --   -0.15265  -0.14700  -0.08271   0.04933
 Alpha virt. eigenvalues --    0.06971   0.08415   0.08586   0.09655   0.10193
 Alpha virt. eigenvalues --    0.11156   0.11291   0.12315   0.13120   0.13591
 Alpha virt. eigenvalues --    0.14107   0.14428   0.15351   0.15604   0.16101

  Beta  occ. eigenvalues --  -19.07644 -14.21527 -14.19700 -14.17732 -10.13568
  Beta  occ. eigenvalues --  -10.13458 -10.12006 -10.08117 -10.07705 -10.07425
  Beta  occ. eigenvalues --  -10.05524 -10.05118  -1.01078  -0.85532  -0.80855
  Beta  occ. eigenvalues --   -0.79587  -0.67461  -0.63736  -0.60644  -0.56679
  Beta  occ. eigenvalues --   -0.52393  -0.48660  -0.47755  -0.41516  -0.40653
  Beta  occ. eigenvalues --   -0.38799  -0.36222  -0.34980  -0.34717  -0.32987
  Beta  occ. eigenvalues --   -0.30610  -0.28691  -0.28396  -0.28186  -0.26889
  Beta  occ. eigenvalues --   -0.26297  -0.25775  -0.22217  -0.19678  -0.16149
  Beta  occ. eigenvalues --   -0.14559  -0.14463  -0.07838
  Beta virt. eigenvalues --    0.07770   0.08398   0.08865   0.09095   0.10137
  Beta virt. eigenvalues --    0.10993   0.11658   0.11771   0.12863   0.13210
  Beta virt. eigenvalues --    0.13849   0.14211   0.14646   0.15430   0.15857

 Mulliken charges and spin densities:
               1          2
     1  C    1.535297  -1.840399
     2  N   -0.196081   0.272908
     3  C    0.315165  -0.681768
     4  C   -1.100896   0.194100
     5  N   -0.369995   0.147249
     6  C   -0.358039   0.217009
     7  C    0.474037  -0.198958
     8  C   -0.682173  -0.049272
     9  C    0.861229  -0.143578
    10  N   -0.177796   0.009807
    11  C    0.326384   0.169251
    12  O   -0.082249  -0.006897
    13  H   -0.814072   0.949099
    14  H   -0.380560   0.554551
    15  H   -0.288591   0.425139
    16  H   -0.182307   0.342831
    17  H    0.057676   0.110915
    18  H   -0.102555   0.229617
    19  H    0.056381   0.081356
    20  H   -0.062482   0.218234
    21  H    0.171629  -0.001192
 Sum of Mulliken charges =  -1.00000   1.00000

 Dipole moment (field-independent basis, Debye):
    X=             -6.2897    Y=             -1.2996    Z=             -0.7953  Tot=              6.4716
 Quadrupole moment (field-independent basis, Debye-Ang):
   XX=           -141.4655   YY=            -96.1067   ZZ=            -90.0767
   XY=              0.6217   XZ=             -3.9668   YZ=             -0.5138

 Summary of Natural Population Analysis:

                                       Natural Population
                Natural  -----------------------------------------------
    Atom  No    Charge         Core      Valence    Rydberg      Total
 -----------------------------------------------------------------------
      C    1   -0.17435      0.99964     2.16634    0.00837     3.17435
      N    2   -0.24792      0.99966     2.73673    0.01154     3.74792
      C    3   -0.17411      0.99964     2.16592    0.00855     3.17411
      C    4    0.22419      0.99953     1.76080    0.01548     2.77581
      N    5   -0.25511      0.99961     2.74589    0.00961     3.75511
      C    6    0.24783      0.99938     1.73545    0.01734     2.75217
      C    7   -0.00425      0.99942     1.99183    0.01301     3.00425
      C    8   -0.03385      0.99954     2.02403    0.01028     3.03385
      C    9   -0.15530      0.99955     2.14731    0.00844     3.15530
      N   10   -0.24884      0.99970     2.73798    0.01116     3.74884
      C   11    0.20868      0.99965     1.77289    0.01878     2.79132
      O   12   -0.24731      0.99986     3.24030    0.00715     4.24731
      H   13    0.10104      0.00000     0.39655    0.00241     0.39896
      H   14    0.09402      0.00000     0.40276    0.00322     0.40598
      H   15    0.09369      0.00000     0.40471    0.00160     0.40631
      H   16    0.08855      0.00000     0.40984    0.00161     0.41145
      H   17    0.10896      0.00000     0.38910    0.00194     0.39104
      H   18    0.09227      0.00000     0.40672    0.00102     0.40773
      H   19    0.09728      0.00000     0.40143    0.00129     0.40272
      H   20    0.10449      0.00000     0.39431    0.00120     0.39551
      H   21    0.08007      0.00000     0.41900    0.00093     0.41993
 =======================================================================
   * Total *    0.00000     11.99518    30.84988    0.15494    43.00000

 Normal termination of Gaussian 16 at Wed Dec  9 17:59:40 2020.
