 Gaussian 16, Revision A.03,

 -----------------------------------------------------------
 # opt freq B3LYP/6-31G(d) empiricaldispersion=gd3bj scf=xqc
 -----------------------------------------------------------

 --------------------------------
 CID_122560259_JID_10463_neutraal
 --------------------------------
 Symbolic Z-matrix:
 Charge =  0 Multiplicity = 1

 SCF Done:  E(RB3LYP) =  -1291.07230726     A.U. after   15 cycles
 SCF Done:  E(RB3LYP) =  -1291.08184409     A.U. after   12 cycles
 SCF Done:  E(RB3LYP) =  -1291.08339397     A.U. after   12 cycles
 SCF Done:  E(RB3LYP) =  -1291.08374100     A.U. after   11 cycles
 SCF Done:  E(RB3LYP) =  -1291.08386075     A.U. after   12 cycles
 SCF Done:  E(RB3LYP) =  -1291.08392864     A.U. after   10 cycles
 SCF Done:  E(RB3LYP) =  -1291.08401012     A.U. after   11 cycles
 SCF Done:  E(RB3LYP) =  -1291.08406846     A.U. after   12 cycles
 SCF Done:  E(RB3LYP) =  -1291.08405337     A.U. after   10 cycles
 SCF Done:  E(RB3LYP) =  -1291.08422542     A.U. after   12 cycles
 SCF Done:  E(RB3LYP) =  -1291.08581327     A.U. after    7 cycles
 SCF Done:  E(RB3LYP) =  -1291.08581333     A.U. after    7 cycles
 SCF Done:  E(RB3LYP) =  -1291.08581335     A.U. after    7 cycles
 SCF Done:  E(RB3LYP) =  -1291.08581336     A.U. after    7 cycles
 SCF Done:  E(RB3LYP) =  -1291.08581337     A.U. after    6 cycles
 Optimization completed.
    -- Stationary point found.
 Normal termination of Gaussian 16 at Mon Dec 14 18:05:04 2020.

 --------------------------------------------------------------------
 #N Geom=AllCheck Guess=TCheck SCRF=Check GenChk RB3LYP/6-31G(d) Freq
 --------------------------------------------------------------------

 Structure from the checkpoint file:  "JID_10463.chk"
 --------------------------------
 CID_122560259_JID_10463_neutraal
 --------------------------------
 Charge =  0 Multiplicity = 1

 SCF Done:  E(RB3LYP) =  -1291.08581337     A.U. after    1 cycles

  Exact polarizability: 191.846   0.164 184.229  -1.680  -3.730 145.386
 Approx polarizability: 247.653  -1.025 294.844   0.727 -11.485 242.304

                      1                      2                      3
                      A                      A                      A
 Frequencies --     21.4716                25.3128                28.8632
 Red. masses --      4.5423                 4.2727                 4.6325
 Frc consts  --      0.0012                 0.0016                 0.0023
 IR Inten    --      0.0830                 0.9293                 1.0444

                      4                      5                      6
                      A                      A                      A
 Frequencies --     39.8559                59.7686                77.2109
 Red. masses --      4.6415                 1.0656                 3.0729
 Frc consts  --      0.0043                 0.0022                 0.0108
 IR Inten    --      0.5551                 0.0934                 0.0388

                      7                      8                      9
                      A                      A                      A
 Frequencies --     80.8588                91.1258               120.4261
 Red. masses --      3.9580                 3.8050                 5.6423
 Frc consts  --      0.0152                 0.0186                 0.0482
 IR Inten    --      0.6252                 1.1108                 4.3314

                     10                     11                     12
                      A                      A                      A
 Frequencies --    132.3602               176.2674               189.7881
 Red. masses --      3.9424                 4.9190                 3.6341
 Frc consts  --      0.0407                 0.0900                 0.0771
 IR Inten    --      0.9071                 0.8723                 3.1382

                     13                     14                     15
                      A                      A                      A
 Frequencies --    214.0484               232.8285               244.7168
 Red. masses --      2.5281                 2.4309                 1.6298
 Frc consts  --      0.0682                 0.0776                 0.0575
 IR Inten    --      1.2120                 1.7473                 1.8593

                     16                     17                     18
                      A                      A                      A
 Frequencies --    246.0121               265.0911               304.0789
 Red. masses --      3.3695                 1.2320                 2.9874
 Frc consts  --      0.1202                 0.0510                 0.1627
 IR Inten    --      1.8685                 0.1822                 2.0296

                     19                     20                     21
                      A                      A                      A
 Frequencies --    322.0168               337.6897               340.3778
 Red. masses --      3.8318                 5.2430                 3.8185
 Frc consts  --      0.2341                 0.3523                 0.2607
 IR Inten    --      1.9103                 0.3107                 2.7793

                     22                     23                     24
                      A                      A                      A
 Frequencies --    357.3350               395.8294               426.1766
 Red. masses --      3.8494                 2.5656                 3.5887
 Frc consts  --      0.2896                 0.2368                 0.3840
 IR Inten    --      2.5321                 5.4344                 4.2933

                     25                     26                     27
                      A                      A                      A
 Frequencies --    456.5951               473.0376               493.8663
 Red. masses --      3.8822                 2.3965                 2.9131
 Frc consts  --      0.4769                 0.3160                 0.4186
 IR Inten    --     15.8316                44.1953                 1.7291

                     28                     29                     30
                      A                      A                      A
 Frequencies --    513.3285               563.2000               588.1911
 Red. masses --      3.8855                 2.8306                 7.8719
 Frc consts  --      0.6032                 0.5290                 1.6046
 IR Inten    --     56.9586                74.1393                79.3922

                     31                     32                     33
                      A                      A                      A
 Frequencies --    630.0277               649.3139               658.3636
 Red. masses --      3.3792                 3.4100                 4.6409
 Frc consts  --      0.7903                 0.8471                 1.1852
 IR Inten    --     10.4852                 9.3665                 3.5151

                     34                     35                     36
                      A                      A                      A
 Frequencies --    672.6734               678.8635               688.4916
 Red. masses --      7.0770                 6.3117                 3.6282
 Frc consts  --      1.8867                 1.7138                 1.0133
 IR Inten    --      3.1932                 3.6591                 7.6591

                     37                     38                     39
                      A                      A                      A
 Frequencies --    748.8431               784.6721               800.3829
 Red. masses --      3.0276                 1.3251                 1.2390
 Frc consts  --      1.0003                 0.4807                 0.4677
 IR Inten    --     18.8317                10.7773                14.5196

                     40                     41                     42
                      A                      A                      A
 Frequencies --    804.2125               810.5535               864.1281
 Red. masses --      1.3189                 2.2290                 1.2883
 Frc consts  --      0.5026                 0.8628                 0.5668
 IR Inten    --     30.3083               181.9940                 9.8052

                     43                     44                     45
                      A                      A                      A
 Frequencies --    885.2632               897.9067               940.9026
 Red. masses --      1.3097                 2.5665                 1.5054
 Frc consts  --      0.6047                 1.2192                 0.7852
 IR Inten    --      1.1352                12.9201                17.7560

                     46                     47                     48
                      A                      A                      A
 Frequencies --    949.9969               982.2035               999.0778
 Red. masses --      5.1387                 2.3390                 3.3328
 Frc consts  --      2.7324                 1.3295                 1.9600
 IR Inten    --     18.0568                 8.2752                50.9610

                     49                     50                     51
                      A                      A                      A
 Frequencies --   1013.7329              1047.2160              1051.5360
 Red. masses --      1.4488                 2.8501                 1.8544
 Frc consts  --      0.8772                 1.8415                 1.2081
 IR Inten    --      4.3014                 8.8875                 8.1376

                     52                     53                     54
                      A                      A                      A
 Frequencies --   1074.1364              1077.8118              1079.0037
 Red. masses --      2.1590                 1.8017                 1.5009
 Frc consts  --      1.4676                 1.2332                 1.0295
 IR Inten    --      9.1689                27.1450                 5.9564

                     55                     56                     57
                      A                      A                      A
 Frequencies --   1086.2623              1111.1981              1119.2437
 Red. masses --      2.9950                 3.4181                 2.5346
 Frc consts  --      2.0822                 2.4867                 1.8707
 IR Inten    --     82.3297                43.2482                60.6205

                     58                     59                     60
                      A                      A                      A
 Frequencies --   1141.4422              1160.2149              1174.0370
 Red. masses --      2.6053                 2.2532                 3.2355
 Frc consts  --      1.9999                 1.7870                 2.6276
 IR Inten    --      6.7316                15.9544                25.6349

                     61                     62                     63
                      A                      A                      A
 Frequencies --   1192.1149              1227.7377              1230.8367
 Red. masses --      1.9916                 1.6163                 1.4875
 Frc consts  --      1.6676                 1.4354                 1.3277
 IR Inten    --     14.3887                20.4177                 9.1369

                     64                     65                     66
                      A                      A                      A
 Frequencies --   1267.3396              1275.4016              1295.7700
 Red. masses --      1.5173                 2.1749                 2.3396
 Frc consts  --      1.4358                 2.0844                 2.3145
 IR Inten    --      9.4711                16.1026                 4.7652

                     67                     68                     69
                      A                      A                      A
 Frequencies --   1321.1616              1333.4082              1356.8094
 Red. masses --      4.7157                 5.0153                 1.4023
 Frc consts  --      4.8496                 5.2538                 1.5210
 IR Inten    --    189.9499                36.0633                13.3795

                     70                     71                     72
                      A                      A                      A
 Frequencies --   1363.3566              1401.2043              1406.4501
 Red. masses --      2.0358                 1.8006                 2.3883
 Frc consts  --      2.2295                 2.0829                 2.7835
 IR Inten    --     10.1805                25.2756                59.5335

                     73                     74                     75
                      A                      A                      A
 Frequencies --   1410.6665              1412.2399              1429.6091
 Red. masses --      1.5521                 1.3276                 3.8801
 Frc consts  --      1.8198                 1.5601                 4.6723
 IR Inten    --      7.5439                 5.1685                 8.0616

                     76                     77                     78
                      A                      A                      A
 Frequencies --   1439.8444              1442.9374              1448.0821
 Red. masses --      1.3185                 1.2680                 2.1795
 Frc consts  --      1.6104                 1.5555                 2.6927
 IR Inten    --     36.5395                10.4414                22.5401

                     79                     80                     81
                      A                      A                      A
 Frequencies --   1449.6268              1454.6923              1476.4551
 Red. masses --      1.7838                 1.4486                 3.4390
 Frc consts  --      2.2086                 1.8061                 4.4169
 IR Inten    --     27.5185                 0.4450                 4.6450

                     82                     83                     84
                      A                      A                      A
 Frequencies --   1486.5050              1511.4090              1512.4341
 Red. masses --      2.5501                 1.1003                 1.1207
 Frc consts  --      3.3200                 1.4809                 1.5105
 IR Inten    --     20.3428                 1.2246                 5.4654

                     85                     86                     87
                      A                      A                      A
 Frequencies --   1516.0171              1523.5495              1530.3379
 Red. masses --      1.0430                 1.0440                 1.0495
 Frc consts  --      1.4123                 1.4278                 1.4481
 IR Inten    --      4.9758                13.8628                 7.3195

                     88                     89                     90
                      A                      A                      A
 Frequencies --   1533.1401              1535.0393              1539.0262
 Red. masses --      1.0585                 1.1321                 1.0534
 Frc consts  --      1.4660                 1.5717                 1.4701
 IR Inten    --      5.6744                 8.2796                 2.0178

                     91                     92                     93
                      A                      A                      A
 Frequencies --   1541.6010              1627.3417              3044.2569
 Red. masses --      4.4413                 5.0387                 1.0370
 Frc consts  --      6.2187                 7.8619                 5.6626
 IR Inten    --      6.0294                 4.4559                47.3873

                     94                     95                     96
                      A                      A                      A
 Frequencies --   3055.6748              3063.4252              3069.3870
 Red. masses --      1.0392                 1.0363                 1.0654
 Frc consts  --      5.7172                 5.7298                 5.9139
 IR Inten    --     13.9007                15.1724                18.1289

                     97                     98                     99
                      A                      A                      A
 Frequencies --   3094.9052              3116.8457              3120.4451
 Red. masses --      1.1014                 1.0683                 1.0994
 Frc consts  --      6.2157                 6.1147                 6.3075
 IR Inten    --     21.6848                13.6229                14.2455

                    100                    101                    102
                      A                      A                      A
 Frequencies --   3120.5473              3131.1000              3132.0732
 Red. masses --      1.0968                 1.0985                 1.1004
 Frc consts  --      6.2928                 6.3449                 6.3601
 IR Inten    --     18.7638                 5.4357                23.7879

                    103                    104                    105
                      A                      A                      A
 Frequencies --   3141.2387              3146.8133              3153.7112
 Red. masses --      1.1016                 1.0917                 1.1004
 Frc consts  --      6.4042                 6.3692                 6.4480
 IR Inten    --     17.7707                 5.1637                 7.3332

                    106                    107                    108
                      A                      A                      A
 Frequencies --   3192.7762              3248.9660              3267.5492
 Red. masses --      1.1027                 1.0959                 1.0944
 Frc consts  --      6.6228                 6.8155                 6.8843
 IR Inten    --      1.8158                 7.4249                 6.0814

                    109                    110                    111
                      A                      A                      A
 Frequencies --   3281.9454              3299.2615              3549.6247
 Red. masses --      1.0968                 1.1005                 1.0753
 Frc consts  --      6.9606                 7.0576                 7.9827
 IR Inten    --      1.0040                 0.6139                29.1137

 - Thermochemistry -
 -------------------
 Temperature   298.150 Kelvin.  Pressure   1.00000 Atm.
 Atom     1 has atomic number  6 and mass  12.00000

 Molecular mass:   297.12595 amu.
 Principal axes and moments of inertia in atomic units:
                           1         2         3
     Eigenvalues --  3560.232999285.74503**********
           X            0.99995  -0.00877   0.00554
           Y            0.00890   0.99964  -0.02515
           Z           -0.00532   0.02519   0.99967
 This molecule is an asymmetric top.
 Rotational symmetry number  1.
 Warning -- assumption of classical behavior for rotation
           may cause significant error
 Rotational temperatures (Kelvin)      0.02433     0.00933     0.00794
 Rotational constants (GHZ):           0.50692     0.19436     0.16535
 Zero-point vibrational energy     844097.8 (Joules/Mol)
                                  201.74422 (Kcal/Mol)
 Warning -- explicit consideration of  30 degrees of freedom as
           vibrations may cause significant error
 Vibrational temperatures:     30.89    36.42    41.53    57.34    85.99
          (Kelvin)            111.09   116.34   131.11   173.27   190.44
                              253.61   273.06   307.97   334.99   352.09
                              353.96   381.41   437.50   463.31   485.86
                              489.73   514.13   569.51   613.17   656.94
                              680.60   710.56   738.57   810.32   846.28
                              906.47   934.22   947.24   967.83   976.73
                              990.59  1077.42  1128.97  1151.57  1157.08
                             1166.21  1243.29  1273.70  1291.89  1353.75
                             1366.83  1413.17  1437.45  1458.54  1506.71
                             1512.93  1545.44  1550.73  1552.45  1562.89
                             1598.77  1610.34  1642.28  1669.29  1689.18
                             1715.19  1766.44  1770.90  1823.42  1835.02
                             1864.32  1900.86  1918.48  1952.15  1961.57
                             2016.02  2023.57  2029.63  2031.90  2056.89
                             2071.61  2076.07  2083.47  2085.69  2092.98
                             2124.29  2138.75  2174.58  2176.06  2181.21
                             2192.05  2201.81  2205.85  2208.58  2214.32
                             2218.02  2341.38  4380.01  4396.43  4407.59
                             4416.16  4452.88  4484.45  4489.62  4489.77
                             4504.95  4506.35  4519.54  4527.56  4537.49
                             4593.69  4674.54  4701.27  4721.99  4746.90
                             5107.12

 Zero-point correction=                           0.321500 (Hartree/Particle)
 Thermal correction to Energy=                    0.341892
 Thermal correction to Enthalpy=                  0.342836
 Thermal correction to Gibbs Free Energy=         0.269692
 Sum of electronic and zero-point Energies=          -1290.764313
 Sum of electronic and thermal Energies=             -1290.743922
 Sum of electronic and thermal Enthalpies=           -1290.742978
 Sum of electronic and thermal Free Energies=        -1290.816121

                     E (Thermal)             CV                S
                      KCal/Mol        Cal/Mol-Kelvin    Cal/Mol-Kelvin
 Total                  214.540             75.256            153.943
 Electronic               0.000              0.000              0.000
 Translational            0.889              2.981             42.964
 Rotational               0.889              2.981             34.244
 Vibrational            212.763             69.294             76.735
 Vibration     1          0.593              1.985              6.493
 Vibration     2          0.593              1.985              6.167
 Vibration     3          0.593              1.984              5.906
 Vibration     4          0.594              1.981              5.266
 Vibration     5          0.597              1.973              4.465
 Vibration     6          0.599              1.964              3.961
 Vibration     7          0.600              1.962              3.870
 Vibration     8          0.602              1.955              3.636
 Vibration     9          0.609              1.932              3.094
 Vibration    10          0.612              1.921              2.911
 Vibration    11          0.628              1.872              2.368
 Vibration    12          0.633              1.854              2.230
 Vibration    13          0.644              1.820              2.009
 Vibration    14          0.654              1.791              1.857
 Vibration    15          0.660              1.772              1.768
 Vibration    16          0.660              1.769              1.759
 Vibration    17          0.671              1.737              1.628
 Vibration    18          0.695              1.666              1.394
 Vibration    19          0.707              1.631              1.300
 Vibration    20          0.718              1.600              1.223
 Vibration    21          0.720              1.595              1.210
 Vibration    22          0.733              1.560              1.134
 Vibration    23          0.763              1.479              0.978
 Vibration    24          0.788              1.413              0.871
 Vibration    25          0.815              1.346              0.776
 Vibration    26          0.830              1.310              0.729
 Vibration    27          0.850              1.264              0.674
 Vibration    28          0.868              1.220              0.626
 Vibration    29          0.919              1.111              0.517
 Vibration    30          0.945              1.057              0.470

 Optimization completed.
    -- Stationary point found.
 Normal termination of Gaussian 16 at Mon Dec 14 18:24:30 2020.

 ----------------------------------------------------------------------
 # B3LYP/6-311++G(d,p) empiricaldispersion=gd3bj scf=xqc pop=npa geom=c
 heck
 ----------------------------------------------------------------------

 ----------------------------------------
 CID_122560259_JID_10463_Energie_neutraal
 ----------------------------------------
 Structure from the checkpoint file:  "JID_10463.chk"
 Charge =  0 Multiplicity = 1

 SCF Done:  E(RB3LYP) =  -1291.35722682     A.U. after   17 cycles
 Normal termination of Gaussian 16 at Mon Dec 14 18:33:09 2020.

 ----------------------------------------------------------------------
 # B3LYP/6-311++G(d,p) empiricaldispersion=gd3bj scf=xqc pop=npa geom=c
 heck
 ----------------------------------------------------------------------

 --------------------------------------
 CID_122560259_JID_10463_Energie_kation
 --------------------------------------
 Structure from the checkpoint file:  "JID_10463.chk"
 Charge =  1 Multiplicity = 2

 SCF Done:  E(UB3LYP) =  -1291.05245782     A.U. after   33 cycles
 SCF Done:  E(UB3LYP) =  -1291.05245782     a.u. after    1 cycles
 Normal termination of Gaussian 16 at Mon Dec 14 18:56:50 2020.
 Gaussian 16:  ES64L-G16RevA.03 25-Dec-2016

 ----------------------------------------------------------------------
 # B3LYP/6-311++G(d,p) empiricaldispersion=gd3bj scf=xqc pop=npa geom=c
 heck
 ----------------------------------------------------------------------

 -------------------------------------
 CID_122560259_JID_10463_Energie_anion
 -------------------------------------
 Structure from the checkpoint file:  "JID_10463.chk"
 Charge = -1 Multiplicity = 2

                         Standard orientation:
 ---------------------------------------------------------------------
 Center     Atomic      Atomic             Coordinates (Angstroms)
 Number     Number       Type             X           Y           Z
 ---------------------------------------------------------------------
      1          6           0        0.967801   -2.424223    1.531737
      2          6           0        2.359600   -1.798441    1.491834
      3          7           0        2.709718   -1.335382    0.142939
      4          6           0        2.492142   -0.133572   -0.475110
      5          6           0        2.908380   -0.261138   -1.793274
      6          6           0        3.349310   -1.589746   -1.883933
      7          7           0        3.221873   -2.231192   -0.716489
      8         16           0        1.907417    1.343883    0.299499
      9          8           0        1.342028    0.968248    1.603880
     10          8           0        2.905944    2.410076    0.223727
     11          7           0        0.720108    1.787198   -0.802598
     12          6           0       -0.528804    1.026432   -0.841340
     13          6           0       -1.490461    1.238708    0.347986
     14          6           0       -2.005936    2.669834    0.446401
     15          7           0       -2.578292    0.273637    0.218897
     16          6           0       -3.828477    0.431025   -0.301038
     17          6           0       -4.425514   -0.818009   -0.328927
     18          6           0       -3.427346   -1.678326    0.189464
     19          7           0       -2.314137   -1.020840    0.512459
     20          6           0       -5.810502   -1.165144   -0.786401
     21          1           0        0.185662   -1.701819    1.283042
     22          1           0        0.768927   -2.804280    2.539758
     23          1           0        0.908890   -3.261462    0.829229
     24          1           0        2.431566   -0.948134    2.167084
     25          1           0        3.128601   -2.529736    1.748314
     26          1           0        2.887218    0.507833   -2.549883
     27          1           0        3.757468   -2.111041   -2.738973
     28          1           0        0.640013    2.800992   -0.813159
     29          1           0       -1.036894    1.285940   -1.777267
     30          1           0       -0.271362   -0.034515   -0.899569
     31          1           0       -0.962581    0.976760    1.266108
     32          1           0       -2.475592    3.001967   -0.487076
     33          1           0       -2.733350    2.768555    1.257237
     34          1           0       -1.173105    3.344843    0.665206
     35          1           0       -4.209406    1.398400   -0.592592
     36          1           0       -3.480863   -2.748375    0.346427
     37          1           0       -5.796529   -1.933752   -1.568360
     38          1           0       -6.425103   -1.551377    0.035983
     39          1           0       -6.322054   -0.287866   -1.195219
 ---------------------------------------------------------------------

 SCF Done:  E(UB3LYP) =  -1291.35292171     A.U. after   31 cycles

 The electronic state is 2-A.
 Alpha  occ. eigenvalues --  -88.97440 -19.02361 -19.02169 -14.29638 -14.29437
 Alpha  occ. eigenvalues --  -14.25119 -14.23522 -14.23464 -10.12860 -10.12702
 Alpha  occ. eigenvalues --  -10.12154 -10.11878 -10.10892 -10.10020 -10.09543
 Alpha  occ. eigenvalues --  -10.08298 -10.08169 -10.07939 -10.07868 -10.06833
 Alpha  occ. eigenvalues --   -8.03475  -5.99766  -5.99713  -5.99619  -1.02800
 Alpha  occ. eigenvalues --   -0.96155  -0.95776  -0.91598  -0.83961  -0.76173
 Alpha  occ. eigenvalues --   -0.75329  -0.71241  -0.70735  -0.67178  -0.65062
 Alpha  occ. eigenvalues --   -0.62016  -0.61483  -0.57985  -0.55315  -0.53591
 Alpha  occ. eigenvalues --   -0.51545  -0.49625  -0.47362  -0.46472  -0.44551
 Alpha  occ. eigenvalues --   -0.43475  -0.42697  -0.40806  -0.38030  -0.37368
 Alpha  occ. eigenvalues --   -0.37038  -0.36668  -0.35968  -0.35080  -0.34876
 Alpha  occ. eigenvalues --   -0.34256  -0.33438  -0.32829  -0.32144  -0.31868
 Alpha  occ. eigenvalues --   -0.31034  -0.29730  -0.29503  -0.28708  -0.28392
 Alpha  occ. eigenvalues --   -0.28024  -0.27405  -0.26353  -0.25077  -0.23814
 Alpha  occ. eigenvalues --   -0.23457  -0.21574  -0.20330  -0.20244  -0.18983
 Alpha  occ. eigenvalues --   -0.16910  -0.16581  -0.15993  -0.14466   0.03866
 Alpha virt. eigenvalues --    0.05421   0.06409   0.07392   0.07880   0.08315
 Alpha virt. eigenvalues --    0.08395   0.08967   0.09243   0.09785   0.10200
 Alpha virt. eigenvalues --    0.10484   0.11000   0.11297   0.11520   0.12270

  Beta  occ. eigenvalues --  -88.97430 -19.02331 -19.02114 -14.29436 -14.29421
  Beta  occ. eigenvalues --  -14.25089 -14.23519 -14.23298 -10.12768 -10.12701
  Beta  occ. eigenvalues --  -10.12136 -10.11888 -10.10869 -10.10061 -10.09540
  Beta  occ. eigenvalues --  -10.08271 -10.08169 -10.07876 -10.07819 -10.06823
  Beta  occ. eigenvalues --   -8.03464  -5.99751  -5.99681  -5.99614  -1.02685
  Beta  occ. eigenvalues --   -0.95854  -0.95771  -0.91502  -0.83876  -0.76154
  Beta  occ. eigenvalues --   -0.75134  -0.71002  -0.70709  -0.67136  -0.64987
  Beta  occ. eigenvalues --   -0.61943  -0.61403  -0.57776  -0.55265  -0.53520
  Beta  occ. eigenvalues --   -0.51464  -0.49605  -0.47269  -0.46360  -0.44436
  Beta  occ. eigenvalues --   -0.43395  -0.42654  -0.40722  -0.37680  -0.37286
  Beta  occ. eigenvalues --   -0.36951  -0.36611  -0.35827  -0.35008  -0.34813
  Beta  occ. eigenvalues --   -0.34079  -0.33407  -0.32780  -0.32095  -0.31830
  Beta  occ. eigenvalues --   -0.30997  -0.29652  -0.29398  -0.28660  -0.28358
  Beta  occ. eigenvalues --   -0.27957  -0.27347  -0.26327  -0.24995  -0.23668
  Beta  occ. eigenvalues --   -0.23371  -0.21472  -0.20245  -0.20085  -0.18849
  Beta  occ. eigenvalues --   -0.16349  -0.16186  -0.15600  -0.14427
  Beta virt. eigenvalues --    0.06133   0.07000   0.07158   0.07729   0.08051
  Beta virt. eigenvalues --    0.08651   0.08770   0.09232   0.09300   0.09892
  Beta virt. eigenvalues --    0.10444   0.10683   0.11144   0.11391   0.11728

 Mulliken charges and spin densities:
               1          2
     1  C   -0.449910  -0.000105
     2  C   -0.352778  -0.023505
     3  N    0.567391   0.049310
     4  C   -1.522930   0.211776
     5  C    0.646189  -0.053291
     6  C   -0.413864  -0.013556
     7  N   -0.252892   0.090672
     8  S    0.665766  -0.062976
     9  O   -0.160031  -0.000796
    10  O   -0.111124   0.006417
    11  N   -0.022067  -0.043784
    12  C    0.279976  -0.873619
    13  C   -1.892568   1.316182
    14  C    1.010197  -1.657752
    15  N    0.396013  -0.026997
    16  C   -0.112022  -0.564494
    17  C   -0.227882   1.124272
    18  C   -0.901514   0.504794
    19  N    0.011693   0.030016
    20  C    1.681999  -2.398921
    21  H    0.333121  -0.001815
    22  H    0.097750   0.007464
    23  H    0.151036   0.000560
    24  H    0.155191   0.008167
    25  H    0.156257   0.020967
    26  H    0.150625   0.035823
    27  H    0.133033   0.006730
    28  H    0.003511   0.300407
    29  H   -0.151274   0.366172
    30  H    0.268266  -0.022235
    31  H    0.281172  -0.010113
    32  H   -0.453177   0.643845
    33  H   -0.132383   0.300079
    34  H   -0.019711   0.202073
    35  H   -0.493071   0.647060
    36  H    0.094600   0.020000
    37  H   -0.009237   0.152084
    38  H   -0.018335   0.160688
    39  H   -0.387014   0.548400
 Sum of Mulliken charges =  -1.00000   1.00000

 Dipole moment (field-independent basis, Debye):
    X=              4.0427    Y=             -4.7198    Z=              1.7657  Tot=              6.4605
 Quadrupole moment (field-independent basis, Debye-Ang):
   XX=           -222.3876   YY=           -176.1585   ZZ=           -151.0219
   XY=              8.7184   XZ=            -11.2837   YZ=              2.3875

 Summary of Natural Population Analysis:

                                       Natural Population
                Natural  -----------------------------------------------
    Atom  No    Charge         Core      Valence    Rydberg      Total
 -----------------------------------------------------------------------
      C    1   -0.29193      0.99966     2.28816    0.00411     3.29193
      C    2   -0.08578      0.99962     2.07807    0.00809     3.08578
      N    3   -0.07763      0.99962     2.56154    0.01647     3.57763
      C    4   -0.04753      0.99938     2.02880    0.01936     3.04753
      C    5   -0.13458      0.99950     2.12692    0.00816     3.13458
      C    6   -0.03316      0.99965     2.01933    0.01418     3.03316
      N    7   -0.12279      0.99974     2.61240    0.01065     3.62279
      S    8    1.11188      4.99916     1.78644    0.10252     6.88812
      O    9   -0.46882      0.99990     3.46356    0.00536     4.46882
      O   10   -0.45511      0.99990     3.45002    0.00518     4.45511
      N   11   -0.43219      0.99976     2.91996    0.01247     3.93219
      C   12   -0.09902      0.99959     2.08483    0.01460     3.09902
      C   13   -0.01780      0.99957     2.00524    0.01299     3.01780
      C   14   -0.29474      0.99965     2.28873    0.00635     3.29474
      N   15   -0.10787      0.99965     2.59412    0.01411     3.60787
      C   16   -0.00696      0.99949     1.99574    0.01172     3.00696
      C   17   -0.07527      0.99954     2.06647    0.00927     3.07527
      C   18   -0.01409      0.99958     2.00013    0.01439     3.01409
      N   19   -0.15585      0.99973     2.64475    0.01137     3.65585
      C   20   -0.29233      0.99964     2.28723    0.00546     3.29233
      H   21    0.11643      0.00000     0.38263    0.00095     0.38357
      H   22    0.09530      0.00000     0.40387    0.00083     0.40470
      H   23    0.09964      0.00000     0.39948    0.00089     0.40036
      H   24    0.11172      0.00000     0.38729    0.00099     0.38828
      H   25    0.09970      0.00000     0.39923    0.00107     0.40030
      H   26    0.11365      0.00000     0.38540    0.00095     0.38635
      H   27    0.09560      0.00000     0.40352    0.00088     0.40440
      H   28    0.20160      0.00000     0.29612    0.00228     0.29840
      H   29    0.10441      0.00000     0.39441    0.00118     0.39559
      H   30    0.11180      0.00000     0.38680    0.00140     0.38820
      H   31    0.11871      0.00000     0.37935    0.00194     0.38129
      H   32    0.10438      0.00000     0.39261    0.00301     0.39562
      H   33    0.10646      0.00000     0.39260    0.00093     0.39354
      H   34    0.10638      0.00000     0.39255    0.00107     0.39362
      H   35    0.11051      0.00000     0.38765    0.00184     0.38949
      H   36    0.09511      0.00000     0.40409    0.00080     0.40489
      H   37    0.10206      0.00000     0.39705    0.00089     0.39794
      H   38    0.10132      0.00000     0.39778    0.00090     0.39868
      H   39    0.10678      0.00000     0.39206    0.00115     0.39322
 =======================================================================
   * Total *    0.00000     23.99231    54.67689    0.33080    79.00000

 Normal termination of Gaussian 16 at Mon Dec 14 19:18:13 2020.
