 Gaussian 16, Revision A.03,

 -----------------------------------------------------------
 # opt freq B3LYP/6-31G(d) empiricaldispersion=gd3bj scf=xqc
 -----------------------------------------------------------

 ------------------------------
 CID_65562678_JID_6483_neutraal
 ------------------------------
 Symbolic Z-matrix:
 Charge =  0 Multiplicity = 1

 SCF Done:  E(RB3LYP) =  -745.595970677     A.U. after   21 cycles
 SCF Done:  E(RB3LYP) =  -745.714399449     A.U. after   19 cycles
 SCF Done:  E(RB3LYP) =  -745.878595696     A.U. after   20 cycles
 SCF Done:  E(RB3LYP) =  -745.990500018     A.U. after   20 cycles
 SCF Done:  E(RB3LYP) =  -746.114071731     A.U. after   19 cycles
 SCF Done:  E(RB3LYP) =  -746.289002959     A.U. after   18 cycles
 SCF Done:  E(RB3LYP) =  -746.361356299     A.U. after   19 cycles
 SCF Done:  E(RB3LYP) =  -746.384129515     A.U. after   15 cycles
 SCF Done:  E(RB3LYP) =  -746.397973676     A.U. after   17 cycles
 SCF Done:  E(RB3LYP) =  -746.404726402     A.U. after   22 cycles
 SCF Done:  E(RB3LYP) =  -746.619105644     A.U. after    8 cycles
 SCF Done:  E(RB3LYP) =  -746.619109463     A.U. after    8 cycles
 SCF Done:  E(RB3LYP) =  -746.619111447     A.U. after    8 cycles
 SCF Done:  E(RB3LYP) =  -746.619112565     A.U. after    8 cycles
 SCF Done:  E(RB3LYP) =  -746.619113558     A.U. after    8 cycles
 SCF Done:  E(RB3LYP) =  -746.619113849     A.U. after    7 cycles
 Optimization completed.
    -- Stationary point found.
 Normal termination of Gaussian 16 at Fri Dec 11 00:16:11 2020.

 --------------------------------------------------------------------
 #N Geom=AllCheck Guess=TCheck SCRF=Check GenChk RB3LYP/6-31G(d) Freq
 --------------------------------------------------------------------

 Structure from the checkpoint file:  "JID_6483.chk"
 ------------------------------
 CID_65562678_JID_6483_neutraal
 ------------------------------
 Charge =  0 Multiplicity = 1

 SCF Done:  E(RB3LYP) =  -746.619113849     A.U. after    1 cycles

  Exact polarizability: 145.138  -6.204 131.587   3.542   3.258 133.948
 Approx polarizability: 200.546   1.462 176.914   6.478   8.805 206.887

                      1                      2                      3
                      A                      A                      A
 Frequencies --     17.5852                33.8309                49.2472
 Red. masses --      5.0633                 5.6900                 3.0745
 Frc consts  --      0.0009                 0.0038                 0.0044
 IR Inten    --      1.8190                 0.6237                 0.2232

                      4                      5                      6
                      A                      A                      A
 Frequencies --     67.8960                81.4753                87.1939
 Red. masses --      3.7171                 3.3812                 4.2695
 Frc consts  --      0.0101                 0.0132                 0.0191
 IR Inten    --      1.1493                 2.4382                 0.3582

                      7                      8                      9
                      A                      A                      A
 Frequencies --    111.0705               129.5937               149.5074
 Red. masses --      3.9648                 3.2604                 4.2188
 Frc consts  --      0.0288                 0.0323                 0.0556
 IR Inten    --      3.2892                 0.6343                 7.6269

                     10                     11                     12
                      A                      A                      A
 Frequencies --    188.6065               230.1392               234.5276
 Red. masses --      2.2265                 1.1127                 1.3885
 Frc consts  --      0.0467                 0.0347                 0.0450
 IR Inten    --      0.1809                 0.0159                 0.2616

                     13                     14                     15
                      A                      A                      A
 Frequencies --    247.9076               266.8951               296.8230
 Red. masses --      2.5695                 1.7815                 1.2714
 Frc consts  --      0.0930                 0.0748                 0.0660
 IR Inten    --      0.2542                 1.4938                 1.4796

                     16                     17                     18
                      A                      A                      A
 Frequencies --    302.4516               323.3590               342.9959
 Red. masses --      2.9871                 2.1519                 2.5456
 Frc consts  --      0.1610                 0.1326                 0.1764
 IR Inten    --      3.2571                 3.1850                 1.3787

                     19                     20                     21
                      A                      A                      A
 Frequencies --    384.6851               411.2712               431.3373
 Red. masses --      3.0315                 2.8072                 2.0413
 Frc consts  --      0.2643                 0.2798                 0.2238
 IR Inten    --      3.2104                10.0081                 1.5142

                     22                     23                     24
                      A                      A                      A
 Frequencies --    454.0967               479.7700               524.1403
 Red. masses --      2.3598                 2.7135                 1.6913
 Frc consts  --      0.2867                 0.3680                 0.2738
 IR Inten    --      4.1600                 1.7203               198.1713

                     25                     26                     27
                      A                      A                      A
 Frequencies --    534.2521               562.2775               572.5187
 Red. masses --      1.4469                 3.3016                 2.9740
 Frc consts  --      0.2433                 0.6150                 0.5743
 IR Inten    --     28.4354                11.9558                71.7515

                     28                     29                     30
                      A                      A                      A
 Frequencies --    600.7857               615.3353               682.8469
 Red. masses --      2.6961                 3.2554                 3.3228
 Frc consts  --      0.5734                 0.7262                 0.9129
 IR Inten    --     17.9558                23.5359                22.6075

                     31                     32                     33
                      A                      A                      A
 Frequencies --    721.8281               765.0741               779.9391
 Red. masses --      4.6196                 1.6817                 3.0755
 Frc consts  --      1.4181                 0.5800                 1.1023
 IR Inten    --     18.1057                30.9391                 6.6608

                     34                     35                     36
                      A                      A                      A
 Frequencies --    855.2497               864.1884               898.5376
 Red. masses --      1.3333                 1.8461                 2.6415
 Frc consts  --      0.5746                 0.8123                 1.2565
 IR Inten    --     35.0238                22.4174                16.3605

                     37                     38                     39
                      A                      A                      A
 Frequencies --    918.8371               941.7139               950.2458
 Red. masses --      1.6967                 1.6943                 1.7277
 Frc consts  --      0.8440                 0.8853                 0.9191
 IR Inten    --     26.6043                 0.7553                 2.9402

                     40                     41                     42
                      A                      A                      A
 Frequencies --    953.5303               971.8631               996.4476
 Red. masses --      1.8298                 2.0316                 1.8413
 Frc consts  --      0.9802                 1.1306                 1.0772
 IR Inten    --      3.1308                 1.5146                 0.8667

                     43                     44                     45
                      A                      A                      A
 Frequencies --   1001.3103              1023.1126              1029.8363
 Red. masses --      1.8744                 1.8663                 1.3488
 Frc consts  --      1.1073                 1.1510                 0.8428
 IR Inten    --      7.8219                 3.4573                 0.5677

                     46                     47                     48
                      A                      A                      A
 Frequencies --   1046.8520              1113.9371              1124.3105
 Red. masses --      1.5317                 2.6572                 1.7060
 Frc consts  --      0.9890                 1.9427                 1.2706
 IR Inten    --      0.0418                 3.7633                 8.5339

                     49                     50                     51
                      A                      A                      A
 Frequencies --   1129.0839              1136.2963              1179.6256
 Red. masses --      1.5277                 2.2434                 3.1385
 Frc consts  --      1.1475                 1.7067                 2.5731
 IR Inten    --      5.6114                 2.3775                30.2989

                     52                     53                     54
                      A                      A                      A
 Frequencies --   1194.6137              1201.8361              1229.7485
 Red. masses --      2.0471                 1.9471                 2.4740
 Frc consts  --      1.7213                 1.6570                 2.2043
 IR Inten    --      7.4674                 3.1178                19.1892

                     55                     56                     57
                      A                      A                      A
 Frequencies --   1231.8051              1240.7603              1276.2778
 Red. masses --      1.8731                 2.0761                 1.5234
 Frc consts  --      1.6745                 1.8831                 1.4620
 IR Inten    --     16.8608                 1.2542                11.1701

                     58                     59                     60
                      A                      A                      A
 Frequencies --   1295.4956              1308.8093              1318.5061
 Red. masses --      2.5406                 1.2390                 1.3009
 Frc consts  --      2.5122                 1.2505                 1.3325
 IR Inten    --     72.1119                 3.3233                 5.1990

                     61                     62                     63
                      A                      A                      A
 Frequencies --   1331.1718              1341.2206              1376.2282
 Red. masses --      2.4694                 1.5788                 1.4481
 Frc consts  --      2.5781                 1.6733                 1.6159
 IR Inten    --     69.4218                52.1188                 0.3829

                     64                     65                     66
                      A                      A                      A
 Frequencies --   1388.5779              1405.1623              1415.1457
 Red. masses --      1.3624                 1.3029                 1.4839
 Frc consts  --      1.5477                 1.5157                 1.7508
 IR Inten    --      8.5038                16.1964                 0.7019

                     67                     68                     69
                      A                      A                      A
 Frequencies --   1427.4200              1430.5724              1438.9543
 Red. masses --      1.8613                 1.2989                 1.2400
 Frc consts  --      2.2344                 1.5662                 1.5127
 IR Inten    --     62.0738                10.6829                16.0840

                     70                     71                     72
                      A                      A                      A
 Frequencies --   1440.3208              1443.7577              1453.5509
 Red. masses --      1.3544                 1.4556                 1.2502
 Frc consts  --      1.6554                 1.7877                 1.5563
 IR Inten    --      7.9502                15.1431                 6.4254

                     73                     74                     75
                      A                      A                      A
 Frequencies --   1505.8935              1509.3697              1517.6571
 Red. masses --      1.3306                 1.0498                 1.0693
 Frc consts  --      1.7778                 1.4091                 1.4511
 IR Inten    --      6.8675                 0.5887                 0.3561

                     76                     77                     78
                      A                      A                      A
 Frequencies --   1524.3383              1528.3967              1530.8203
 Red. masses --      1.0737                 1.0525                 1.0680
 Frc consts  --      1.4699                 1.4486                 1.4746
 IR Inten    --      4.1539                 8.2879                 5.8278

                     79                     80                     81
                      A                      A                      A
 Frequencies --   1532.5297              1539.2030              1551.5397
 Red. masses --      1.0641                 1.0679                 1.0763
 Frc consts  --      1.4725                 1.4906                 1.5266
 IR Inten    --      2.9846                 6.3487                 4.1344

                     82                     83                     84
                      A                      A                      A
 Frequencies --   1688.0885              1830.8745              1835.2447
 Red. masses --      1.1840                 7.5538                 9.8459
 Frc consts  --      1.9879                14.9188                19.5386
 IR Inten    --     33.8153               319.0599               542.5632

                     85                     86                     87
                      A                      A                      A
 Frequencies --   2933.6470              3003.6288              3032.3631
 Red. masses --      1.0830                 1.0680                 1.0840
 Frc consts  --      5.4913                 5.6771                 5.8726
 IR Inten    --    145.9102                52.3444                20.1319

                     88                     89                     90
                      A                      A                      A
 Frequencies --   3034.4997              3041.5278              3046.1959
 Red. masses --      1.0761                 1.0447                 1.0372
 Frc consts  --      5.8381                 5.6943                 5.6704
 IR Inten    --      3.9892                14.8983                16.3257

                     91                     92                     93
                      A                      A                      A
 Frequencies --   3049.1030              3057.6809              3073.6842
 Red. masses --      1.0632                 1.0397                 1.0950
 Frc consts  --      5.8238                 5.7272                 6.0951
 IR Inten    --     45.2329                34.0739                35.4188

                     94                     95                     96
                      A                      A                      A
 Frequencies --   3088.2098              3103.9850              3107.1905
 Red. masses --      1.0855                 1.0973                 1.1017
 Frc consts  --      6.0993                 6.2289                 6.2670
 IR Inten    --      7.3286                12.3288                 3.4510

                     97                     98                     99
                      A                      A                      A
 Frequencies --   3108.6129              3116.9860              3120.2183
 Red. masses --      1.1002                 1.1012                 1.1019
 Frc consts  --      6.2643                 6.3038                 6.3204
 IR Inten    --     61.6159                42.4239                29.6296

                    100                    101                    102
                      A                      A                      A
 Frequencies --   3132.8752              3154.2070              3313.9794
 Red. masses --      1.1026                 1.0997                 1.0700
 Frc consts  --      6.3758                 6.4464                 6.9236
 IR Inten    --     21.8482                21.2660               780.7070

                    103                    104                    105
                      A                      A                      A
 Frequencies --   3507.9683              3602.5201              3640.6887
 Red. masses --      1.0744                 1.0772                 1.0868
 Frc consts  --      7.7896                 8.2367                 8.4871
 IR Inten    --      0.3990                16.5748                68.4070

 - Thermochemistry -
 -------------------
 Temperature   298.150 Kelvin.  Pressure   1.00000 Atm.
 Atom     1 has atomic number  6 and mass  12.00000

 Molecular mass:   227.16338 amu.
 Principal axes and moments of inertia in atomic units:
                           1         2         3
     Eigenvalues --  3268.924145049.844795734.31029
           X            0.99908  -0.03622   0.02281
           Y            0.03735   0.99798  -0.05130
           Z           -0.02090   0.05210   0.99842
 This molecule is an asymmetric top.
 Rotational symmetry number  1.
 Warning -- assumption of classical behavior for rotation
           may cause significant error
 Rotational temperatures (Kelvin)      0.02650     0.01715     0.01510
 Rotational constants (GHZ):           0.55209     0.35739     0.31473
 Zero-point vibrational energy     857542.5 (Joules/Mol)
                                  204.95757 (Kcal/Mol)
 Warning -- explicit consideration of  29 degrees of freedom as
           vibrations may cause significant error
 Vibrational temperatures:     25.30    48.68    70.86    97.69   117.22
          (Kelvin)            125.45   159.81   186.46   215.11   271.36
                              331.12   337.43   356.68   384.00   427.06
                              435.16   465.24   493.49   553.48   591.73
                              620.60   653.34   690.28   754.12   768.67
                              808.99   823.73   864.40   885.33   982.46
                             1038.55  1100.77  1122.16  1230.51  1243.37
                             1292.80  1322.00  1354.92  1367.19  1371.92
                             1398.29  1433.67  1440.66  1472.03  1481.70
                             1506.19  1602.71  1617.63  1624.50  1634.88
                             1697.22  1718.78  1729.17  1769.33  1772.29
                             1785.18  1836.28  1863.93  1883.08  1897.04
                             1915.26  1929.72  1980.09  1997.85  2021.72
                             2036.08  2053.74  2058.27  2070.33  2072.30
                             2077.25  2091.34  2166.64  2171.65  2183.57
                             2193.18  2199.02  2202.51  2204.97  2214.57
                             2232.32  2428.78  2634.22  2640.51  4220.86
                             4321.55  4362.89  4365.97  4376.08  4382.80
                             4386.98  4399.32  4422.35  4443.25  4465.94
                             4470.55  4472.60  4484.65  4489.30  4507.51
                             4538.20  4768.08  5047.18  5183.22  5238.14

 Zero-point correction=                           0.326621 (Hartree/Particle)
 Thermal correction to Energy=                    0.344402
 Thermal correction to Enthalpy=                  0.345346
 Thermal correction to Gibbs Free Energy=         0.279526
 Sum of electronic and zero-point Energies=           -746.292493
 Sum of electronic and thermal Energies=              -746.274712
 Sum of electronic and thermal Enthalpies=            -746.273767
 Sum of electronic and thermal Free Energies=         -746.339588

                     E (Thermal)             CV                S
                      KCal/Mol        Cal/Mol-Kelvin    Cal/Mol-Kelvin
 Total                  216.116             66.070            138.532
 Electronic               0.000              0.000              0.000
 Translational            0.889              2.981             42.164
 Rotational               0.889              2.981             32.915
 Vibrational            214.338             60.108             63.453
 Vibration     1          0.593              1.986              6.890
 Vibration     2          0.594              1.983              5.591
 Vibration     3          0.595              1.978              4.847
 Vibration     4          0.598              1.970              4.213
 Vibration     5          0.600              1.962              3.855
 Vibration     6          0.601              1.958              3.722
 Vibration     7          0.607              1.940              3.250
 Vibration     8          0.612              1.924              2.952
 Vibration     9          0.618              1.903              2.678
 Vibration    10          0.633              1.856              2.241
 Vibration    11          0.652              1.795              1.878
 Vibration    12          0.654              1.788              1.844
 Vibration    13          0.662              1.766              1.745
 Vibration    14          0.672              1.734              1.616
 Vibration    15          0.690              1.680              1.435
 Vibration    16          0.694              1.669              1.403
 Vibration    17          0.708              1.629              1.293
 Vibration    18          0.722              1.590              1.198
 Vibration    19          0.754              1.503              1.021
 Vibration    20          0.775              1.446              0.922
 Vibration    21          0.792              1.402              0.854
 Vibration    22          0.813              1.352              0.783
 Vibration    23          0.836              1.295              0.711
 Vibration    24          0.879              1.197              0.600
 Vibration    25          0.889              1.174              0.578
 Vibration    26          0.918              1.113              0.519
 Vibration    27          0.929              1.091              0.499
 Vibration    28          0.959              1.030              0.448
 Vibration    29          0.975              0.999              0.424

                           ! Non-Optimized Parameters !
 Normal termination of Gaussian 16 at Fri Dec 11 00:29:33 2020.

 ----------------------------------------------------------------------
 # B3LYP/6-311++G(d,p) empiricaldispersion=gd3bj scf=xqc pop=npa geom=c
 heck
 ----------------------------------------------------------------------

 --------------------------------------
 CID_65562678_JID_6483_Energie_neutraal
 --------------------------------------
 Structure from the checkpoint file:  "JID_6483.chk"
 Charge =  0 Multiplicity = 1

 SCF Done:  E(RB3LYP) =  -746.849418757     A.U. after   14 cycles
 Normal termination of Gaussian 16 at Fri Dec 11 00:35:18 2020.

 ----------------------------------------------------------------------
 # B3LYP/6-311++G(d,p) empiricaldispersion=gd3bj scf=xqc pop=npa geom=c
 heck
 ----------------------------------------------------------------------

 ------------------------------------
 CID_65562678_JID_6483_Energie_kation
 ------------------------------------
 Structure from the checkpoint file:  "JID_6483.chk"
 Charge =  1 Multiplicity = 2

 SCF Done:  E(UB3LYP) =  -746.533266508     A.U. after   31 cycles
 Normal termination of Gaussian 16 at Fri Dec 11 00:53:31 2020.
 Gaussian 16:  ES64L-G16RevA.03 25-Dec-2016

 ----------------------------------------------------------------------
 # B3LYP/6-311++G(d,p) empiricaldispersion=gd3bj scf=xqc pop=npa geom=c
 heck
 ----------------------------------------------------------------------

 -----------------------------------
 CID_65562678_JID_6483_Energie_anion
 -----------------------------------
 Structure from the checkpoint file:  "JID_6483.chk"
 Charge = -1 Multiplicity = 2

                         Standard orientation:
 ---------------------------------------------------------------------
 Center     Atomic      Atomic             Coordinates (Angstroms)
 Number     Number       Type             X           Y           Z
 ---------------------------------------------------------------------
      1          6           0       -0.725143    3.635763   -0.199794
      2          6           0       -0.701511    2.109271   -0.109415
      3          6           0        0.304427    1.498374   -1.090160
      4          6           0        0.311502   -0.038262   -0.999711
      5          6           0        0.371670   -0.600188    0.432925
      6          7           0       -0.395604    0.181236    1.400609
      7          6           0       -0.348015    1.648185    1.307274
      8          6           0        1.569387   -0.606026   -1.656757
      9          8           0        1.845644   -0.581531   -2.843015
     10          7           0        2.355246   -1.118595   -0.656583
     11          6           0        1.894271   -0.882860    0.712141
     12          6           0        2.064016   -2.144001    1.567210
     13          6           0        2.658671    0.283283    1.357968
     14          6           0       -3.396666   -1.473588   -0.280915
     15          8           0       -4.475110   -1.902633   -0.653831
     16          7           0       -3.196860   -0.591483    0.729914
     17          1           0        0.258054    4.059356    0.041024
     18          1           0       -1.456084    4.066221    0.494402
     19          1           0       -0.988964    3.961902   -1.211493
     20          1           0       -1.701432    1.719830   -0.346158
     21          1           0        0.080483    1.786689   -2.122327
     22          1           0        1.302852    1.899541   -0.868369
     23          1           0       -0.571702   -0.416800   -1.523238
     24          1           0       -0.096334   -1.592550    0.404662
     25          1           0       -2.440238   -1.774640   -0.759177
     26          1           0       -0.200100   -0.131061    2.348868
     27          1           0        0.630584    2.070898    1.584123
     28          1           0       -1.080686    2.038424    2.023464
     29          1           0        3.293668   -1.433234   -0.869837
     30          1           0        3.123806   -2.383655    1.712250
     31          1           0        1.622780   -2.000002    2.560940
     32          1           0        1.578429   -3.002101    1.092804
     33          1           0        2.261719    0.515463    2.352213
     34          1           0        3.713916    0.013159    1.479488
     35          1           0        2.612910    1.185762    0.745009
     36          1           0       -2.255114   -0.307510    1.025751
     37          1           0       -4.007943   -0.280199    1.248186
 ---------------------------------------------------------------------

 SCF Done:  E(UB3LYP) =  -746.848043475     A.U. after   32 cycles

 The electronic state is 2-A.
 Alpha  occ. eigenvalues --  -19.00480 -19.00182 -14.24626 -14.23700 -14.22390
 Alpha  occ. eigenvalues --  -10.18277 -10.18229 -10.13592 -10.12426 -10.10594
 Alpha  occ. eigenvalues --  -10.09952 -10.09242 -10.08869 -10.08050 -10.07225
 Alpha  occ. eigenvalues --  -10.07149  -0.95160  -0.94875  -0.86162  -0.82746
 Alpha  occ. eigenvalues --   -0.81106  -0.72828  -0.69888  -0.68857  -0.61404
 Alpha  occ. eigenvalues --   -0.60270  -0.57570  -0.54962  -0.53152  -0.50643
 Alpha  occ. eigenvalues --   -0.49681  -0.46915  -0.45354  -0.42779  -0.39731
 Alpha  occ. eigenvalues --   -0.38963  -0.38875  -0.37486  -0.37175  -0.35744
 Alpha  occ. eigenvalues --   -0.34568  -0.34348  -0.33226  -0.32926  -0.32297
 Alpha  occ. eigenvalues --   -0.31695  -0.31457  -0.30248  -0.29683  -0.29191
 Alpha  occ. eigenvalues --   -0.29083  -0.28597  -0.26682  -0.25473  -0.24785
 Alpha  occ. eigenvalues --   -0.23567  -0.23222  -0.18518  -0.17700  -0.17340
 Alpha  occ. eigenvalues --   -0.16512  -0.15244   0.03513
 Alpha virt. eigenvalues --    0.05884   0.06720   0.07477   0.08001   0.08742
 Alpha virt. eigenvalues --    0.08995   0.09309   0.09749   0.09876   0.10588
 Alpha virt. eigenvalues --    0.10743   0.11381   0.11517   0.11965   0.12397

  Beta  occ. eigenvalues --  -19.00477 -19.00180 -14.24608 -14.23686 -14.22352
  Beta  occ. eigenvalues --  -10.18275 -10.18228 -10.13592 -10.12421 -10.10562
  Beta  occ. eigenvalues --  -10.09950 -10.09240 -10.08860 -10.08035 -10.07169
  Beta  occ. eigenvalues --  -10.07097  -0.95155  -0.94870  -0.86140  -0.82696
  Beta  occ. eigenvalues --   -0.81084  -0.72803  -0.69856  -0.68822  -0.61356
  Beta  occ. eigenvalues --   -0.60190  -0.57511  -0.54904  -0.53125  -0.50586
  Beta  occ. eigenvalues --   -0.49649  -0.46875  -0.45333  -0.42700  -0.39694
  Beta  occ. eigenvalues --   -0.38935  -0.38851  -0.37464  -0.37129  -0.35710
  Beta  occ. eigenvalues --   -0.34534  -0.34303  -0.33200  -0.32916  -0.32258
  Beta  occ. eigenvalues --   -0.31688  -0.31433  -0.30216  -0.29626  -0.29157
  Beta  occ. eigenvalues --   -0.29044  -0.28555  -0.26643  -0.25440  -0.24762
  Beta  occ. eigenvalues --   -0.23542  -0.23190  -0.18505  -0.17683  -0.17324
  Beta  occ. eigenvalues --   -0.16501  -0.15205
  Beta virt. eigenvalues --    0.06006   0.06653   0.07414   0.07881   0.08691
  Beta virt. eigenvalues --    0.08925   0.09278   0.09619   0.09980   0.10223
  Beta virt. eigenvalues --    0.10603   0.11092   0.11689   0.11945   0.12198

 Mulliken charges and spin densities:
               1          2
     1  C   -0.277470  -0.448673
     2  C   -0.524121   1.183455
     3  C    0.099111  -0.783411
     4  C    0.773339  -0.372774
     5  C   -0.149669  -0.165102
     6  N   -0.465128   0.253858
     7  C    0.637404  -1.402286
     8  C   -0.575741   0.339038
     9  O   -0.346068  -0.003017
    10  N   -0.210107   0.082727
    11  C   -1.185510   1.011554
    12  C    0.184479  -0.568851
    13  C    1.880684  -2.489303
    14  C    0.072697  -0.074469
    15  O   -0.367634   0.004264
    16  N   -0.384482  -0.040213
    17  H    0.004745   0.136719
    18  H   -0.023578   0.168257
    19  H    0.047770   0.088792
    20  H    0.257722  -0.079691
    21  H    0.169562   0.011122
    22  H    0.144034   0.053698
    23  H    0.225513   0.053550
    24  H    0.441362  -0.200568
    25  H    0.065290   0.059005
    26  H   -0.098379   0.388918
    27  H    0.142770   0.031079
    28  H   -0.653016   0.835786
    29  H    0.132131   0.183884
    30  H   -0.355276   0.516878
    31  H   -0.384712   0.556483
    32  H   -0.094977   0.236921
    33  H   -0.352768   0.539901
    34  H   -0.309978   0.475132
    35  H   -0.034946   0.172837
    36  H    0.337851   0.137732
    37  H    0.177097   0.106765
 Sum of Mulliken charges =  -1.00000   1.00000

 Dipole moment (field-independent basis, Debye):
    X=             -0.5103    Y=              2.4011    Z=             -3.4756  Tot=              4.2551
 Quadrupole moment (field-independent basis, Debye-Ang):
   XX=           -174.1243   YY=           -140.7171   ZZ=           -162.6914
   XY=             -5.1718   XZ=             -6.4878   YZ=             -5.7245

 Summary of Natural Population Analysis:

                                       Natural Population
                Natural  -----------------------------------------------
    Atom  No    Charge         Core      Valence    Rydberg      Total
 -----------------------------------------------------------------------
      C    1   -0.28083      0.99965     2.27656    0.00462     3.28083
      C    2   -0.12024      0.99959     2.11149    0.00916     3.12024
      C    3   -0.18376      0.99959     2.17597    0.00819     3.18376
      C    4   -0.14931      0.99953     2.13931    0.01047     3.14931
      C    5   -0.00064      0.99952     1.98509    0.01604     3.00064
      N    6   -0.36013      0.99973     2.84392    0.01648     3.86013
      C    7   -0.08349      0.99958     2.07103    0.01288     3.08349
      C    8    0.35161      0.99964     1.62488    0.02387     2.64839
      O    9   -0.32150      0.99987     3.31600    0.00563     4.32150
      N   10   -0.32345      0.99964     2.81331    0.01050     3.82345
      C   11    0.05588      0.99956     1.93070    0.01385     2.94412
      C   12   -0.28808      0.99962     2.28115    0.00732     3.28808
      C   13   -0.29233      0.99961     2.28554    0.00718     3.29233
      C   14    0.26479      0.99978     1.71254    0.02289     2.73521
      O   15   -0.32055      0.99988     3.31437    0.00630     4.32055
      N   16   -0.40821      0.99973     2.90120    0.00728     3.90821
      H   17    0.09820      0.00000     0.40094    0.00086     0.40180
      H   18    0.10128      0.00000     0.39791    0.00081     0.39872
      H   19    0.09846      0.00000     0.40082    0.00072     0.40154
      H   20    0.09784      0.00000     0.40016    0.00200     0.40216
      H   21    0.10619      0.00000     0.39285    0.00096     0.39381
      H   22    0.09726      0.00000     0.40137    0.00137     0.40274
      H   23    0.10974      0.00000     0.38862    0.00164     0.39026
      H   24    0.09808      0.00000     0.39983    0.00210     0.40192
      H   25    0.04642      0.00000     0.45166    0.00191     0.45358
      H   26    0.19300      0.00000     0.29994    0.00705     0.30700
      H   27    0.08673      0.00000     0.41123    0.00204     0.41327
      H   28    0.09986      0.00000     0.39800    0.00214     0.40014
      H   29    0.19768      0.00000     0.30010    0.00222     0.30232
      H   30    0.10393      0.00000     0.39453    0.00154     0.39607
      H   31    0.10813      0.00000     0.38988    0.00199     0.39187
      H   32    0.10164      0.00000     0.39721    0.00115     0.39836
      H   33    0.10858      0.00000     0.38929    0.00213     0.39142
      H   34    0.10508      0.00000     0.39344    0.00148     0.39492
      H   35    0.10015      0.00000     0.39842    0.00143     0.39985
      H   36    0.21191      0.00000     0.28500    0.00308     0.28809
      H   37    0.19008      0.00000     0.30833    0.00159     0.30992
 =======================================================================
   * Total *    0.00000     15.99451    45.78261    0.22288    62.00000

 Normal termination of Gaussian 16 at Fri Dec 11 01:10:48 2020.
