 Gaussian 16, Revision A.03,

 -----------------------------------------------------------
 # opt freq B3LYP/6-31G(d) empiricaldispersion=gd3bj scf=xqc
 -----------------------------------------------------------

 ------------------------------
 CID_130122797_JID_166_neutraal
 ------------------------------
 Symbolic Z-matrix:
 Charge =  0 Multiplicity = 1

 SCF Done:  E(RB3LYP) =  -426.544606365     A.U. after   15 cycles
 SCF Done:  E(RB3LYP) =  -426.565845572     A.U. after   13 cycles
 SCF Done:  E(RB3LYP) =  -426.567781473     A.U. after   13 cycles
 SCF Done:  E(RB3LYP) =  -426.561712062     A.U. after   15 cycles
 SCF Done:  E(RB3LYP) =  -426.568067625     A.U. after   12 cycles
 SCF Done:  E(RB3LYP) =  -426.566601425     A.U. after   13 cycles
 SCF Done:  E(RB3LYP) =  -426.568331793     A.U. after   12 cycles
 SCF Done:  E(RB3LYP) =  -426.568481372     A.U. after   12 cycles
 SCF Done:  E(RB3LYP) =  -426.568540223     A.U. after   12 cycles
 SCF Done:  E(RB3LYP) =  -426.568568181     A.U. after   11 cycles
 SCF Done:  E(RB3LYP) =  -426.568587714     A.U. after    9 cycles
 SCF Done:  E(RB3LYP) =  -426.568587762     A.U. after    7 cycles
 SCF Done:  E(RB3LYP) =  -426.568587782     A.U. after    7 cycles
 SCF Done:  E(RB3LYP) =  -426.568587784     A.U. after    7 cycles
 SCF Done:  E(RB3LYP) =  -426.568587783     A.U. after    7 cycles
 Optimization completed on the basis of negligible forces.
    -- Stationary point found.

 1\1\GINC-NODE204\FOpt\RB3LYP\6-31G(d)\C9H14O1\VSC10255\08-Dec-2020\0\\
 # opt freq B3LYP/6-31G(d) empiricaldispersion=gd3bj scf=xqc\\CID_13012
 2797_JID_166_neutraal\\0,1\C,1.1605718621,0.1324904653,0.0760941388\C,
 0.437589186,1.3102108983,0.7525100844\C,0.9793353782,2.6585714403,0.34
 71413677\C,0.2053790717,3.530721303,-0.3328795043\C,0.6202492621,4.815
 5637211,-0.7775018816\C,0.9336146049,5.9224711446,-1.1683827079\C,1.45
 40024474,7.2100305723,-1.6247157815\C,2.9596577924,7.3202806726,-1.308
 8827112\O,3.7050415375,6.2740895594,-1.9003651315\C,2.4033329335,2.963

 Normal termination of Gaussian 16 at Tue Dec  8 10:21:20 2020.

 --------------------------------------------------------------------
 #N Geom=AllCheck Guess=TCheck SCRF=Check GenChk RB3LYP/6-31G(d) Freq
 --------------------------------------------------------------------

 Structure from the checkpoint file:  "JID_166.chk"
 ------------------------------
 CID_130122797_JID_166_neutraal
 ------------------------------
 Charge =  0 Multiplicity = 1

 SCF Done:  E(RB3LYP) =  -426.568587783     A.U. after    1 cycles

  Exact polarizability: 160.118 -12.063  86.934   2.056  -4.767  68.031
 Approx polarizability: 220.538 -23.403 127.224   8.729  -8.391  97.943

                      1                      2                      3
                      A                      A                      A
 Frequencies --     12.5670                42.6432                52.6464
 Red. masses --      3.1558                 4.8413                 2.6559
 Frc consts  --      0.0003                 0.0052                 0.0043
 IR Inten    --      0.7132                 0.2854                 0.2062

                      4                      5                      6
                      A                      A                      A
 Frequencies --     88.1765               113.9955               150.9420
 Red. masses --      2.1188                 2.6654                 1.3522
 Frc consts  --      0.0097                 0.0204                 0.0182
 IR Inten    --      0.7068                 1.4420                 0.3470

                      7                      8                      9
                      A                      A                      A
 Frequencies --    180.8772               226.5510               256.6096
 Red. masses --      2.0715                 1.7184                 1.7804
 Frc consts  --      0.0399                 0.0520                 0.0691
 IR Inten    --      0.4917                 1.0158                 1.1786

                     10                     11                     12
                      A                      A                      A
 Frequencies --    316.8050               343.3474               365.2106
 Red. masses --      3.4047                 2.9420                 2.3357
 Frc consts  --      0.2013                 0.2043                 0.1835
 IR Inten    --      3.5582                 9.7280                 1.2987

                     13                     14                     15
                      A                      A                      A
 Frequencies --    404.3762               424.1550               468.1174
 Red. masses --      2.3985                 1.4241                 2.9743
 Frc consts  --      0.2311                 0.1509                 0.3840
 IR Inten    --     11.2220                81.6018                 9.8762

                     16                     17                     18
                      A                      A                      A
 Frequencies --    516.0603               546.1874               606.0502
 Red. masses --      3.6878                 2.5720                 3.2081
 Frc consts  --      0.5786                 0.4521                 0.6943
 IR Inten    --      0.6551                 6.6133                 1.3625

                     19                     20                     21
                      A                      A                      A
 Frequencies --    783.3436               806.6045               814.9288
 Red. masses --      2.0934                 1.4137                 3.3530
 Frc consts  --      0.7568                 0.5419                 1.3120
 IR Inten    --      1.3548                 2.8436                 0.5770

                     22                     23                     24
                      A                      A                      A
 Frequencies --    871.0805               878.7117               939.1010
 Red. masses --      2.1593                 1.4456                 2.0335
 Frc consts  --      0.9653                 0.6576                 1.0566
 IR Inten    --      7.2398                12.0642                 7.2758

                     25                     26                     27
                      A                      A                      A
 Frequencies --    977.9086              1024.5532              1051.2787
 Red. masses --      1.7926                 1.7895                 1.4299
 Frc consts  --      1.0100                 1.1068                 0.9311
 IR Inten    --      5.0640                 1.8814                 0.6457

                     28                     29                     30
                      A                      A                      A
 Frequencies --   1076.6867              1099.0894              1105.7955
 Red. masses --      1.9741                 3.2666                 1.7602
 Frc consts  --      1.3483                 2.3249                 1.2681
 IR Inten    --     27.8125                60.3934                16.5679

                     31                     32                     33
                      A                      A                      A
 Frequencies --   1122.7808              1210.4541              1220.9253
 Red. masses --      1.6674                 1.8722                 1.3354
 Frc consts  --      1.2385                 1.6162                 1.1728
 IR Inten    --      0.5065                 4.9715                11.8119

                     34                     35                     36
                      A                      A                      A
 Frequencies --   1235.1804              1246.3051              1297.0692
 Red. masses --      2.2626                 1.2172                 1.1987
 Frc consts  --      2.0339                 1.1139                 1.1882
 IR Inten    --      6.2888                 4.2599                 0.0337

                     37                     38                     39
                      A                      A                      A
 Frequencies --   1364.7086              1372.9205              1394.8701
 Red. masses --      1.4365                 1.6145                 1.3536
 Frc consts  --      1.5763                 1.7930                 1.5517
 IR Inten    --     33.7845                 5.0822                 7.3035

                     40                     41                     42
                      A                      A                      A
 Frequencies --   1402.3659              1436.0840              1443.4520
 Red. masses --      1.2258                 1.2244                 1.3421
 Frc consts  --      1.4203                 1.4878                 1.6476
 IR Inten    --      2.3180                 3.4152                 9.3820

                     43                     44                     45
                      A                      A                      A
 Frequencies --   1446.0340              1494.3784              1505.7375
 Red. masses --      1.2823                 1.0974                 1.0633
 Frc consts  --      1.5798                 1.4438                 1.4203
 IR Inten    --     54.7357                 6.7997                 1.6166

                     46                     47                     48
                      A                      A                      A
 Frequencies --   1512.1451              1519.8638              1531.5337
 Red. masses --      1.0704                 1.0593                 1.0441
 Frc consts  --      1.4421                 1.4417                 1.4429
 IR Inten    --      5.9704                 9.3562                 5.5324

                     49                     50                     51
                      A                      A                      A
 Frequencies --   1538.7600              1539.2054              1704.5026
 Red. masses --      1.0705                 1.0865                 6.5251
 Frc consts  --      1.4934                 1.5166                11.1695
 IR Inten    --      1.6213                 0.9391                 7.9944

                     52                     53                     54
                      A                      A                      A
 Frequencies --   2331.5590              3002.6874              3020.5810
 Red. masses --     11.8474                 1.0715                 1.0662
 Frc consts  --     37.9460                 5.6919                 5.7313
 IR Inten    --      0.0146                61.3482                35.0315

                     55                     56                     57
                      A                      A                      A
 Frequencies --   3033.4761              3038.0377              3053.9848
 Red. masses --      1.0592                 1.0397                 1.0349
 Frc consts  --      5.7424                 5.6537                 5.6872
 IR Inten    --     37.1592                21.4990                33.6064

                     58                     59                     60
                      A                      A                      A
 Frequencies --   3071.5699              3078.4256              3084.2099
 Red. masses --      1.1018                 1.0960                 1.0990
 Frc consts  --      6.1248                 6.1197                 6.1593
 IR Inten    --     21.9796                13.8053                23.5988

                     61                     62                     63
                      A                      A                      A
 Frequencies --   3109.2922              3123.2481              3126.4498
 Red. masses --      1.0945                 1.1028                 1.1028
 Frc consts  --      6.2343                 6.3384                 6.3509
 IR Inten    --     55.9134                39.1902                37.8095

                     64                     65                     66
                      A                      A                      A
 Frequencies --   3139.8954              3154.3884              3696.7648
 Red. masses --      1.0986                 1.0871                 1.0653
 Frc consts  --      6.3812                 6.3732                 8.5775
 IR Inten    --     15.5698                20.4848                32.8190

 - Thermochemistry -
 -------------------
 Temperature   298.150 Kelvin.  Pressure   1.00000 Atm.
 Atom     1 has atomic number  6 and mass  12.00000

 Molecular mass:   138.10447 amu.
 Principal axes and moments of inertia in atomic units:
                           1         2         3
     Eigenvalues --   626.190163594.665743959.18964
           X            0.99992  -0.01049  -0.00715
           Y            0.01028   0.99954  -0.02841
           Z            0.00744   0.02833   0.99957
 This molecule is an asymmetric top.
 Rotational symmetry number  1.
 Warning -- assumption of classical behavior for rotation
           may cause significant error
 Rotational temperatures (Kelvin)      0.13832     0.02410     0.02188
 Rotational constants (GHZ):           2.88210     0.50206     0.45584
 Zero-point vibrational energy     551168.9 (Joules/Mol)
                                  131.73253 (Kcal/Mol)
 Warning -- explicit consideration of  18 degrees of freedom as
           vibrations may cause significant error
 Vibrational temperatures:     18.08    61.35    75.75   126.87   164.01
          (Kelvin)            217.17   260.24   325.96   369.20   455.81
                              494.00   525.46   581.81   610.26   673.52
                              742.50   785.84   871.97  1127.06  1160.52
                             1172.50  1253.29  1264.27  1351.16  1406.99
                             1474.10  1512.56  1549.11  1581.34  1590.99
                             1615.43  1741.57  1756.64  1777.15  1793.16
                             1866.19  1963.51  1975.33  2006.91  2017.69
                             2066.20  2076.81  2080.52  2150.08  2166.42
                             2175.64  2186.74  2203.54  2213.93  2214.57
                             2452.40  3354.59  4320.20  4345.94  4364.50
                             4371.06  4394.00  4419.30  4429.17  4437.49
                             4473.58  4493.66  4498.26  4517.61  4538.46
                             5318.82

 Zero-point correction=                           0.209929 (Hartree/Particle)
 Thermal correction to Energy=                    0.222327
 Thermal correction to Enthalpy=                  0.223271
 Thermal correction to Gibbs Free Energy=         0.169172
 Sum of electronic and zero-point Energies=           -426.358659
 Sum of electronic and thermal Energies=              -426.346261
 Sum of electronic and thermal Enthalpies=            -426.345317
 Sum of electronic and thermal Free Energies=         -426.399416

                     E (Thermal)             CV                S
                      KCal/Mol        Cal/Mol-Kelvin    Cal/Mol-Kelvin
 Total                  139.512             43.286            113.861
 Electronic               0.000              0.000              0.000
 Translational            0.889              2.981             40.680
 Rotational               0.889              2.981             30.567
 Vibrational            137.735             37.324             42.613
 Vibration     1          0.593              1.987              7.557
 Vibration     2          0.595              1.980              5.132
 Vibration     3          0.596              1.977              4.715
 Vibration     4          0.601              1.957              3.700
 Vibration     5          0.607              1.938              3.200
 Vibration     6          0.618              1.902              2.660
 Vibration     7          0.630              1.866              2.319
 Vibration     8          0.650              1.801              1.906
 Vibration     9          0.666              1.752              1.685
 Vibration    10          0.704              1.642              1.327
 Vibration    11          0.722              1.589              1.197
 Vibration    12          0.738              1.544              1.100
 Vibration    13          0.770              1.461              0.947
 Vibration    14          0.786              1.418              0.878
 Vibration    15          0.825              1.321              0.743
 Vibration    16          0.871              1.214              0.619
 Vibration    17          0.901              1.148              0.552
 Vibration    18          0.965              1.019              0.439

 Optimization completed on the basis of negligible forces.
    -- Stationary point found.

 1\1\GINC-NODE204\Freq\RB3LYP\6-31G(d)\C9H14O1\VSC10255\08-Dec-2020\0\\
 #N Geom=AllCheck Guess=TCheck SCRF=Check GenChk RB3LYP/6-31G(d) Freq\\
 CID_130122797_JID_166_neutraal\\0,1\C,1.1605718621,0.1324904653,0.0760
 941388\C,0.437589186,1.3102108983,0.7525100844\C,0.9793353782,2.658571
 4403,0.3471413677\C,0.2053790717,3.530721303,-0.3328795043\C,0.6202492
 621,4.8155637211,-0.7775018816\C,0.9336146049,5.9224711446,-1.16838270
 79\C,1.4540024474,7.2100305723,-1.6247157815\C,2.9596577924,7.32028067
 26,-1.3088827112\O,3.7050415375,6.2740895594,-1.9003651315\C,2.4033329

 Normal termination of Gaussian 16 at Tue Dec  8 10:24:45 2020.

 ----------------------------------------------------------------------
 # B3LYP/6-311++G(d,p) empiricaldispersion=gd3bj scf=xqc pop=npa geom=c
 heck
 ----------------------------------------------------------------------

 --------------------------------------
 CID_130122797_JID_166_Energie_neutraal
 --------------------------------------
 Structure from the checkpoint file:  "JID_166.chk"
 Charge =  0 Multiplicity = 1

 SCF Done:  E(RB3LYP) =  -426.700221530     A.U. after   13 cycles
 Normal termination of Gaussian 16 at Tue Dec  8 10:26:17 2020.

 ----------------------------------------------------------------------
 # B3LYP/6-311++G(d,p) empiricaldispersion=gd3bj scf=xqc pop=npa geom=c
 heck
 ----------------------------------------------------------------------

 ------------------------------------
 CID_130122797_JID_166_Energie_kation
 ------------------------------------
 Structure from the checkpoint file:  "JID_166.chk"
 Charge =  1 Multiplicity = 2

 SCF Done:  E(UB3LYP) =  -426.399077511     A.U. after   22 cycles
 Normal termination of Gaussian 16 at Tue Dec  8 10:29:45 2020.
 Gaussian 16:  ES64L-G16RevA.03 25-Dec-2016

 -----------------------------------
 CID_130122797_JID_166_Energie_anion
 -----------------------------------
 Structure from the checkpoint file:  "JID_166.chk"
 Charge = -1 Multiplicity = 2

                         Standard orientation:
 ---------------------------------------------------------------------
 Center     Atomic      Atomic             Coordinates (Angstroms)
 Number     Number       Type             X           Y           Z
 ---------------------------------------------------------------------
      1          6           0       -3.980103    0.562690    0.753884
      2          6           0       -3.286835   -0.361284   -0.262443
      3          6           0       -1.790860   -0.174816   -0.318823
      4          6           0       -0.962246   -1.175463    0.047491
      5          6           0        0.457253   -1.100342    0.049647
      6          6           0        1.672029   -1.078938    0.059208
      7          6           0        3.123138   -0.902876    0.070866
      8          6           0        3.487385    0.555738   -0.273626
      9          8           0        2.893428    1.477301    0.619627
     10          6           0       -1.285952    1.163931   -0.782238
     11          1           0       -3.581953    0.398652    1.761199
     12          1           0       -5.058055    0.370114    0.777132
     13          1           0       -3.836493    1.618811    0.502544
     14          1           0       -3.515659   -1.405344   -0.019160
     15          1           0       -3.710356   -0.168723   -1.259498
     16          1           0       -1.394839   -2.120078    0.375576
     17          1           0        3.522342   -1.143926    1.064939
     18          1           0        3.605855   -1.582239   -0.645316
     19          1           0        4.569472    0.694496   -0.188692
     20          1           0        3.197744    0.759257   -1.316805
     21          1           0        1.944041    1.266215    0.640059
     22          1           0       -1.771668    1.458196   -1.721815
     23          1           0       -1.516101    1.949945   -0.051034
     24          1           0       -0.204613    1.154375   -0.939941
 ---------------------------------------------------------------------

 SCF Done:  E(UB3LYP) =  -426.686561061     A.U. after   33 cycles
 SCF Done:  E(UB3LYP) =  -426.686561061     a.u. after    1 cycles

 The electronic state is 2-A.
 Alpha  occ. eigenvalues --  -19.02672 -10.12552 -10.09542 -10.07333 -10.06649
 Alpha  occ. eigenvalues --  -10.06251 -10.06156 -10.05876 -10.05752 -10.05318
 Alpha  occ. eigenvalues --   -0.93067  -0.72024  -0.69258  -0.64969  -0.61756
 Alpha  occ. eigenvalues --   -0.58607  -0.54442  -0.52102  -0.44088  -0.41442
 Alpha  occ. eigenvalues --   -0.39056  -0.37147  -0.36305  -0.35951  -0.33182
 Alpha  occ. eigenvalues --   -0.31243  -0.30758  -0.30589  -0.28641  -0.27297
 Alpha  occ. eigenvalues --   -0.26308  -0.24491  -0.23602  -0.22933  -0.21036
 Alpha  occ. eigenvalues --   -0.18914  -0.15888  -0.11803   0.04646
 Alpha virt. eigenvalues --    0.06216   0.07849   0.08268   0.08631   0.09209
 Alpha virt. eigenvalues --    0.09563   0.09663   0.10941   0.11833   0.12049
 Alpha virt. eigenvalues --    0.12435   0.13086   0.14413   0.15088   0.15374

  Beta  occ. eigenvalues --  -19.02661 -10.12532 -10.09531 -10.07222 -10.06595
  Beta  occ. eigenvalues --  -10.06239 -10.06155 -10.05857 -10.05686 -10.05264
  Beta  occ. eigenvalues --   -0.93043  -0.71855  -0.69159  -0.64884  -0.61676
  Beta  occ. eigenvalues --   -0.58510  -0.54361  -0.51993  -0.43927  -0.41408
  Beta  occ. eigenvalues --   -0.38968  -0.37081  -0.36239  -0.35873  -0.33050
  Beta  occ. eigenvalues --   -0.31152  -0.30677  -0.30532  -0.28579  -0.27223
  Beta  occ. eigenvalues --   -0.26225  -0.24458  -0.23540  -0.22857  -0.20743
  Beta  occ. eigenvalues --   -0.18884  -0.15843  -0.11343
  Beta virt. eigenvalues --    0.06901   0.07415   0.08392   0.08633   0.09162
  Beta virt. eigenvalues --    0.09681   0.09994   0.10295   0.11369   0.11994
  Beta virt. eigenvalues --    0.12348   0.12826   0.13481   0.14496   0.15242

 Mulliken charges and spin densities:
               1          2
     1  C    1.293799  -1.925418
     2  C   -1.173003   0.860666
     3  C    0.212816   0.981013
     4  C   -0.318455  -0.588357
     5  C    0.496652  -0.411395
     6  C    0.340734  -0.189529
     7  C   -0.108678  -0.313824
     8  C    0.465921  -0.811698
     9  O   -0.283352   0.030434
    10  C   -0.038706  -0.616046
    11  H    0.009822   0.120771
    12  H   -0.769394   0.917399
    13  H   -0.160331   0.296849
    14  H   -0.330402   0.500589
    15  H   -0.194828   0.337781
    16  H   -0.035322   0.169423
    17  H    0.183982  -0.006105
    18  H   -0.368199   0.515478
    19  H   -0.307081   0.472366
    20  H    0.003008   0.135554
    21  H    0.169741   0.045081
    22  H   -0.339641   0.490764
    23  H    0.053493   0.094521
    24  H    0.197422  -0.106317
 Sum of Mulliken charges =  -1.00000   1.00000

 Dipole moment (field-independent basis, Debye):
    X=              4.4716    Y=             -0.3672    Z=              1.6511  Tot=              4.7808
 Quadrupole moment (field-independent basis, Debye-Ang):
   XX=           -162.4690   YY=            -92.3438   ZZ=            -88.9265
   XY=              1.7142   XZ=              1.4605   YZ=             -1.3582

 Summary of Natural Population Analysis:

                                       Natural Population
                Natural  -----------------------------------------------
    Atom  No    Charge         Core      Valence    Rydberg      Total
 -----------------------------------------------------------------------
      C    1   -0.28144      0.99966     2.27621    0.00557     3.28144
      C    2   -0.20309      0.99960     2.19379    0.00971     3.20309
      C    3    0.04483      0.99951     1.94511    0.01055     2.95517
      C    4   -0.14646      0.99940     2.13850    0.00856     3.14646
      C    5   -0.01748      0.99928     2.01106    0.00714     3.01748
      C    6   -0.01052      0.99925     2.00304    0.00823     3.01052
      C    7   -0.23726      0.99958     2.22811    0.00957     3.23726
      C    8   -0.00160      0.99962     1.98837    0.01361     3.00160
      O    9   -0.37084      0.99990     3.36435    0.00659     4.37084
      C   10   -0.30675      0.99962     2.30071    0.00642     3.30675
      H   11    0.09499      0.00000     0.40394    0.00108     0.40501
      H   12    0.10239      0.00000     0.39481    0.00280     0.39761
      H   13    0.09592      0.00000     0.40298    0.00110     0.40408
      H   14    0.09766      0.00000     0.40082    0.00152     0.40234
      H   15    0.10301      0.00000     0.39398    0.00301     0.39699
      H   16    0.10427      0.00000     0.39446    0.00127     0.39573
      H   17    0.10783      0.00000     0.39093    0.00124     0.39217
      H   18    0.11376      0.00000     0.38330    0.00294     0.38624
      H   19    0.08528      0.00000     0.41334    0.00138     0.41472
      H   20    0.07620      0.00000     0.42238    0.00142     0.42380
      H   21    0.23336      0.00000     0.26348    0.00316     0.26664
      H   22    0.10706      0.00000     0.39140    0.00155     0.39294
      H   23    0.10357      0.00000     0.39537    0.00106     0.39643
      H   24    0.10532      0.00000     0.39355    0.00113     0.39468
 =======================================================================
   * Total *    0.00000      9.99542    27.89399    0.11059    38.00000

 Normal termination of Gaussian 16 at Tue Dec  8 10:37:47 2020.
