 Gaussian 16, Revision A.03,

 -----------------------------------------------------------
 # opt freq B3LYP/6-31G(d) empiricaldispersion=gd3bj scf=xqc
 -----------------------------------------------------------

 ------------------------------
 CID_64071977_JID_9825_neutraal
 ------------------------------
 Symbolic Z-matrix:
 Charge =  0 Multiplicity = 1

 SCF Done:  E(RB3LYP) =  -843.626636475     A.U. after   15 cycles
 SCF Done:  E(RB3LYP) =  -843.632763231     A.U. after   13 cycles
 SCF Done:  E(RB3LYP) =  -843.633080506     A.U. after   12 cycles
 SCF Done:  E(RB3LYP) =  -843.633695286     A.U. after   12 cycles
 SCF Done:  E(RB3LYP) =  -843.634336354     A.U. after   12 cycles
 SCF Done:  E(RB3LYP) =  -843.634665840     A.U. after   11 cycles
 SCF Done:  E(RB3LYP) =  -843.634688642     A.U. after   11 cycles
 SCF Done:  E(RB3LYP) =  -843.634733903     A.U. after   10 cycles
 SCF Done:  E(RB3LYP) =  -843.634743631     A.U. after    9 cycles
 SCF Done:  E(RB3LYP) =  -843.634747540     A.U. after    9 cycles
 SCF Done:  E(RB3LYP) =  -843.634752100     A.U. after    7 cycles
 SCF Done:  E(RB3LYP) =  -843.634752062     A.U. after    7 cycles
 SCF Done:  E(RB3LYP) =  -843.634752417     A.U. after    8 cycles
 SCF Done:  E(RB3LYP) =  -843.634752009     A.U. after    8 cycles
 Optimization completed.
    -- Stationary point found.
 Normal termination of Gaussian 16 at Sun Dec 13 16:27:55 2020.

 --------------------------------------------------------------------
 #N Geom=AllCheck Guess=TCheck SCRF=Check GenChk RB3LYP/6-31G(d) Freq
 --------------------------------------------------------------------

 Structure from the checkpoint file:  "JID_9825.chk"
 ------------------------------
 CID_64071977_JID_9825_neutraal
 ------------------------------
 Charge =  0 Multiplicity = 1

 SCF Done:  E(RB3LYP) =  -843.634752010     A.U. after    1 cycles

  Exact polarizability: 187.687  -9.476 170.680   7.512   4.583 135.779
 Approx polarizability: 272.338 -17.640 281.679  11.731  16.559 189.219

                      1                      2                      3
                      A                      A                      A
 Frequencies --     41.9439                48.2913                57.9882
 Red. masses --      4.5679                 3.6258                 3.4203
 Frc consts  --      0.0047                 0.0050                 0.0068
 IR Inten    --      0.1016                 0.8301                 4.1213

                      4                      5                      6
                      A                      A                      A
 Frequencies --     82.5032                97.2222               111.8620
 Red. masses --      2.6948                 3.5844                 3.6116
 Frc consts  --      0.0108                 0.0200                 0.0266
 IR Inten    --      0.6226                 0.7996                 2.8455

                      7                      8                      9
                      A                      A                      A
 Frequencies --    118.9640               156.7596               183.9584
 Red. masses --      6.8347                 3.5193                 2.7430
 Frc consts  --      0.0570                 0.0510                 0.0547
 IR Inten    --      4.0432                 0.1713                 2.8306

                     10                     11                     12
                      A                      A                      A
 Frequencies --    196.8705               217.1007               237.3524
 Red. masses --      3.7508                 1.7008                 1.5311
 Frc consts  --      0.0857                 0.0472                 0.0508
 IR Inten    --      0.5230                 8.8835                 5.3891

                     13                     14                     15
                      A                      A                      A
 Frequencies --    255.6232               274.9760               287.0274
 Red. masses --      1.7291                 3.4822                 2.5399
 Frc consts  --      0.0666                 0.1551                 0.1233
 IR Inten    --     20.0570                 2.8014                15.8003

                     16                     17                     18
                      A                      A                      A
 Frequencies --    315.2393               339.0727               348.6651
 Red. masses --      3.9671                 3.0534                 3.6557
 Frc consts  --      0.2323                 0.2068                 0.2618
 IR Inten    --      0.9767                18.4779                 3.7352

                     19                     20                     21
                      A                      A                      A
 Frequencies --    407.3493               446.9959               464.2754
 Red. masses --      2.9924                 3.1361                 4.3731
 Frc consts  --      0.2926                 0.3692                 0.5554
 IR Inten    --      3.1802                 3.2057                 0.8570

                     22                     23                     24
                      A                      A                      A
 Frequencies --    483.6871               506.7060               539.8540
 Red. masses --      3.1451                 3.6267                 3.9079
 Frc consts  --      0.4335                 0.5486                 0.6710
 IR Inten    --      6.5419                 9.4805                 5.2772

                     25                     26                     27
                      A                      A                      A
 Frequencies --    561.1428               574.6757               590.2969
 Red. masses --      3.7761                 4.0981                 4.8130
 Frc consts  --      0.7005                 0.7974                 0.9881
 IR Inten    --      0.9319                 9.6327                 7.4993

                     28                     29                     30
                      A                      A                      A
 Frequencies --    606.7139               659.7551               707.2839
 Red. masses --      3.2566                 5.3736                 2.7316
 Frc consts  --      0.7063                 1.3781                 0.8051
 IR Inten    --      3.0843                10.5235                12.3480

                     31                     32                     33
                      A                      A                      A
 Frequencies --    739.7217               768.1681               780.0206
 Red. masses --      3.8155                 1.3198                 1.9391
 Frc consts  --      1.2301                 0.4589                 0.6951
 IR Inten    --      0.6840                46.0458                 3.5390

                     34                     35                     36
                      A                      A                      A
 Frequencies --    785.8399               793.5221               834.5918
 Red. masses --      1.4611                 3.7606                 1.3994
 Frc consts  --      0.5316                 1.3952                 0.5743
 IR Inten    --     12.4318                 9.2541                 1.2517

                     37                     38                     39
                      A                      A                      A
 Frequencies --    848.9014               859.9353               866.5338
 Red. masses --      1.9049                 2.3577                 1.8099
 Frc consts  --      0.8088                 1.0273                 0.8007
 IR Inten    --     26.9282                10.2975                32.8972

                     40                     41                     42
                      A                      A                      A
 Frequencies --    876.8778               927.1065               936.2801
 Red. masses --      3.4055                 2.7889                 1.6621
 Frc consts  --      1.5428                 1.4123                 0.8585
 IR Inten    --     33.4704                 7.3643                42.1095

                     43                     44                     45
                      A                      A                      A
 Frequencies --    942.7864               971.8104               973.2437
 Red. masses --      1.4746                 2.9309                 1.2494
 Frc consts  --      0.7722                 1.6308                 0.6973
 IR Inten    --     24.0839                35.7928                 0.0486

                     46                     47                     48
                      A                      A                      A
 Frequencies --    994.5164              1015.0795              1047.9043
 Red. masses --      1.9805                 2.3746                 2.1070
 Frc consts  --      1.1541                 1.4416                 1.3632
 IR Inten    --      3.7467                 3.7773                 1.0111

                     49                     50                     51
                      A                      A                      A
 Frequencies --   1067.5315              1072.0310              1082.5473
 Red. masses --      6.5510                 1.4139                 1.3843
 Frc consts  --      4.3987                 0.9574                 0.9558
 IR Inten    --     45.9250                11.7110                 0.8737

                     52                     53                     54
                      A                      A                      A
 Frequencies --   1085.6325              1104.0321              1118.0650
 Red. masses --      2.2825                 1.8496                 1.6655
 Frc consts  --      1.5850                 1.3283                 1.2266
 IR Inten    --      9.6599                 4.0759                 1.6537

                     55                     56                     57
                      A                      A                      A
 Frequencies --   1130.6843              1149.6325              1158.7651
 Red. masses --      1.1988                 2.0012                 1.9943
 Frc consts  --      0.9030                 1.5583                 1.5777
 IR Inten    --      4.1116                17.1731                18.2531

                     58                     59                     60
                      A                      A                      A
 Frequencies --   1185.9340              1186.5255              1198.2154
 Red. masses --      1.3852                 1.4291                 1.1033
 Frc consts  --      1.1479                 1.1854                 0.9333
 IR Inten    --     17.8668                27.4494                 0.9311

                     61                     62                     63
                      A                      A                      A
 Frequencies --   1204.0516              1209.1779              1222.2076
 Red. masses --      1.3667                 2.4673                 1.4780
 Frc consts  --      1.1674                 2.1254                 1.3008
 IR Inten    --      0.1636                 9.4910                 8.8446

                     64                     65                     66
                      A                      A                      A
 Frequencies --   1224.7259              1234.7603              1243.6953
 Red. masses --      1.9598                 1.5654                 1.7283
 Frc consts  --      1.7320                 1.4062                 1.5750
 IR Inten    --      7.6262                20.2405                13.7427

                     67                     68                     69
                      A                      A                      A
 Frequencies --   1278.4893              1296.8782              1310.4214
 Red. masses --      2.1937                 2.1857                 1.9177
 Frc consts  --      2.1126                 2.1659                 1.9402
 IR Inten    --     13.6585                56.2563                51.1295

                     70                     71                     72
                      A                      A                      A
 Frequencies --   1320.8580              1351.4868              1353.5449
 Red. masses --      1.6182                 3.4739                 1.4751
 Frc consts  --      1.6633                 3.7384                 1.5923
 IR Inten    --     65.2472                33.7732                10.1531

                     73                     74                     75
                      A                      A                      A
 Frequencies --   1382.3412              1387.9116              1403.1339
 Red. masses --      2.1632                 1.6497                 1.4813
 Frc consts  --      2.4355                 1.8724                 1.7183
 IR Inten    --     67.5625                 9.1463                 7.2419

                     76                     77                     78
                      A                      A                      A
 Frequencies --   1412.5229              1433.1993              1462.9501
 Red. masses --      1.5529                 1.4383                 1.7005
 Frc consts  --      1.8255                 1.7407                 2.1443
 IR Inten    --     32.0879                 6.0771               106.9349

                     79                     80                     81
                      A                      A                      A
 Frequencies --   1487.6675              1492.2023              1496.9977
 Red. masses --      1.1171                 1.3659                 1.0979
 Frc consts  --      1.4566                 1.7920                 1.4497
 IR Inten    --      7.3882                 3.6909                 2.0399

                     82                     83                     84
                      A                      A                      A
 Frequencies --   1508.7299              1522.8141              1526.8264
 Red. masses --      1.6984                 1.0579                 1.1100
 Frc consts  --      2.2778                 1.4453                 1.5246
 IR Inten    --      4.4190                 6.9990                16.9890

                     85                     86                     87
                      A                      A                      A
 Frequencies --   1530.5058              1531.6918              1551.6340
 Red. masses --      1.1009                 1.3843                 2.1825
 Frc consts  --      1.5193                 1.9134                 3.0959
 IR Inten    --     43.2726                 5.5210                49.9543

                     88                     89                     90
                      A                      A                      A
 Frequencies --   1644.3090              1662.0911              1686.3026
 Red. masses --      6.2579                 5.7053                 1.0950
 Frc consts  --      9.9688                 9.2862                 1.8346
 IR Inten    --     11.5228                27.6736                24.4392

                     91                     92                     93
                      A                      A                      A
 Frequencies --   1769.5656              3033.7765              3037.6499
 Red. masses --     11.1716                 1.0347                 1.0715
 Frc consts  --     20.6110                 5.6108                 5.8254
 IR Inten    --    251.7638                56.6710                15.6026

                     94                     95                     96
                      A                      A                      A
 Frequencies --   3047.7947              3067.0958              3086.2886
 Red. masses --      1.0694                 1.0855                 1.0844
 Frc consts  --      5.8526                 6.0164                 6.0856
 IR Inten    --     47.2368                36.7372                13.5713

                     97                     98                     99
                      A                      A                      A
 Frequencies --   3098.9830              3111.5791              3129.6501
 Red. masses --      1.1061                 1.0935                 1.0924
 Frc consts  --      6.2586                 6.2380                 6.3039
 IR Inten    --     34.3036                22.8925                13.3744

                    100                    101                    102
                      A                      A                      A
 Frequencies --   3134.9496              3150.4488              3165.1681
 Red. masses --      1.0866                 1.0541                 1.0575
 Frc consts  --      6.2918                 6.1644                 6.2422
 IR Inten    --     22.7041                11.0660                10.2238

                    103                    104                    105
                      A                      A                      A
 Frequencies --   3172.0061              3176.5453              3192.1201
 Red. masses --      1.1010                 1.0876                 1.0880
 Frc consts  --      6.5270                 6.4660                 6.5320
 IR Inten    --      6.6133                 7.2351                 9.0331

                    106                    107                    108
                      A                      A                      A
 Frequencies --   3210.5653              3224.0776              3229.3855
 Red. masses --      1.0944                 1.0933                 1.1193
 Frc consts  --      6.6465                 6.6955                 6.8778
 IR Inten    --     27.9701                10.9641                 4.5113

                    109                    110                    111
                      A                      A                      A
 Frequencies --   3249.3998              3463.4904              3550.4405
 Red. masses --      1.1168                 1.0491                 1.0923
 Frc consts  --      6.9476                 7.4146                 8.1124
 IR Inten    --     15.5726                 2.4876                 0.0635

 - Thermochemistry -
 -------------------
 Temperature   298.150 Kelvin.  Pressure   1.00000 Atm.
 Atom     1 has atomic number  6 and mass  12.00000

 Molecular mass:   260.15248 amu.
 Principal axes and moments of inertia in atomic units:
                           1         2         3
     Eigenvalues --  3555.595485390.039875460.23042
           X            0.99964   0.02492   0.00950
           Y           -0.02283   0.98369  -0.17842
           Z           -0.01380   0.17814   0.98391
 This molecule is an asymmetric top.
 Rotational symmetry number  1.
 Warning -- assumption of classical behavior for rotation
           may cause significant error
 Rotational temperatures (Kelvin)      0.02436     0.01607     0.01586
 Rotational constants (GHZ):           0.50758     0.33483     0.33052
 Zero-point vibrational energy     879839.6 (Joules/Mol)
                                  210.28672 (Kcal/Mol)
 Warning -- explicit consideration of  28 degrees of freedom as
           vibrations may cause significant error
 Vibrational temperatures:     60.35    69.48    83.43   118.70   139.88
          (Kelvin)            160.94   171.16   225.54   264.68   283.25
                              312.36   341.50   367.78   395.63   412.97
                              453.56   487.85   501.65   586.08   643.13
                              667.99   695.92   729.04   776.73   807.36
                              826.83   849.31   872.93   949.24  1017.62
                             1064.29  1105.22  1122.28  1130.65  1141.70
                             1200.79  1221.38  1237.26  1246.75  1261.63
                             1333.90  1347.10  1356.46  1398.22  1400.28
                             1430.89  1460.47  1507.70  1535.94  1542.41
                             1557.54  1561.98  1588.46  1608.65  1626.80
                             1654.06  1667.20  1706.29  1707.15  1723.96
                             1732.36  1739.74  1758.48  1762.11  1776.54
                             1789.40  1839.46  1865.92  1885.40  1900.42
                             1944.49  1947.45  1988.88  1996.90  2018.80
                             2032.31  2062.05  2104.86  2140.42  2146.95
                             2153.85  2170.73  2190.99  2196.76  2202.06
                             2203.76  2232.46  2365.79  2391.38  2426.21
                             2546.01  4364.93  4370.50  4385.10  4412.87
                             4440.48  4458.75  4476.87  4502.87  4510.49
                             4532.79  4553.97  4563.81  4570.34  4592.75
                             4619.29  4638.73  4646.37  4675.16  4983.19
                             5108.29

 Zero-point correction=                           0.335113 (Hartree/Particle)
 Thermal correction to Energy=                    0.352689
 Thermal correction to Enthalpy=                  0.353633
 Thermal correction to Gibbs Free Energy=         0.289852
 Sum of electronic and zero-point Energies=           -843.299639
 Sum of electronic and thermal Energies=              -843.282063
 Sum of electronic and thermal Enthalpies=            -843.281119
 Sum of electronic and thermal Free Energies=         -843.344900

                     E (Thermal)             CV                S
                      KCal/Mol        Cal/Mol-Kelvin    Cal/Mol-Kelvin
 Total                  221.316             68.722            134.239
 Electronic               0.000              0.000              0.000
 Translational            0.889              2.981             42.568
 Rotational               0.889              2.981             33.014
 Vibrational            219.538             62.760             58.657
 Vibration     1          0.595              1.980              5.165
 Vibration     2          0.595              1.978              4.886
 Vibration     3          0.596              1.974              4.525
 Vibration     4          0.600              1.961              3.830
 Vibration     5          0.603              1.951              3.509
 Vibration     6          0.607              1.940              3.236
 Vibration     7          0.609              1.934              3.117
 Vibration     8          0.620              1.895              2.589
 Vibration     9          0.631              1.862              2.288
 Vibration    10          0.636              1.844              2.162
 Vibration    11          0.646              1.815              1.983
 Vibration    12          0.656              1.783              1.823
 Vibration    13          0.666              1.753              1.691
 Vibration    14          0.677              1.720              1.565
 Vibration    15          0.684              1.698              1.491
 Vibration    16          0.703              1.645              1.335
 Vibration    17          0.719              1.597              1.217
 Vibration    18          0.726              1.578              1.172
 Vibration    19          0.772              1.454              0.936
 Vibration    20          0.806              1.368              0.805
 Vibration    21          0.822              1.329              0.754
 Vibration    22          0.840              1.286              0.700
 Vibration    23          0.862              1.235              0.642
 Vibration    24          0.895              1.162              0.566
 Vibration    25          0.917              1.115              0.522
 Vibration    26          0.931              1.086              0.495
 Vibration    27          0.948              1.052              0.467
 Vibration    28          0.965              1.018              0.438

 Optimization completed.
    -- Stationary point found.
 Normal termination of Gaussian 16 at Sun Dec 13 16:54:50 2020.

 ----------------------------------------------------------------------
 # B3LYP/6-311++G(d,p) empiricaldispersion=gd3bj scf=xqc pop=npa geom=c
 heck
 ----------------------------------------------------------------------

 --------------------------------------
 CID_64071977_JID_9825_Energie_neutraal
 --------------------------------------
 Structure from the checkpoint file:  "JID_9825.chk"
 Charge =  0 Multiplicity = 1

 SCF Done:  E(RB3LYP) =  -843.871170867     A.U. after   15 cycles
 Normal termination of Gaussian 16 at Sun Dec 13 17:05:54 2020.

 ----------------------------------------------------------------------
 # B3LYP/6-311++G(d,p) empiricaldispersion=gd3bj scf=xqc pop=npa geom=c
 heck
 ----------------------------------------------------------------------

 ------------------------------------
 CID_64071977_JID_9825_Energie_kation
 ------------------------------------
 Structure from the checkpoint file:  "JID_9825.chk"
 Charge =  1 Multiplicity = 2

 SCF Done:  E(UB3LYP) =  -843.576408015     A.U. after   33 cycles
 SCF Done:  E(UB3LYP) =  -843.576892990     a.u. after    9 cycles
 Normal termination of Gaussian 16 at Sun Dec 13 22:00:49 2020.
 Gaussian 16:  ES64L-G16RevA.03 25-Dec-2016

 ----------------------------------------------------------------------
 # B3LYP/6-311++G(d,p) empiricaldispersion=gd3bj scf=xqc pop=npa geom=c
 heck
 ----------------------------------------------------------------------

 -----------------------------------
 CID_64071977_JID_9825_Energie_anion
 -----------------------------------
 Structure from the checkpoint file:  "JID_9825.chk"
 Charge = -1 Multiplicity = 2

                         Standard orientation:
 ---------------------------------------------------------------------
 Center     Atomic      Atomic             Coordinates (Angstroms)
 Number     Number       Type             X           Y           Z
 ---------------------------------------------------------------------
      1          6           0       -1.060584   -2.875519   -0.604818
      2          8           0       -0.774717   -1.654066    0.062239
      3          6           0       -1.672119   -0.626938    0.001365
      4          6           0       -3.031285   -0.832156   -0.258536
      5          6           0       -3.912278    0.248644   -0.272871
      6          6           0       -3.441239    1.537391   -0.034879
      7          6           0       -2.080725    1.730927    0.202313
      8          6           0       -1.170484    0.670703    0.228553
      9          6           0        0.300293    1.002434    0.469098
     10          6           0        0.727624    0.939680    1.945973
     11          6           0        0.878405   -0.519809    2.390958
     12          6           0        1.888684   -1.246187    1.500838
     13          6           0        1.750490   -0.988993    0.004433
     14          8           0        2.179579   -1.794151   -0.811676
     15          7           0        1.237676    0.241247   -0.377199
     16          6           0        1.108356    0.472217   -1.792737
     17          6           0        1.427634    1.850979   -2.312434
     18          6           0        2.348276    0.691464   -2.603775
     19          7           0        1.933840    1.767307    2.094665
     20          1           0       -0.102621   -3.390898   -0.684486
     21          1           0       -1.461077   -2.689392   -1.608298
     22          1           0       -1.772258   -3.486499   -0.035194
     23          1           0       -3.402732   -1.835419   -0.433958
     24          1           0       -4.966296    0.075455   -0.470649
     25          1           0       -4.119136    2.385219   -0.049141
     26          1           0       -1.701643    2.738066    0.360443
     27          1           0        0.422810    2.049252    0.178301
     28          1           0       -0.067206    1.417346    2.530269
     29          1           0       -0.092503   -1.020413    2.330228
     30          1           0        1.197397   -0.560387    3.440543
     31          1           0        1.847227   -2.329086    1.638049
     32          1           0        2.911008   -0.941446    1.765509
     33          1           0        0.291389   -0.068361   -2.269653
     34          1           0        0.808011    2.249584   -3.110253
     35          1           0        1.768366    2.590950   -1.593549
     36          1           0        3.293556    0.650811   -2.073376
     37          1           0        2.375247    0.273347   -3.605183
     38          1           0        2.315361    1.654288    3.032960
     39          1           0        2.649305    1.434415    1.449791
 ---------------------------------------------------------------------

 SCF Done:  E(UB3LYP) =  -843.858674846     A.U. after   33 cycles
 SCF Done:  E(UB3LYP) =  -843.858674846     a.u. after    1 cycles

 The electronic state is 2-A.
 Alpha  occ. eigenvalues --  -19.06324 -18.99162 -14.24738 -14.20168 -10.17613
 Alpha  occ. eigenvalues --  -10.14790 -10.13002 -10.12670 -10.12133 -10.11190
 Alpha  occ. eigenvalues --  -10.09299 -10.09166 -10.08845 -10.08721 -10.08615
 Alpha  occ. eigenvalues --  -10.08316 -10.08070 -10.08041 -10.07341  -0.98226
 Alpha  occ. eigenvalues --   -0.94400  -0.85752  -0.80140  -0.77016  -0.75859
 Alpha  occ. eigenvalues --   -0.68945  -0.68640  -0.66527  -0.63248  -0.60410
 Alpha  occ. eigenvalues --   -0.57236  -0.54481  -0.52433  -0.51683  -0.50406
 Alpha  occ. eigenvalues --   -0.49309  -0.45205  -0.44461  -0.41695  -0.41324
 Alpha  occ. eigenvalues --   -0.40552  -0.39269  -0.38610  -0.38041  -0.37097
 Alpha  occ. eigenvalues --   -0.36626  -0.35603  -0.35177  -0.34325  -0.33059
 Alpha  occ. eigenvalues --   -0.32618  -0.31496  -0.30929  -0.29236  -0.28972
 Alpha  occ. eigenvalues --   -0.28094  -0.27848  -0.27164  -0.26518  -0.25529
 Alpha  occ. eigenvalues --   -0.24936  -0.24034  -0.22676  -0.22308  -0.21235
 Alpha  occ. eigenvalues --   -0.17155  -0.16243  -0.15445  -0.15036  -0.13921
 Alpha  occ. eigenvalues --    0.04066
 Alpha virt. eigenvalues --    0.05471   0.06397   0.06699   0.07161   0.07814
 Alpha virt. eigenvalues --    0.08310   0.08407   0.08696   0.09058   0.09375
 Alpha virt. eigenvalues --    0.10189   0.10478   0.10741   0.11043   0.11559

  Beta  occ. eigenvalues --  -19.06318 -18.99160 -14.24735 -14.20136 -10.17613
  Beta  occ. eigenvalues --  -10.14791 -10.12972 -10.12668 -10.12129 -10.11183
  Beta  occ. eigenvalues --  -10.09294 -10.09160 -10.08841 -10.08708 -10.08593
  Beta  occ. eigenvalues --  -10.08294 -10.08061 -10.08027 -10.07323  -0.98214
  Beta  occ. eigenvalues --   -0.94395  -0.85743  -0.80098  -0.76991  -0.75843
  Beta  occ. eigenvalues --   -0.68909  -0.68611  -0.66500  -0.63210  -0.60368
  Beta  occ. eigenvalues --   -0.57207  -0.54461  -0.52401  -0.51653  -0.50376
  Beta  occ. eigenvalues --   -0.49278  -0.45171  -0.44438  -0.41666  -0.41297
  Beta  occ. eigenvalues --   -0.40525  -0.39244  -0.38574  -0.38016  -0.37072
  Beta  occ. eigenvalues --   -0.36590  -0.35583  -0.35143  -0.34293  -0.33031
  Beta  occ. eigenvalues --   -0.32600  -0.31465  -0.30899  -0.29210  -0.28957
  Beta  occ. eigenvalues --   -0.28065  -0.27823  -0.27136  -0.26495  -0.25502
  Beta  occ. eigenvalues --   -0.24911  -0.24008  -0.22649  -0.22297  -0.21227
  Beta  occ. eigenvalues --   -0.17125  -0.16212  -0.15416  -0.15020  -0.13897
  Beta virt. eigenvalues --    0.06117   0.06613   0.06698   0.07210   0.07351
  Beta virt. eigenvalues --    0.08238   0.08454   0.08624   0.09084   0.09352
  Beta virt. eigenvalues --    0.09440   0.10538   0.10937   0.11103   0.11327

 Mulliken charges and spin densities:
               1          2
     1  C    0.656949  -0.931789
     2  O   -0.081198   0.028141
     3  C    0.183734  -0.171811
     4  C   -0.673751   0.175369
     5  C    0.705759  -1.075502
     6  C    0.247865  -0.677718
     7  C   -0.792143   0.449317
     8  C    0.903544  -0.257199
     9  C    0.782762  -0.386278
    10  C   -0.840125  -0.064919
    11  C    0.266790  -0.330816
    12  C   -0.148566  -0.274434
    13  C   -0.434100  -0.018582
    14  O   -0.251270   0.011689
    15  N    0.221712   0.039385
    16  C   -0.003014   0.036101
    17  C   -0.401497  -0.017128
    18  C   -0.036722  -0.337215
    19  N   -0.168841  -0.071344
    20  H    0.175593   0.004482
    21  H   -0.144362   0.282764
    22  H   -0.378178   0.539276
    23  H   -0.422247   0.599297
    24  H   -0.656323   0.831751
    25  H   -0.301746   0.471310
    26  H   -0.040260   0.176386
    27  H    0.227227   0.048948
    28  H    0.023257   0.201058
    29  H    0.303422  -0.165053
    30  H   -0.625763   0.851025
    31  H    0.032759   0.176705
    32  H    0.029306   0.172802
    33  H    0.310559  -0.069421
    34  H    0.022985   0.130526
    35  H    0.093911   0.063258
    36  H    0.146709   0.021778
    37  H    0.071323   0.062494
    38  H   -0.151711   0.389203
    39  H    0.145651   0.086141
 Sum of Mulliken charges =  -1.00000   1.00000

 Dipole moment (field-independent basis, Debye):
    X=              3.3153    Y=              1.7089    Z=             -3.3362  Tot=              5.0042
 Quadrupole moment (field-independent basis, Debye-Ang):
   XX=           -193.6993   YY=           -162.4948   ZZ=           -162.7880
   XY=             -2.9682   XZ=            -10.7175   YZ=             -6.1280

 Summary of Natural Population Analysis:

                                       Natural Population
                Natural  -----------------------------------------------
    Atom  No    Charge         Core      Valence    Rydberg      Total
 -----------------------------------------------------------------------
      C    1   -0.10032      0.99958     2.09169    0.00904     3.10032
      O    2   -0.28207      0.99986     3.26966    0.01256     4.28207
      C    3    0.16461      0.99933     1.82242    0.01363     2.83539
      C    4   -0.13309      0.99952     2.12396    0.00962     3.13309
      C    5   -0.08873      0.99957     2.07900    0.01016     3.08873
      C    6   -0.11316      0.99956     2.10327    0.01033     3.11316
      C    7   -0.08702      0.99952     2.07834    0.00916     3.08702
      C    8   -0.04495      0.99944     2.03400    0.01150     3.04495
      C    9   -0.00743      0.99951     1.99256    0.01536     3.00743
      C   10   -0.01169      0.99956     1.99862    0.01351     3.01169
      C   11   -0.19892      0.99960     2.18967    0.00966     3.19892
      C   12   -0.23304      0.99958     2.22300    0.01046     3.23304
      C   13    0.36540      0.99963     1.61071    0.02427     2.63460
      O   14   -0.32416      0.99987     3.31895    0.00534     4.32416
      N   15   -0.27249      0.99961     2.76034    0.01254     3.77249
      C   16   -0.01554      0.99956     2.00240    0.01357     3.01554
      C   17   -0.20268      0.99962     2.19671    0.00636     3.20268
      C   18   -0.18861      0.99961     2.18041    0.00859     3.18861
      N   19   -0.42276      0.99977     2.91282    0.01016     3.92276
      H   20    0.10158      0.00000     0.39756    0.00086     0.39842
      H   21    0.08598      0.00000     0.41276    0.00125     0.41402
      H   22    0.08595      0.00000     0.41253    0.00152     0.41405
      H   23    0.10894      0.00000     0.38902    0.00204     0.39106
      H   24    0.10358      0.00000     0.39456    0.00185     0.39642
      H   25    0.10224      0.00000     0.39672    0.00104     0.39776
      H   26    0.09970      0.00000     0.39883    0.00147     0.40030
      H   27    0.10931      0.00000     0.38814    0.00255     0.39069
      H   28    0.09907      0.00000     0.39931    0.00162     0.40093
      H   29    0.10659      0.00000     0.39151    0.00190     0.39341
      H   30    0.10172      0.00000     0.39644    0.00185     0.39828
      H   31    0.11322      0.00000     0.38576    0.00102     0.38678
      H   32    0.10842      0.00000     0.39006    0.00152     0.39158
      H   33    0.10168      0.00000     0.39667    0.00166     0.39832
      H   34    0.10274      0.00000     0.39633    0.00093     0.39726
      H   35    0.10534      0.00000     0.39359    0.00107     0.39466
      H   36    0.10680      0.00000     0.39227    0.00093     0.39320
      H   37    0.10206      0.00000     0.39714    0.00080     0.39794
      H   38    0.17850      0.00000     0.31898    0.00252     0.32150
      H   39    0.17321      0.00000     0.32466    0.00213     0.32679
 =======================================================================
   * Total *    0.00000     18.99229    50.76136    0.24635    70.00000

 Normal termination of Gaussian 16 at Sun Dec 13 22:36:35 2020.
