 Gaussian 16, Revision A.03,

 -----------------------------------------------------------
 # opt freq B3LYP/6-31G(d) empiricaldispersion=gd3bj scf=xqc
 -----------------------------------------------------------

 ------------------------------
 CID_64488392_JID_7270_neutraal
 ------------------------------
 Symbolic Z-matrix:
 Charge =  0 Multiplicity = 1

 SCF Done:  E(RB3LYP) =  -1097.77392948     A.U. after   16 cycles
 SCF Done:  E(RB3LYP) =  -1097.78069705     A.U. after   13 cycles
 SCF Done:  E(RB3LYP) =  -1097.78226751     A.U. after   13 cycles
 SCF Done:  E(RB3LYP) =  -1097.78285710     A.U. after   12 cycles
 SCF Done:  E(RB3LYP) =  -1097.78328638     A.U. after   12 cycles
 SCF Done:  E(RB3LYP) =  -1097.78338478     A.U. after   12 cycles
 SCF Done:  E(RB3LYP) =  -1097.78342670     A.U. after   11 cycles
 SCF Done:  E(RB3LYP) =  -1097.78345525     A.U. after   12 cycles
 SCF Done:  E(RB3LYP) =  -1097.78346606     A.U. after   12 cycles
 SCF Done:  E(RB3LYP) =  -1097.78348701     A.U. after   11 cycles
 SCF Done:  E(RB3LYP) =  -1097.78446637     A.U. after   10 cycles
 SCF Done:  E(RB3LYP) =  -1097.78447092     A.U. after   10 cycles
 SCF Done:  E(RB3LYP) =  -1097.78447205     A.U. after    9 cycles
 SCF Done:  E(RB3LYP) =  -1097.78447232     A.U. after    8 cycles
 SCF Done:  E(RB3LYP) =  -1097.78447257     A.U. after    8 cycles
 SCF Done:  E(RB3LYP) =  -1097.78447268     A.U. after    8 cycles
 Optimization completed.
    -- Stationary point found.
 Normal termination of Gaussian 16 at Fri Dec 11 12:10:25 2020.

 --------------------------------------------------------------------
 #N Geom=AllCheck Guess=TCheck SCRF=Check GenChk RB3LYP/6-31G(d) Freq
 --------------------------------------------------------------------

 Structure from the checkpoint file:  "JID_7270.chk"
 ------------------------------
 CID_64488392_JID_7270_neutraal
 ------------------------------
 Charge =  0 Multiplicity = 1

 SCF Done:  E(RB3LYP) =  -1097.78447268     A.U. after    1 cycles

  Exact polarizability: 193.175 -23.799 175.042  -1.196 -14.176 116.494
 Approx polarizability: 279.324 -56.699 321.345  -2.075 -44.744 199.614

                      1                      2                      3
                      A                      A                      A
 Frequencies --     24.5846                27.7355                37.9974
 Red. masses --      8.0527                 7.6348                 6.6929
 Frc consts  --      0.0029                 0.0035                 0.0057
 IR Inten    --      0.4287                 0.3141                 0.3777

                      4                      5                      6
                      A                      A                      A
 Frequencies --    101.2788               111.2858               140.6647
 Red. masses --      6.1511                 5.7694                 5.1191
 Frc consts  --      0.0372                 0.0421                 0.0597
 IR Inten    --      4.1274                 6.8378                 2.7030

                      7                      8                      9
                      A                      A                      A
 Frequencies --    150.8916               174.4346               205.2806
 Red. masses --      4.9144                 4.3894                 4.6760
 Frc consts  --      0.0659                 0.0787                 0.1161
 IR Inten    --      2.3150                 2.0441                 1.9913

                     10                     11                     12
                      A                      A                      A
 Frequencies --    213.2324               241.9795               278.9199
 Red. masses --      1.0582                 1.1357                 3.3226
 Frc consts  --      0.0283                 0.0392                 0.1523
 IR Inten    --     21.3453                 0.3857                 1.3233

                     13                     14                     15
                      A                      A                      A
 Frequencies --    299.5055               348.7325               367.8096
 Red. masses --      3.9423                 4.5397                 4.9071
 Frc consts  --      0.2084                 0.3253                 0.3911
 IR Inten    --      0.7883                10.2433                 3.7528

                     16                     17                     18
                      A                      A                      A
 Frequencies --    411.2233               417.1385               439.2124
 Red. masses --      5.1378                 4.1039                 5.5561
 Frc consts  --      0.5119                 0.4207                 0.6315
 IR Inten    --      2.6206                 3.7510                 8.3258

                     19                     20                     21
                      A                      A                      A
 Frequencies --    492.0673               509.4701               522.2157
 Red. masses --      6.0854                 3.7885                 1.5790
 Frc consts  --      0.8681                 0.5794                 0.2537
 IR Inten    --      0.4007                19.6968               124.2605

                     22                     23                     24
                      A                      A                      A
 Frequencies --    545.5036               556.0341               596.7429
 Red. masses --      4.9735                 3.7744                 5.4271
 Frc consts  --      0.8720                 0.6875                 1.1387
 IR Inten    --     17.0840                 7.3832                22.2815

                     25                     26                     27
                      A                      A                      A
 Frequencies --    606.0440               642.7502               670.1721
 Red. masses --      3.7544                 6.0619                 5.0267
 Frc consts  --      0.8124                 1.4755                 1.3302
 IR Inten    --     56.8127                22.9756                 0.2780

                     28                     29                     30
                      A                      A                      A
 Frequencies --    674.5681               722.9232               733.9166
 Red. masses --      1.7284                 4.2327                 2.9113
 Frc consts  --      0.4634                 1.3033                 0.9239
 IR Inten    --    348.6673                12.3914                44.5617

                     31                     32                     33
                      A                      A                      A
 Frequencies --    740.2398               758.1360               766.6401
 Red. masses --      1.5765                 8.1929                 6.1435
 Frc consts  --      0.5090                 2.7745                 2.1274
 IR Inten    --     27.2148                10.0449                11.0305

                     34                     35                     36
                      A                      A                      A
 Frequencies --    862.5064               888.3337               894.6849
 Red. masses --      2.8941                 4.5548                 1.3172
 Frc consts  --      1.2685                 2.1177                 0.6212
 IR Inten    --      4.7387                 0.8853                 1.2822

                     37                     38                     39
                      A                      A                      A
 Frequencies --    897.3465               928.1028               950.5929
 Red. masses --      1.5569                 1.3701                 2.5179
 Frc consts  --      0.7386                 0.6953                 1.3405
 IR Inten    --     29.1485                 0.3743                 2.9456

                     40                     41                     42
                      A                      A                      A
 Frequencies --    999.5832              1047.7109              1065.7760
 Red. masses --      4.3324                 2.6459                 2.1708
 Frc consts  --      2.5504                 1.7112                 1.4528
 IR Inten    --      2.6745                40.5945                14.3385

                     43                     44                     45
                      A                      A                      A
 Frequencies --   1096.4228              1119.4895              1142.2874
 Red. masses --      1.4154                 1.6577                 2.3300
 Frc consts  --      1.0025                 1.2241                 1.7913
 IR Inten    --      5.0277                 9.9906                25.9528

                     46                     47                     48
                      A                      A                      A
 Frequencies --   1160.9707              1185.5535              1225.8612
 Red. masses --      2.1503                 2.5232                 2.1525
 Frc consts  --      1.7077                 2.0895                 1.9058
 IR Inten    --     22.9196                10.8867                22.5709

                     49                     50                     51
                      A                      A                      A
 Frequencies --   1259.2947              1317.7050              1345.6323
 Red. masses --      1.7090                 3.3637                 1.8271
 Frc consts  --      1.5968                 3.4412                 1.9493
 IR Inten    --     62.0334                89.0966                27.6577

                     52                     53                     54
                      A                      A                      A
 Frequencies --   1354.2825              1361.1790              1380.6655
 Red. masses --      2.0526                 1.7340                 2.6579
 Frc consts  --      2.2180                 1.8929                 2.9851
 IR Inten    --      8.4663                26.0118                12.7909

                     55                     56                     57
                      A                      A                      A
 Frequencies --   1395.2802              1438.4744              1467.7584
 Red. masses --      1.5252                 1.2582                 2.3075
 Frc consts  --      1.7494                 1.5340                 2.9288
 IR Inten    --      5.2356                10.4900                66.5566

                     58                     59                     60
                      A                      A                      A
 Frequencies --   1493.5343              1510.3061              1515.9693
 Red. masses --      5.2848                 2.4300                 1.0516
 Frc consts  --      6.9456                 3.2658                 1.4240
 IR Inten    --      1.3469                43.7032                 9.9877

                     61                     62                     63
                      A                      A                      A
 Frequencies --   1527.1296              1553.0667              1570.7143
 Red. masses --      1.2193                 2.7452                 5.6387
 Frc consts  --      1.6753                 3.9013                 8.1963
 IR Inten    --     57.8367               325.4394                87.9292

                     64                     65                     66
                      A                      A                      A
 Frequencies --   1623.3046              1676.4478              1697.0955
 Red. masses --      3.7923                 3.4339                 1.3268
 Frc consts  --      5.8879                 5.6861                 2.2515
 IR Inten    --    137.1540                22.2789                50.1787

                     67                     68                     69
                      A                      A                      A
 Frequencies --   2333.1868              3072.6420              3124.1159
 Red. masses --     12.6683                 1.0345                 1.0868
 Frc consts  --     40.6320                 5.7545                 6.2495
 IR Inten    --     58.8240                16.5464                 0.8395

                     70                     71                     72
                      A                      A                      A
 Frequencies --   3150.4871              3152.3446              3156.5563
 Red. masses --      1.1008                 1.1042                 1.0900
 Frc consts  --      6.4375                 6.4650                 6.3988
 IR Inten    --     16.7170                20.7871                32.1065

                     73                     74                     75
                      A                      A                      A
 Frequencies --   3204.7438              3234.0756              3278.5288
 Red. masses --      1.0917                 1.0912                 1.0981
 Frc consts  --      6.6062                 6.7242                 6.9542
 IR Inten    --      7.0251                11.0763                 2.1865

                     76                     77                     78
                      A                      A                      A
 Frequencies --   3539.8096              3581.6127              3635.7495
 Red. masses --      1.0483                 1.0764                 1.0974
 Frc consts  --      7.7393                 8.1351                 8.5467
 IR Inten    --     12.5703                25.0005                 9.1769

 - Thermochemistry -
 -------------------
 Temperature   298.150 Kelvin.  Pressure   1.00000 Atm.
 Atom     1 has atomic number  6 and mass  12.00000

 Molecular mass:   245.07352 amu.
 Principal axes and moments of inertia in atomic units:
                           1         2         3
     Eigenvalues --  2798.440426139.827017339.89231
           X            0.99949  -0.03134  -0.00532
           Y            0.03154   0.99854   0.04378
           Z            0.00394  -0.04392   0.99903
 This molecule is an asymmetric top.
 Rotational symmetry number  1.
 Warning -- assumption of classical behavior for rotation
           may cause significant error
 Rotational temperatures (Kelvin)      0.03095     0.01411     0.01180
 Rotational constants (GHZ):           0.64491     0.29394     0.24588
 Zero-point vibrational energy     561923.3 (Joules/Mol)
                                  134.30290 (Kcal/Mol)
 Warning -- explicit consideration of  25 degrees of freedom as
           vibrations may cause significant error
 Vibrational temperatures:     35.37    39.91    54.67   145.72   160.12
          (Kelvin)            202.39   217.10   250.97   295.35   306.79
                              348.15   401.30   430.92   501.75   529.20
                              591.66   600.17   631.93   707.98   733.01
                              751.35   784.86   800.01   858.58   871.96
                              924.77   964.23   970.55  1040.13  1055.94
                             1065.04  1090.79  1103.02  1240.95  1278.11
                             1287.25  1291.08  1335.33  1367.69  1438.18
                             1507.42  1533.41  1577.51  1610.70  1643.50
                             1670.38  1705.75  1763.74  1811.84  1895.88
                             1936.06  1948.51  1958.43  1986.47  2007.50
                             2069.64  2111.78  2148.86  2172.99  2181.14
                             2197.20  2234.52  2259.91  2335.57  2412.03
                             2441.74  3356.94  4420.85  4494.91  4532.85
                             4535.52  4541.58  4610.91  4653.11  4717.07
                             5093.00  5153.14  5231.03

 Zero-point correction=                           0.214025 (Hartree/Particle)
 Thermal correction to Energy=                    0.229738
 Thermal correction to Enthalpy=                  0.230682
 Thermal correction to Gibbs Free Energy=         0.169228
 Sum of electronic and zero-point Energies=          -1097.570447
 Sum of electronic and thermal Energies=             -1097.554735
 Sum of electronic and thermal Enthalpies=           -1097.553791
 Sum of electronic and thermal Free Energies=        -1097.615245

                     E (Thermal)             CV                S
                      KCal/Mol        Cal/Mol-Kelvin    Cal/Mol-Kelvin
 Total                  144.163             59.196            129.341
 Electronic               0.000              0.000              0.000
 Translational            0.889              2.981             42.390
 Rotational               0.889              2.981             33.200
 Vibrational            142.385             53.235             53.751
 Vibration     1          0.593              1.985              6.224
 Vibration     2          0.593              1.984              5.985
 Vibration     3          0.594              1.982              5.361
 Vibration     4          0.604              1.948              3.430
 Vibration     5          0.607              1.940              3.246
 Vibration     6          0.615              1.913              2.795
 Vibration     7          0.618              1.902              2.661
 Vibration     8          0.627              1.874              2.387
 Vibration     9          0.640              1.832              2.085
 Vibration    10          0.644              1.821              2.016
 Vibration    11          0.658              1.776              1.788
 Vibration    12          0.679              1.713              1.540
 Vibration    13          0.692              1.675              1.420
 Vibration    14          0.726              1.578              1.172
 Vibration    15          0.740              1.538              1.089
 Vibration    16          0.775              1.446              0.922
 Vibration    17          0.780              1.433              0.902
 Vibration    18          0.799              1.385              0.829
 Vibration    19          0.848              1.268              0.678
 Vibration    20          0.865              1.229              0.635
 Vibration    21          0.877              1.201              0.605
 Vibration    22          0.901              1.150              0.554
 Vibration    23          0.912              1.126              0.532
 Vibration    24          0.955              1.039              0.455
 Vibration    25          0.965              1.019              0.439

                           ! Non-Optimized Parameters !
 Normal termination of Gaussian 16 at Fri Dec 11 12:19:57 2020.

 ----------------------------------------------------------------------
 # B3LYP/6-311++G(d,p) empiricaldispersion=gd3bj scf=xqc pop=npa geom=c
 heck
 ----------------------------------------------------------------------

 --------------------------------------
 CID_64488392_JID_7270_Energie_neutraal
 --------------------------------------
 Structure from the checkpoint file:  "JID_7270.chk"
 Charge =  0 Multiplicity = 1

 SCF Done:  E(RB3LYP) =  -1098.00417854     A.U. after   16 cycles
 Normal termination of Gaussian 16 at Fri Dec 11 12:25:18 2020.

 ----------------------------------------------------------------------
 # B3LYP/6-311++G(d,p) empiricaldispersion=gd3bj scf=xqc pop=npa geom=c
 heck
 ----------------------------------------------------------------------

 ------------------------------------
 CID_64488392_JID_7270_Energie_kation
 ------------------------------------
 Structure from the checkpoint file:  "JID_7270.chk"
 Charge =  1 Multiplicity = 2

 SCF Done:  E(UB3LYP) =  -1097.73003399     A.U. after   24 cycles
 Normal termination of Gaussian 16 at Fri Dec 11 12:37:42 2020.
 Gaussian 16:  ES64L-G16RevA.03 25-Dec-2016

 ----------------------------------------------------------------------
 # B3LYP/6-311++G(d,p) empiricaldispersion=gd3bj scf=xqc pop=npa geom=c
 heck
 ----------------------------------------------------------------------

 -----------------------------------
 CID_64488392_JID_7270_Energie_anion
 -----------------------------------
 Structure from the checkpoint file:  "JID_7270.chk"
 Charge = -1 Multiplicity = 2

                         Standard orientation:
 ---------------------------------------------------------------------
 Center     Atomic      Atomic             Coordinates (Angstroms)
 Number     Number       Type             X           Y           Z
 ---------------------------------------------------------------------
      1          6           0       -2.213074    1.916180    1.833092
      2          6           0       -1.392602    0.766237    1.251567
      3          6           0       -2.199490   -0.044851    0.258534
      4          7           0       -3.229945    0.415294   -0.393568
      5          6           0       -3.728992   -0.520402   -1.271651
      6          6           0       -3.074747   -1.717603   -1.297373
      7         16           0       -1.752831   -1.694055   -0.174265
      8          7           0       -0.180480    1.300330    0.626059
      9          6           0        0.931855    0.522127    0.420879
     10          6           0        1.992451    0.962106   -0.419916
     11          6           0        3.129891    0.162245   -0.555305
     12          6           0        3.210547   -1.054622    0.126284
     13          6           0        2.104014   -1.400399    0.916790
     14          7           0        1.010605   -0.652614    1.059070
     15          7           0        4.355356   -1.861351    0.075942
     16          6           0        1.871777    2.200546   -1.113498
     17          7           0        1.711476    3.216682   -1.660127
     18          1           0       -2.556425    2.588561    1.041661
     19          1           0       -1.602691    2.477756    2.545684
     20          1           0       -3.099547    1.529321    2.342436
     21          1           0       -1.052614    0.107065    2.052133
     22          1           0       -4.591214   -0.266828   -1.877424
     23          1           0       -3.289726   -2.588405   -1.900943
     24          1           0       -0.330320    2.046338   -0.043218
     25          1           0        3.943239    0.497912   -1.191772
     26          1           0        2.105502   -2.344646    1.461106
     27          1           0        4.878900   -1.785431   -0.788294
     28          1           0        4.181336   -2.834536    0.298821
 ---------------------------------------------------------------------

 SCF Done:  E(UB3LYP) =  -1098.01738964     A.U. after   30 cycles

 The electronic state is 2-A.
 Alpha  occ. eigenvalues --  -88.77017 -14.20504 -14.20216 -14.19983 -14.15282
 Alpha  occ. eigenvalues --  -14.15183 -10.12325 -10.10920 -10.10353 -10.09836
 Alpha  occ. eigenvalues --  -10.09414 -10.06800 -10.06242 -10.05464 -10.04082
 Alpha  occ. eigenvalues --  -10.03938 -10.02529  -7.85585  -5.81854  -5.81492
 Alpha  occ. eigenvalues --   -5.81216  -0.85968  -0.83713  -0.79647  -0.76540
 Alpha  occ. eigenvalues --   -0.75484  -0.69017  -0.67557  -0.65542  -0.62258
 Alpha  occ. eigenvalues --   -0.59251  -0.53679  -0.51918  -0.48805  -0.48273
 Alpha  occ. eigenvalues --   -0.43597  -0.41870  -0.40722  -0.40059  -0.39471
 Alpha  occ. eigenvalues --   -0.35758  -0.33799  -0.33409  -0.32915  -0.31192
 Alpha  occ. eigenvalues --   -0.30036  -0.29721  -0.28564  -0.26877  -0.26711
 Alpha  occ. eigenvalues --   -0.25888  -0.25261  -0.24898  -0.22647  -0.22074
 Alpha  occ. eigenvalues --   -0.21203  -0.18935  -0.17910  -0.17262  -0.15714
 Alpha  occ. eigenvalues --   -0.14139  -0.13232  -0.12128  -0.06371   0.04376
 Alpha virt. eigenvalues --    0.07222   0.07294   0.07800   0.08587   0.09489
 Alpha virt. eigenvalues --    0.10278   0.11218   0.11464   0.11695   0.13070
 Alpha virt. eigenvalues --    0.13172   0.13202   0.13603   0.14187   0.14412

  Beta  occ. eigenvalues --  -88.77011 -14.20497 -14.20221 -14.19997 -14.15141
  Beta  occ. eigenvalues --  -14.14898 -10.12245 -10.10925 -10.10374 -10.09828
  Beta  occ. eigenvalues --  -10.09356 -10.06945 -10.06242 -10.05461 -10.03838
  Beta  occ. eigenvalues --  -10.03500 -10.02119  -7.85580  -5.81852  -5.81491
  Beta  occ. eigenvalues --   -5.81192  -0.85898  -0.83572  -0.79607  -0.76321
  Beta  occ. eigenvalues --   -0.75056  -0.68946  -0.67393  -0.64940  -0.62167
  Beta  occ. eigenvalues --   -0.58892  -0.53532  -0.51247  -0.48698  -0.48081
  Beta  occ. eigenvalues --   -0.43508  -0.41693  -0.40619  -0.39873  -0.39366
  Beta  occ. eigenvalues --   -0.35637  -0.33733  -0.33261  -0.32831  -0.30969
  Beta  occ. eigenvalues --   -0.29871  -0.29548  -0.27963  -0.26799  -0.26518
  Beta  occ. eigenvalues --   -0.25702  -0.25120  -0.24655  -0.22295  -0.21614
  Beta  occ. eigenvalues --   -0.20152  -0.18758  -0.17730  -0.17186  -0.15224
  Beta  occ. eigenvalues --   -0.13667  -0.11940  -0.11272  -0.05370
  Beta virt. eigenvalues --    0.07221   0.07703   0.07734   0.08561   0.09383
  Beta virt. eigenvalues --    0.10214   0.10693   0.11203   0.11417   0.11752
  Beta virt. eigenvalues --    0.13090   0.13227   0.13328   0.13619   0.14196

 Mulliken charges and spin densities:
               1          2
     1  C   -0.753080   0.002207
     2  C   -0.458894  -0.035883
     3  C    0.145056   0.089815
     4  N    0.049447   0.000103
     5  C   -0.106162   0.000677
     6  C   -0.209104   0.035010
     7  S   -0.048911  -0.026815
     8  N    0.331741   0.014327
     9  C   -1.084676  -0.056426
    10  C    2.019311   0.155207
    11  C    0.127217   0.385320
    12  C   -0.273651  -0.100037
    13  C   -0.205912   0.368150
    14  N   -0.076853   0.041576
    15  N   -0.364698   0.000711
    16  C   -1.737212  -0.039809
    17  N   -0.318425   0.145841
    18  H    0.157648   0.000825
    19  H    0.159880  -0.000784
    20  H    0.138550   0.004549
    21  H    0.230051   0.015868
    22  H    0.137279   0.001572
    23  H    0.164467   0.033738
    24  H    0.318828  -0.001624
    25  H    0.133623  -0.025459
    26  H    0.100722  -0.016682
    27  H    0.214723   0.001293
    28  H    0.209036   0.006730
 Sum of Mulliken charges =  -1.00000   1.00000

 Dipole moment (field-independent basis, Debye):
    X=             -4.2499    Y=             -5.4402    Z=              1.0826  Tot=              6.9878
 Quadrupole moment (field-independent basis, Debye-Ang):
   XX=           -140.7275   YY=           -135.5793   ZZ=           -121.6011
   XY=            -10.3299   XZ=             -1.0822   YZ=             14.9839

 Summary of Natural Population Analysis:

                                       Natural Population
                Natural  -----------------------------------------------
    Atom  No    Charge         Core      Valence    Rydberg      Total
 -----------------------------------------------------------------------
      C    1   -0.28208      0.99966     2.27729    0.00514     3.28208
      C    2   -0.03682      0.99953     2.02544    0.01185     3.03682
      C    3    0.04995      0.99959     1.93054    0.01992     2.95005
      N    4   -0.25236      0.99964     2.74200    0.01072     3.75236
      C    5   -0.02512      0.99955     2.01145    0.01412     3.02512
      C    6   -0.21368      0.99955     2.20380    0.01033     3.21368
      S    7    0.21259      4.99944     2.76543    0.02254     7.78741
      N    8   -0.31630      0.99966     2.80503    0.01160     3.81630
      C    9    0.20659      0.99952     1.77638    0.01751     2.79341
      C   10   -0.09124      0.99939     2.08137    0.01047     3.09124
      C   11   -0.00119      0.99951     1.99429    0.00739     3.00119
      C   12    0.01653      0.99948     1.97449    0.00951     2.98347
      C   13    0.09895      0.99956     1.88791    0.01358     2.90105
      N   14   -0.25518      0.99967     2.74640    0.00912     3.75518
      N   15   -0.40917      0.99972     2.89911    0.01034     3.90917
      C   16    0.14519      0.99965     1.83626    0.01890     2.85481
      N   17   -0.17560      0.99979     2.66430    0.01151     3.67560
      H   18    0.10369      0.00000     0.39540    0.00092     0.39631
      H   19    0.10071      0.00000     0.39844    0.00086     0.39929
      H   20    0.09895      0.00000     0.40030    0.00075     0.40105
      H   21    0.11669      0.00000     0.38165    0.00166     0.38331
      H   22    0.09352      0.00000     0.40541    0.00107     0.40648
      H   23    0.10677      0.00000     0.39208    0.00115     0.39323
      H   24    0.19470      0.00000     0.30376    0.00155     0.30530
      H   25    0.08924      0.00000     0.40982    0.00094     0.41076
      H   26    0.07105      0.00000     0.42744    0.00151     0.42895
      H   27    0.17657      0.00000     0.32181    0.00162     0.32343
      H   28    0.17708      0.00000     0.32138    0.00154     0.32292
 =======================================================================
   * Total *   -0.00000     20.99292    42.77896    0.22813    64.00000

 Normal termination of Gaussian 16 at Fri Dec 11 12:54:48 2020.
