 Gaussian 16, Revision A.03,

 -----------------------------------------------------------
 # opt freq B3LYP/6-31G(d) empiricaldispersion=gd3bj scf=xqc
 -----------------------------------------------------------

 -------------------------------
 CID_149989815_JID_6032_neutraal
 -------------------------------
 Symbolic Z-matrix:
 Charge =  0 Multiplicity = 1

 SCF Done:  E(RB3LYP) =  -744.177690815     A.U. after   15 cycles
 SCF Done:  E(RB3LYP) =  -744.179538801     A.U. after   13 cycles
 SCF Done:  E(RB3LYP) =  -744.177899342     A.U. after   13 cycles
 SCF Done:  E(RB3LYP) =  -744.182308017     A.U. after   13 cycles
 SCF Done:  E(RB3LYP) =  -744.183813846     A.U. after   13 cycles
 SCF Done:  E(RB3LYP) =  -744.186275907     A.U. after   13 cycles
 SCF Done:  E(RB3LYP) =  -744.187413073     A.U. after   12 cycles
 SCF Done:  E(RB3LYP) =  -744.187895627     A.U. after   13 cycles
 SCF Done:  E(RB3LYP) =  -744.188612861     A.U. after   12 cycles
 SCF Done:  E(RB3LYP) =  -744.188894946     A.U. after   11 cycles
 SCF Done:  E(RB3LYP) =  -744.195506918     A.U. after   12 cycles
 SCF Done:  E(RB3LYP) =  -744.195516454     A.U. after   10 cycles
 SCF Done:  E(RB3LYP) =  -744.195519436     A.U. after    9 cycles
 SCF Done:  E(RB3LYP) =  -744.195520060     A.U. after    8 cycles
 SCF Done:  E(RB3LYP) =  -744.195520260     A.U. after    8 cycles
 Optimization completed.
    -- Stationary point found.
 Normal termination of Gaussian 16 at Thu Dec 10 21:21:15 2020.

 --------------------------------------------------------------------
 #N Geom=AllCheck Guess=TCheck SCRF=Check GenChk RB3LYP/6-31G(d) Freq
 --------------------------------------------------------------------

 Structure from the checkpoint file:  "JID_6032.chk"
 -------------------------------
 CID_149989815_JID_6032_neutraal
 -------------------------------
 Charge =  0 Multiplicity = 1

 SCF Done:  E(RB3LYP) =  -744.195520260     A.U. after    1 cycles

  Exact polarizability: 150.631  -1.668 140.559  22.336   8.816 124.600
 Approx polarizability: 198.818 -11.298 215.152  46.093  24.485 209.977

                      1                      2                      3
                      A                      A                      A
 Frequencies --     19.9706                35.0538                59.8751
 Red. masses --      4.5544                 3.8790                 3.0458
 Frc consts  --      0.0011                 0.0028                 0.0064
 IR Inten    --      0.4652                 0.1760                 0.8953

                      4                      5                      6
                      A                      A                      A
 Frequencies --     75.7094                94.5564               107.7540
 Red. masses --      5.9227                 3.1944                 3.8865
 Frc consts  --      0.0200                 0.0168                 0.0266
 IR Inten    --      0.5339                 0.1506                 0.6257

                      7                      8                      9
                      A                      A                      A
 Frequencies --    116.5590               144.8144               156.1612
 Red. masses --      4.4018                 3.0135                 2.9348
 Frc consts  --      0.0352                 0.0372                 0.0422
 IR Inten    --      1.6135                 6.7029                 0.5052

                     10                     11                     12
                      A                      A                      A
 Frequencies --    203.7454               220.7300               242.1618
 Red. masses --      2.0240                 1.1825                 1.7440
 Frc consts  --      0.0495                 0.0339                 0.0603
 IR Inten    --      1.5685                 0.1810                 3.8607

                     13                     14                     15
                      A                      A                      A
 Frequencies --    275.0537               290.7625               354.4290
 Red. masses --      1.9567                 2.7405                 2.8491
 Frc consts  --      0.0872                 0.1365                 0.2109
 IR Inten    --      1.2568                 3.3615                17.7642

                     16                     17                     18
                      A                      A                      A
 Frequencies --    362.6689               363.6077               423.1778
 Red. masses --      4.5044                 3.0116                 2.6729
 Frc consts  --      0.3491                 0.2346                 0.2820
 IR Inten    --      6.7638                 6.6531                 3.2386

                     19                     20                     21
                      A                      A                      A
 Frequencies --    492.6307               497.8495               535.8903
 Red. masses --      4.7523                 2.9488                 3.0196
 Frc consts  --      0.6795                 0.4306                 0.5109
 IR Inten    --     23.8195                 4.9793                 6.2857

                     22                     23                     24
                      A                      A                      A
 Frequencies --    544.4992               588.5914               600.2035
 Red. masses --      3.3313                 2.6602                 4.1729
 Frc consts  --      0.5819                 0.5430                 0.8857
 IR Inten    --     18.6213                32.0237                16.1779

                     25                     26                     27
                      A                      A                      A
 Frequencies --    607.2029               644.3585               680.5112
 Red. masses --      3.9416                 2.0017                 3.5240
 Frc consts  --      0.8562                 0.4897                 0.9615
 IR Inten    --     11.1334                74.1947                 3.8723

                     28                     29                     30
                      A                      A                      A
 Frequencies --    769.9735               805.4878               808.0508
 Red. masses --      2.6072                 1.5291                 2.0775
 Frc consts  --      0.9107                 0.5845                 0.7992
 IR Inten    --      4.8330                 5.2747                 6.1036

                     31                     32                     33
                      A                      A                      A
 Frequencies --    817.2845               854.7616               859.4529
 Red. masses --      1.8211                 1.2323                 2.4662
 Frc consts  --      0.7167                 0.5305                 1.0733
 IR Inten    --      2.1140                14.7898                14.1337

                     34                     35                     36
                      A                      A                      A
 Frequencies --    891.2840               899.9428               933.6618
 Red. masses --      3.3315                 3.0147                 2.7217
 Frc consts  --      1.5593                 1.4386                 1.3979
 IR Inten    --      2.7006                 6.6266                10.7681

                     37                     38                     39
                      A                      A                      A
 Frequencies --    957.1247               983.6123               997.8569
 Red. masses --      1.3835                 2.6467                 2.1683
 Frc consts  --      0.7467                 1.5087                 1.2720
 IR Inten    --      0.2356                 5.9620                11.8261

                     40                     41                     42
                      A                      A                      A
 Frequencies --   1049.5976              1060.9620              1078.3497
 Red. masses --      3.3149                 1.9520                 2.2854
 Frc consts  --      2.1516                 1.2946                 1.5658
 IR Inten    --     29.2034                19.8754                 7.4827

                     43                     44                     45
                      A                      A                      A
 Frequencies --   1089.1640              1115.8411              1126.4904
 Red. masses --      1.8306                 3.0027                 2.2708
 Frc consts  --      1.2795                 2.2027                 1.6978
 IR Inten    --      6.9223                 6.8111                 2.6361

                     46                     47                     48
                      A                      A                      A
 Frequencies --   1131.7010              1197.4992              1206.8858
 Red. masses --      2.0122                 2.2632                 1.7854
 Frc consts  --      1.5184                 1.9121                 1.5322
 IR Inten    --     29.3047                38.1165                21.5048

                     49                     50                     51
                      A                      A                      A
 Frequencies --   1229.6444              1236.3664              1255.6662
 Red. masses --      1.3161                 2.9243                 2.9114
 Frc consts  --      1.1725                 2.6337                 2.7045
 IR Inten    --      1.3393               339.0645                43.7349

                     52                     53                     54
                      A                      A                      A
 Frequencies --   1282.6313              1308.7243              1324.6795
 Red. masses --      1.5877                 1.5170                 1.4218
 Frc consts  --      1.5390                 1.5309                 1.4700
 IR Inten    --      5.3312                56.4156                15.3765

                     55                     56                     57
                      A                      A                      A
 Frequencies --   1343.2549              1369.4327              1378.0909
 Red. masses --      1.1338                 1.7134                 1.7293
 Frc consts  --      1.2053                 1.8931                 1.9349
 IR Inten    --     19.3190                19.1021                17.1670

                     58                     59                     60
                      A                      A                      A
 Frequencies --   1396.5869              1411.1807              1426.9718
 Red. masses --      1.5015                 1.5060                 1.4600
 Frc consts  --      1.7254                 1.7670                 1.7515
 IR Inten    --     55.9321                54.4977                33.1354

                     61                     62                     63
                      A                      A                      A
 Frequencies --   1439.6486              1443.4994              1447.1555
 Red. masses --      1.4609                 1.4454                 1.4282
 Frc consts  --      1.7839                 1.7744                 1.7623
 IR Inten    --     13.3707                18.8273                23.0372

                     64                     65                     66
                      A                      A                      A
 Frequencies --   1485.3030              1497.2878              1510.5345
 Red. masses --      1.1022                 1.2414                 1.4681
 Frc consts  --      1.4326                 1.6397                 1.9737
 IR Inten    --     24.2913                13.7391                 6.7068

                     67                     68                     69
                      A                      A                      A
 Frequencies --   1516.7823              1519.5625              1521.3307
 Red. masses --      1.0482                 1.1405                 1.2398
 Frc consts  --      1.4208                 1.5516                 1.6906
 IR Inten    --      7.7554                 9.1763                 4.1944

                     70                     71                     72
                      A                      A                      A
 Frequencies --   1532.4132              1536.2505              1542.9712
 Red. masses --      1.0775                 1.0622                 1.0704
 Frc consts  --      1.4907                 1.4770                 1.5014
 IR Inten    --      2.2111                 4.7678                 4.6738

                     73                     74                     75
                      A                      A                      A
 Frequencies --   1553.8173              1606.7388              1631.3064
 Red. masses --      2.0989                 6.5606                 4.4407
 Frc consts  --      2.9857                 9.9790                 6.9627
 IR Inten    --    241.1487                29.7126                94.6706

                     76                     77                     78
                      A                      A                      A
 Frequencies --   1791.0524              3044.1468              3054.1900
 Red. masses --     10.1763                 1.0675                 1.0346
 Frc consts  --     19.2335                 5.8284                 5.6862
 IR Inten    --    187.7786                22.4746                26.1482

                     79                     80                     81
                      A                      A                      A
 Frequencies --   3063.1474              3066.4780              3093.3016
 Red. masses --      1.0361                 1.0634                 1.0693
 Frc consts  --      5.7278                 5.8913                 6.0283
 IR Inten    --     13.4144                13.6742                23.1558

                     82                     83                     84
                      A                      A                      A
 Frequencies --   3098.7584              3109.0677              3111.9079
 Red. masses --      1.0592                 1.0973                 1.0922
 Frc consts  --      5.9925                 6.2493                 6.2317
 IR Inten    --     26.9333                 1.4663                21.1661

                     85                     86                     87
                      A                      A                      A
 Frequencies --   3124.1484              3130.6219              3132.1293
 Red. masses --      1.1022                 1.1013                 1.1023
 Frc consts  --      6.3386                 6.3594                 6.3713
 IR Inten    --     34.3727                25.2168                24.2948

                     88                     89                     90
                      A                      A                      A
 Frequencies --   3141.0152              3154.3577              3161.7058
 Red. masses --      1.1036                 1.1035                 1.1087
 Frc consts  --      6.4153                 6.4694                 6.5298
 IR Inten    --      6.5583                 6.7348                27.4278

                     91                     92                     93
                      A                      A                      A
 Frequencies --   3172.5625              3198.5557              3630.3765
 Red. masses --      1.0878                 1.0960                 1.0752
 Frc consts  --      6.4511                 6.6067                 8.3492
 IR Inten    --     14.3998                50.9182                50.4362

 - Thermochemistry -
 -------------------
 Temperature   298.150 Kelvin.  Pressure   1.00000 Atm.
 Atom     1 has atomic number  6 and mass  12.00000

 Molecular mass:   223.13208 amu.
 Principal axes and moments of inertia in atomic units:
                           1         2         3
     Eigenvalues --  2309.841425473.665846183.70870
           X            0.99989   0.01102  -0.00960
           Y           -0.01100   0.99994   0.00173
           Z            0.00961  -0.00163   0.99995
 This molecule is an asymmetric top.
 Rotational symmetry number  1.
 Warning -- assumption of classical behavior for rotation
           may cause significant error
 Rotational temperatures (Kelvin)      0.03750     0.01582     0.01401
 Rotational constants (GHZ):           0.78133     0.32971     0.29185
 Zero-point vibrational energy     738089.1 (Joules/Mol)
                                  176.40754 (Kcal/Mol)
 Warning -- explicit consideration of  25 degrees of freedom as
           vibrations may cause significant error
 Vibrational temperatures:     28.73    50.43    86.15   108.93   136.05
          (Kelvin)            155.03   167.70   208.36   224.68   293.14
                              317.58   348.42   395.74   418.34   509.94
                              521.80   523.15   608.86   708.79   716.29
                              771.03   783.41   846.85   863.56   873.63
                              927.09   979.10  1107.82  1158.92  1162.60
                             1175.89  1229.81  1236.56  1282.36  1294.82
                             1343.33  1377.09  1415.20  1435.69  1510.14
                             1526.49  1551.50  1567.06  1605.45  1620.77
                             1628.27  1722.93  1736.44  1769.18  1778.86
                             1806.62  1845.42  1882.96  1905.92  1932.64
                             1970.31  1982.77  2009.38  2030.37  2053.09
                             2071.33  2076.87  2082.13  2137.02  2154.26
                             2173.32  2182.31  2186.31  2188.86  2204.80
                             2210.32  2219.99  2235.60  2311.74  2347.09
                             2576.92  4379.85  4394.30  4407.19  4411.98
                             4450.57  4458.42  4473.26  4477.34  4494.95
                             4504.27  4506.44  4519.22  4538.42  4548.99
                             4564.61  4602.01  5223.30

 Zero-point correction=                           0.281123 (Hartree/Particle)
 Thermal correction to Energy=                    0.297289
 Thermal correction to Enthalpy=                  0.298233
 Thermal correction to Gibbs Free Energy=         0.235825
 Sum of electronic and zero-point Energies=           -743.914397
 Sum of electronic and thermal Energies=              -743.898232
 Sum of electronic and thermal Enthalpies=            -743.897287
 Sum of electronic and thermal Free Energies=         -743.959695

                     E (Thermal)             CV                S
                      KCal/Mol        Cal/Mol-Kelvin    Cal/Mol-Kelvin
 Total                  186.551             59.719            131.349
 Electronic               0.000              0.000              0.000
 Translational            0.889              2.981             42.110
 Rotational               0.889              2.981             32.725
 Vibrational            184.774             53.757             56.514
 Vibration     1          0.593              1.986              6.637
 Vibration     2          0.594              1.982              5.521
 Vibration     3          0.597              1.973              4.461
 Vibration     4          0.599              1.965              3.999
 Vibration     5          0.603              1.953              3.564
 Vibration     6          0.606              1.943              3.309
 Vibration     7          0.608              1.936              3.157
 Vibration     8          0.616              1.908              2.739
 Vibration     9          0.620              1.896              2.596
 Vibration    10          0.639              1.835              2.099
 Vibration    11          0.647              1.810              1.953
 Vibration    12          0.658              1.776              1.787
 Vibration    13          0.677              1.719              1.564
 Vibration    14          0.687              1.691              1.470
 Vibration    15          0.730              1.566              1.146
 Vibration    16          0.737              1.549              1.111
 Vibration    17          0.737              1.547              1.107
 Vibration    18          0.785              1.420              0.881
 Vibration    19          0.848              1.266              0.677
 Vibration    20          0.853              1.255              0.664
 Vibration    21          0.891              1.171              0.574
 Vibration    22          0.900              1.152              0.556
 Vibration    23          0.946              1.056              0.470
 Vibration    24          0.958              1.031              0.449
 Vibration    25          0.966              1.017              0.437

 Optimization completed.
    -- Stationary point found.
 Normal termination of Gaussian 16 at Thu Dec 10 21:31:52 2020.

 ----------------------------------------------------------------------
 # B3LYP/6-311++G(d,p) empiricaldispersion=gd3bj scf=xqc pop=npa geom=c
 heck
 ----------------------------------------------------------------------

 ---------------------------------------
 CID_149989815_JID_6032_Energie_neutraal
 ---------------------------------------
 Structure from the checkpoint file:  "JID_6032.chk"
 Charge =  0 Multiplicity = 1

 SCF Done:  E(RB3LYP) =  -744.404264896     A.U. after   16 cycles
 Normal termination of Gaussian 16 at Thu Dec 10 21:36:29 2020.

 ----------------------------------------------------------------------
 # B3LYP/6-311++G(d,p) empiricaldispersion=gd3bj scf=xqc pop=npa geom=c
 heck
 ----------------------------------------------------------------------

 -------------------------------------
 CID_149989815_JID_6032_Energie_kation
 -------------------------------------
 Structure from the checkpoint file:  "JID_6032.chk"
 Charge =  1 Multiplicity = 2

 SCF Done:  E(UB3LYP) =  -744.118793095     A.U. after   22 cycles
 Normal termination of Gaussian 16 at Thu Dec 10 21:47:22 2020.
 Gaussian 16:  ES64L-G16RevA.03 25-Dec-2016

 ----------------------------------------------------------------------
 # B3LYP/6-311++G(d,p) empiricaldispersion=gd3bj scf=xqc pop=npa geom=c
 heck
 ----------------------------------------------------------------------

 ------------------------------------
 CID_149989815_JID_6032_Energie_anion
 ------------------------------------
 Structure from the checkpoint file:  "JID_6032.chk"
 Charge = -1 Multiplicity = 2

                         Standard orientation:
 ---------------------------------------------------------------------
 Center     Atomic      Atomic             Coordinates (Angstroms)
 Number     Number       Type             X           Y           Z
 ---------------------------------------------------------------------
      1          6           0       -0.501827    2.613639    0.689055
      2          6           0       -1.794400    1.922593    1.164812
      3          6           0       -2.208014    0.780587    0.270340
      4          7           0       -3.141294    1.017718   -0.643416
      5          6           0       -3.492864    0.013925   -1.468434
      6          6           0       -2.891844   -1.231179   -1.377124
      7          7           0       -1.940410   -1.500651   -0.471934
      8          6           0       -1.599473   -0.509711    0.361188
      9          7           0       -0.666567   -0.781448    1.337558
     10          6           0        0.164384   -1.973880    1.255959
     11          6           0        1.202107   -1.910113    0.129634
     12          6           0        2.140349   -0.732956    0.280044
     13          8           0        2.085362    0.095859    1.171936
     14          8           0        3.052741   -0.706420   -0.707385
     15          6           0        3.976098    0.411196   -0.708797
     16          6           0        3.361052    1.624301   -1.387338
     17          1           0        0.356120    1.932533    0.693248
     18          1           0       -0.256254    3.461172    1.338045
     19          1           0       -0.631467    2.989733   -0.331275
     20          1           0       -1.672326    1.568702    2.197305
     21          1           0       -2.614100    2.646542    1.164630
     22          1           0       -4.261819    0.224555   -2.206914
     23          1           0       -3.167587   -2.042146   -2.048530
     24          1           0       -0.168738    0.018191    1.702886
     25          1           0        0.662842   -2.088416    2.222414
     26          1           0       -0.484142   -2.836623    1.096475
     27          1           0        1.798594   -2.829950    0.088240
     28          1           0        0.694908   -1.829826   -0.838275
     29          1           0        4.261982    0.632378    0.321899
     30          1           0        4.844694    0.040057   -1.256939
     31          1           0        2.501136    1.990563   -0.819883
     32          1           0        4.100335    2.430755   -1.448648
     33          1           0        3.035506    1.376525   -2.402576
 ---------------------------------------------------------------------

 SCF Done:  E(UB3LYP) =  -744.395662675     A.U. after   33 cycles
 SCF Done:  E(UB3LYP) =  -744.395662675     a.u. after    1 cycles

 The electronic state is 2-A.
 Alpha  occ. eigenvalues --  -19.07464 -19.02190 -14.21428 -14.17642 -14.17584
 Alpha  occ. eigenvalues --  -10.21203 -10.13049 -10.12151 -10.10677 -10.08861
 Alpha  occ. eigenvalues --  -10.07705 -10.07636 -10.07228 -10.06665 -10.06011
 Alpha  occ. eigenvalues --  -10.05244  -1.01598  -0.92961  -0.86414  -0.81432
 Alpha  occ. eigenvalues --   -0.76586  -0.69942  -0.67615  -0.65706  -0.61926
 Alpha  occ. eigenvalues --   -0.58057  -0.54576  -0.54024  -0.50209  -0.48474
 Alpha  occ. eigenvalues --   -0.46070  -0.43732  -0.41739  -0.39957  -0.39406
 Alpha  occ. eigenvalues --   -0.37965  -0.36721  -0.35321  -0.34829  -0.33187
 Alpha  occ. eigenvalues --   -0.33003  -0.32222  -0.31614  -0.30376  -0.29707
 Alpha  occ. eigenvalues --   -0.29126  -0.28141  -0.27749  -0.26712  -0.26167
 Alpha  occ. eigenvalues --   -0.24867  -0.24210  -0.23905  -0.21524  -0.21281
 Alpha  occ. eigenvalues --   -0.19191  -0.17831  -0.17379  -0.12135  -0.10102
 Alpha  occ. eigenvalues --    0.04563
 Alpha virt. eigenvalues --    0.05987   0.07336   0.07931   0.08357   0.09125
 Alpha virt. eigenvalues --    0.09167   0.09444   0.09883   0.10457   0.10941
 Alpha virt. eigenvalues --    0.11270   0.11512   0.11871   0.12378   0.13228

  Beta  occ. eigenvalues --  -19.07463 -19.02184 -14.21426 -14.17353 -14.17227
  Beta  occ. eigenvalues --  -10.21202 -10.13019 -10.12179 -10.10675 -10.08857
  Beta  occ. eigenvalues --  -10.07564 -10.07531 -10.07279 -10.06630 -10.06023
  Beta  occ. eigenvalues --  -10.05207  -1.01589  -0.92952  -0.86170  -0.81174
  Beta  occ. eigenvalues --   -0.76073  -0.69898  -0.67498  -0.65653  -0.61780
  Beta  occ. eigenvalues --   -0.57985  -0.54335  -0.53955  -0.50108  -0.48272
  Beta  occ. eigenvalues --   -0.46026  -0.43650  -0.41688  -0.39924  -0.39332
  Beta  occ. eigenvalues --   -0.37896  -0.36618  -0.35237  -0.34798  -0.33097
  Beta  occ. eigenvalues --   -0.32877  -0.32145  -0.31534  -0.30092  -0.29658
  Beta  occ. eigenvalues --   -0.28981  -0.27954  -0.27682  -0.26648  -0.25965
  Beta  occ. eigenvalues --   -0.24836  -0.24130  -0.23818  -0.21462  -0.20601
  Beta  occ. eigenvalues --   -0.19141  -0.16973  -0.16690  -0.11781  -0.09558
  Beta virt. eigenvalues --    0.06897   0.07563   0.08016   0.08291   0.08938
  Beta virt. eigenvalues --    0.09458   0.09565   0.09741   0.10122   0.10439
  Beta virt. eigenvalues --    0.10999   0.11497   0.11779   0.12041   0.12365

 Mulliken charges and spin densities:
               1          2
     1  C    0.045014  -0.417026
     2  C   -0.890984   0.333063
     3  C   -0.127120  -0.080839
     4  N   -0.015188   0.174603
     5  C    0.039367  -0.042287
     6  C   -0.192509   0.135180
     7  N   -0.161596   0.093518
     8  C   -0.135389  -0.057213
     9  N    0.042124   0.004310
    10  C   -0.318253  -0.091387
    11  C    0.192064  -0.176346
    12  C   -0.240418  -0.158416
    13  O   -0.265152   0.010487
    14  O   -0.038620   0.058243
    15  C    0.182981  -0.362950
    16  C    0.561452  -0.907822
    17  H    0.117021  -0.022038
    18  H   -0.238099   0.374779
    19  H    0.127705   0.007908
    20  H    0.076779   0.062861
    21  H    0.114153   0.054066
    22  H    0.135579   0.006916
    23  H    0.122606   0.003538
    24  H    0.277133   0.005189
    25  H    0.117391   0.048091
    26  H    0.191701   0.002569
    27  H    0.077303   0.108756
    28  H    0.291336  -0.048303
    29  H    0.052409   0.111805
    30  H   -0.735129   0.916049
    31  H    0.121038   0.032114
    32  H   -0.527278   0.681930
    33  H    0.000580   0.138652
 Sum of Mulliken charges =  -1.00000   1.00000

 Dipole moment (field-independent basis, Debye):
    X=             -3.1043    Y=             -4.2702    Z=              2.2826  Tot=              5.7516
 Quadrupole moment (field-independent basis, Debye-Ang):
   XX=           -181.1749   YY=           -129.7849   ZZ=           -122.2068
   XY=             -9.0221   XZ=             11.2853   YZ=             -0.3633

 Summary of Natural Population Analysis:

                                       Natural Population
                Natural  -----------------------------------------------
    Atom  No    Charge         Core      Valence    Rydberg      Total
 -----------------------------------------------------------------------
      C    1   -0.28530      0.99966     2.28064    0.00501     3.28530
      C    2   -0.21095      0.99962     2.20034    0.01099     3.21095
      C    3    0.09749      0.99952     1.88724    0.01575     2.90251
      N    4   -0.17894      0.99968     2.66837    0.01089     3.67894
      C    5   -0.03460      0.99959     2.02138    0.01363     3.03460
      C    6    0.02124      0.99960     1.96588    0.01329     2.97876
      N    7   -0.23032      0.99968     2.71752    0.01312     3.73032
      C    8    0.18287      0.99950     1.80299    0.01464     2.81713
      N    9   -0.31981      0.99968     2.80979    0.01034     3.81981
      C   10   -0.08884      0.99963     2.07786    0.01136     3.08884
      C   11   -0.24730      0.99958     2.24066    0.00706     3.24730
      C   12    0.41169      0.99969     1.56259    0.02603     2.58831
      O   13   -0.31938      0.99987     3.31416    0.00534     4.31938
      O   14   -0.27980      0.99986     3.27104    0.00891     4.27980
      C   15   -0.01683      0.99957     2.00537    0.01188     3.01683
      C   16   -0.29928      0.99966     2.29428    0.00534     3.29928
      H   17    0.10005      0.00000     0.39832    0.00163     0.39995
      H   18    0.09578      0.00000     0.40313    0.00108     0.40422
      H   19    0.09853      0.00000     0.40032    0.00115     0.40147
      H   20    0.09508      0.00000     0.40362    0.00130     0.40492
      H   21    0.10557      0.00000     0.39265    0.00178     0.39443
      H   22    0.08445      0.00000     0.41424    0.00131     0.41555
      H   23    0.08289      0.00000     0.41595    0.00116     0.41711
      H   24    0.19844      0.00000     0.29862    0.00294     0.30156
      H   25    0.09511      0.00000     0.40393    0.00096     0.40489
      H   26    0.10784      0.00000     0.39097    0.00120     0.39216
      H   27    0.11026      0.00000     0.38863    0.00111     0.38974
      H   28    0.12471      0.00000     0.37369    0.00160     0.37529
      H   29    0.09463      0.00000     0.40410    0.00127     0.40537
      H   30    0.09315      0.00000     0.40434    0.00250     0.40685
      H   31    0.10567      0.00000     0.39306    0.00127     0.39433
      H   32    0.10541      0.00000     0.39269    0.00190     0.39459
      H   33    0.10050      0.00000     0.39850    0.00100     0.39950
 =======================================================================
   * Total *   -0.00000     15.99437    43.79687    0.20875    60.00000

 Normal termination of Gaussian 16 at Thu Dec 10 22:01:54 2020.
