 Gaussian 16, Revision A.03,

 -----------------------------------------------------------
 # opt freq B3LYP/6-31G(d) empiricaldispersion=gd3bj scf=xqc
 -----------------------------------------------------------

 -------------------------------
 CID_62007090_JID_10908_neutraal
 -------------------------------
 Symbolic Z-matrix:
 Charge =  0 Multiplicity = 1

 SCF Done:  E(RB3LYP) =  -1299.99823202     A.U. after   15 cycles
 SCF Done:  E(RB3LYP) =  -1300.00562953     A.U. after   14 cycles
 SCF Done:  E(RB3LYP) =  -1300.00541873     A.U. after   13 cycles
 SCF Done:  E(RB3LYP) =  -1300.00696599     A.U. after   13 cycles
 SCF Done:  E(RB3LYP) =  -1300.00747987     A.U. after   12 cycles
 SCF Done:  E(RB3LYP) =  -1300.00780423     A.U. after   11 cycles
 SCF Done:  E(RB3LYP) =  -1300.00794452     A.U. after   12 cycles
 SCF Done:  E(RB3LYP) =  -1300.00801158     A.U. after   12 cycles
 SCF Done:  E(RB3LYP) =  -1300.00804091     A.U. after    9 cycles
 SCF Done:  E(RB3LYP) =  -1300.00806417     A.U. after   11 cycles
 SCF Done:  E(RB3LYP) =  -1300.00809318     A.U. after   10 cycles
 SCF Done:  E(RB3LYP) =  -1300.00809398     A.U. after    9 cycles
 SCF Done:  E(RB3LYP) =  -1300.00809420     A.U. after    8 cycles
 SCF Done:  E(RB3LYP) =  -1300.00809423     A.U. after    6 cycles
 SCF Done:  E(RB3LYP) =  -1300.00809424     A.U. after    6 cycles
 Optimization completed.
    -- Stationary point found.
 Normal termination of Gaussian 16 at Mon Dec 14 17:56:56 2020.

 --------------------------------------------------------------------
 #N Geom=AllCheck Guess=TCheck SCRF=Check GenChk RB3LYP/6-31G(d) Freq
 --------------------------------------------------------------------

 Structure from the checkpoint file:  "JID_10908.chk"
 -------------------------------
 CID_62007090_JID_10908_neutraal
 -------------------------------
 Charge =  0 Multiplicity = 1

 SCF Done:  E(RB3LYP) =  -1300.00809424     A.U. after    1 cycles

  Exact polarizability: 226.925 -22.451 161.825  -4.358  -9.966 155.389
 Approx polarizability: 296.535 -45.117 241.986 -21.954 -32.563 281.013

                      1                      2                      3
                      A                      A                      A
 Frequencies --     14.2138                17.1488                24.1586
 Red. masses --      4.3858                 3.2780                 4.3812
 Frc consts  --      0.0005                 0.0006                 0.0015
 IR Inten    --      1.0968                 1.5046                 0.5576

                      4                      5                      6
                      A                      A                      A
 Frequencies --     32.4967                51.7738                72.5391
 Red. masses --      3.5691                 3.2001                 4.5661
 Frc consts  --      0.0022                 0.0051                 0.0142
 IR Inten    --      0.7849                 0.3905                 1.5797

                      7                      8                      9
                      A                      A                      A
 Frequencies --     82.0007                96.7330               110.7138
 Red. masses --      3.7987                 3.5751                 2.7288
 Frc consts  --      0.0150                 0.0197                 0.0197
 IR Inten    --      1.7517                 0.2875                 0.6453

                     10                     11                     12
                      A                      A                      A
 Frequencies --    126.7149               140.3515               163.8383
 Red. masses --      2.6920                 3.9620                 3.4654
 Frc consts  --      0.0255                 0.0460                 0.0548
 IR Inten    --      0.8629                 2.3140                 0.2784

                     13                     14                     15
                      A                      A                      A
 Frequencies --    203.1405               216.5000               230.7823
 Red. masses --      2.4745                 1.4860                 1.6089
 Frc consts  --      0.0602                 0.0410                 0.0505
 IR Inten    --      0.4973                 1.2185                 0.3272

                     16                     17                     18
                      A                      A                      A
 Frequencies --    240.1085               257.1697               266.7239
 Red. masses --      2.5214                 1.9748                 3.0806
 Frc consts  --      0.0856                 0.0769                 0.1291
 IR Inten    --      2.7583                 1.2243                 3.8528

                     19                     20                     21
                      A                      A                      A
 Frequencies --    281.0735               313.8644               330.4853
 Red. masses --      3.2043                 2.5054                 3.0641
 Frc consts  --      0.1491                 0.1454                 0.1972
 IR Inten    --      3.1736                 7.2016                 2.5028

                     22                     23                     24
                      A                      A                      A
 Frequencies --    356.2415               387.3033               404.1595
 Red. masses --      3.6589                 3.8331                 3.5969
 Frc consts  --      0.2736                 0.3388                 0.3462
 IR Inten    --     14.4124                 4.7893                 8.4813

                     25                     26                     27
                      A                      A                      A
 Frequencies --    425.4403               429.7953               438.2810
 Red. masses --      3.1200                 3.2108                 3.4285
 Frc consts  --      0.3327                 0.3495                 0.3880
 IR Inten    --      1.2948                 9.7213                 6.6048

                     28                     29                     30
                      A                      A                      A
 Frequencies --    453.5889               489.5572               516.7733
 Red. masses --      4.2792                 3.7151                 5.0652
 Frc consts  --      0.5187                 0.5246                 0.7970
 IR Inten    --     14.3324                20.5488                28.1995

                     31                     32                     33
                      A                      A                      A
 Frequencies --    541.4192               553.6602               581.9359
 Red. masses --      3.5939                 3.1845                 3.6759
 Frc consts  --      0.6207                 0.5752                 0.7334
 IR Inten    --     13.5632                27.1175                21.7984

                     34                     35                     36
                      A                      A                      A
 Frequencies --    640.3750               649.5509               688.7287
 Red. masses --      4.1772                 6.8602                 3.4746
 Frc consts  --      1.0093                 1.7054                 0.9711
 IR Inten    --      3.3474                 2.3930                83.4731

                     37                     38                     39
                      A                      A                      A
 Frequencies --    714.4497               729.4248               791.2809
 Red. masses --      3.8083                 3.7578                 1.9838
 Frc consts  --      1.1453                 1.1780                 0.7318
 IR Inten    --     34.1932                28.2672                 5.6764

                     40                     41                     42
                      A                      A                      A
 Frequencies --    800.1197               816.2964               820.7491
 Red. masses --      1.6206                 1.8990                 1.2781
 Frc consts  --      0.6113                 0.7456                 0.5073
 IR Inten    --      1.2997                21.0881                 3.5562

                     43                     44                     45
                      A                      A                      A
 Frequencies --    835.4451               857.4651               863.9961
 Red. masses --      1.8142                 2.0540                 2.4549
 Frc consts  --      0.7461                 0.8898                 1.0797
 IR Inten    --     43.7686                25.6281                13.8133

                     46                     47                     48
                      A                      A                      A
 Frequencies --    913.9391               930.1804               958.4013
 Red. masses --      1.7080                 2.7256                 1.2951
 Frc consts  --      0.8405                 1.3895                 0.7009
 IR Inten    --      9.1764                10.1270                 0.8208

                     49                     50                     51
                      A                      A                      A
 Frequencies --    971.3536               972.4743              1023.0788
 Red. masses --      2.6436                 1.3327                 3.8521
 Frc consts  --      1.4696                 0.7426                 2.3755
 IR Inten    --     28.2482                 2.6560                 6.3385

                     52                     53                     54
                      A                      A                      A
 Frequencies --   1030.1472              1054.9226              1059.1700
 Red. masses --      2.4381                 3.7521                 1.9921
 Frc consts  --      1.5244                 2.4602                 1.3168
 IR Inten    --      5.7213                61.5197                10.0083

                     55                     56                     57
                      A                      A                      A
 Frequencies --   1087.2822              1101.2803              1113.0858
 Red. masses --      2.3875                 2.0743                 1.7796
 Frc consts  --      1.6629                 1.4823                 1.2991
 IR Inten    --     59.0644                31.7722                 0.0582

                     58                     59                     60
                      A                      A                      A
 Frequencies --   1129.2625              1138.5239              1153.9625
 Red. masses --      2.0147                 2.9999                 1.8234
 Frc consts  --      1.5137                 2.2911                 1.4306
 IR Inten    --     49.3862               270.9229                24.2664

                     61                     62                     63
                      A                      A                      A
 Frequencies --   1156.8121              1167.2690              1208.9481
 Red. masses --      1.4129                 1.3888                 1.7381
 Frc consts  --      1.1140                 1.1149                 1.4967
 IR Inten    --      1.2266                 7.9336                 4.0270

                     64                     65                     66
                      A                      A                      A
 Frequencies --   1236.9428              1237.9195              1245.5302
 Red. masses --      1.6142                 1.3701                 1.3014
 Frc consts  --      1.4551                 1.2370                 1.1895
 IR Inten    --     65.8201                29.7993                20.5567

                     67                     68                     69
                      A                      A                      A
 Frequencies --   1270.9020              1289.1102              1305.5781
 Red. masses --      3.5323                 2.6658                 1.9490
 Frc consts  --      3.3615                 2.6101                 1.9574
 IR Inten    --    119.5794                81.4725                67.2830

                     70                     71                     72
                      A                      A                      A
 Frequencies --   1310.5716              1337.8277              1353.2857
 Red. masses --      2.1310                 1.1797                 1.4419
 Frc consts  --      2.1565                 1.2440                 1.5558
 IR Inten    --    103.4456                26.1709                 7.8519

                     73                     74                     75
                      A                      A                      A
 Frequencies --   1357.5103              1364.3863              1380.2695
 Red. masses --      1.2967                 1.4942                 4.6685
 Frc consts  --      1.4079                 1.6388                 5.2403
 IR Inten    --     12.5556                35.3998                34.1587

                     76                     77                     78
                      A                      A                      A
 Frequencies --   1398.6059              1406.5616              1418.4982
 Red. masses --      1.4469                 2.2128                 1.3230
 Frc consts  --      1.6675                 2.5793                 1.5685
 IR Inten    --      4.1372               110.6576                 7.2467

                     79                     80                     81
                      A                      A                      A
 Frequencies --   1445.5102              1447.8077              1473.3169
 Red. masses --      1.2982                 1.2405                 2.3600
 Frc consts  --      1.5982                 1.5321                 3.0182
 IR Inten    --      5.9914                 2.2204                 0.0633

                     82                     83                     84
                      A                      A                      A
 Frequencies --   1479.5518              1488.9861              1515.3558
 Red. masses --      1.0964                 1.2592                 1.0943
 Frc consts  --      1.4140                 1.6448                 1.4805
 IR Inten    --      6.5241                 9.1477                 0.0552

                     85                     86                     87
                      A                      A                      A
 Frequencies --   1515.8485              1517.8520              1520.8308
 Red. masses --      1.0582                 1.0695                 1.0717
 Frc consts  --      1.4327                 1.4517                 1.4605
 IR Inten    --     10.5878                 6.7773                 1.9487

                     88                     89                     90
                      A                      A                      A
 Frequencies --   1522.8610              1530.3099              1532.3060
 Red. masses --      1.0653                 1.0460                 1.0731
 Frc consts  --      1.4556                 1.4432                 1.4845
 IR Inten    --     12.0777                 5.2388                17.8367

                     91                     92                     93
                      A                      A                      A
 Frequencies --   1539.9022              1548.6874              1561.0737
 Red. masses --      1.0536                 1.0961                 2.2336
 Frc consts  --      1.4720                 1.5489                 3.2070
 IR Inten    --      4.5691                16.2306               115.2315

                     94                     95                     96
                      A                      A                      A
 Frequencies --   1618.6105              1661.6031              1828.3740
 Red. masses --      6.5000                 5.3532                11.2646
 Frc consts  --     10.0334                 8.7080                22.1870
 IR Inten    --     10.5963               224.3645               193.5809

                     97                     98                     99
                      A                      A                      A
 Frequencies --   3030.6381              3051.4207              3054.5460
 Red. masses --      1.0445                 1.0653                 1.0419
 Frc consts  --      5.6524                 5.8442                 5.7278
 IR Inten    --     51.0588                29.3789                23.1202

                    100                    101                    102
                      A                      A                      A
 Frequencies --   3066.6530              3075.8929              3087.1234
 Red. masses --      1.0363                 1.0602                 1.0605
 Frc consts  --      5.7420                 5.9097                 5.9546
 IR Inten    --      9.1190                 4.1565                22.4582

                    103                    104                    105
                      A                      A                      A
 Frequencies --   3096.1840              3100.9078              3103.8628
 Red. masses --      1.0958                 1.0589                 1.0949
 Frc consts  --      6.1890                 5.9990                 6.2147
 IR Inten    --      5.8605                29.9890                29.2015

                    106                    107                    108
                      A                      A                      A
 Frequencies --   3116.4249              3128.0604              3131.6679
 Red. masses --      1.1009                 1.1052                 1.1057
 Frc consts  --      6.2994                 6.3718                 6.3890
 IR Inten    --     29.6309                 4.6675                 8.2515

                    109                    110                    111
                      A                      A                      A
 Frequencies --   3136.3068              3143.5186              3151.8266
 Red. masses --      1.1019                 1.1037                 1.1000
 Frc consts  --      6.3861                 6.4260                 6.4381
 IR Inten    --     25.0178                 8.2163                23.3209

                    112                    113                    114
                      A                      A                      A
 Frequencies --   3153.1082              3164.3723              3212.2758
 Red. masses --      1.0986                 1.1086                 1.0895
 Frc consts  --      6.4354                 6.5406                 6.6236
 IR Inten    --     17.0119                20.0482                 0.7559

                    115                    116                    117
                      A                      A                      A
 Frequencies --   3223.3216              3241.0328              3245.4999
 Red. masses --      1.0891                 1.0914                 1.0915
 Frc consts  --      6.6666                 6.7545                 6.7741
 IR Inten    --      0.2476                 6.4794                 9.1484

 - Thermochemistry -
 -------------------
 Temperature   298.150 Kelvin.  Pressure   1.00000 Atm.
 Atom     1 has atomic number  6 and mass  12.00000

 Molecular mass:   299.11913 amu.
 Principal axes and moments of inertia in atomic units:
                           1         2         3
     Eigenvalues --  3230.37027********************
           X            0.99975   0.01789   0.01340
           Y           -0.01789   0.99984   0.00012
           Z           -0.01340  -0.00036   0.99991
 This molecule is an asymmetric top.
 Rotational symmetry number  1.
 Warning -- assumption of classical behavior for rotation
           may cause significant error
 Rotational temperatures (Kelvin)      0.02681     0.00837     0.00740
 Rotational constants (GHZ):           0.55868     0.17445     0.15427
 Zero-point vibrational energy     900821.5 (Joules/Mol)
                                  215.30151 (Kcal/Mol)
 Warning -- explicit consideration of  33 degrees of freedom as
           vibrations may cause significant error
 Vibrational temperatures:     20.45    24.67    34.76    46.76    74.49
          (Kelvin)            104.37   117.98   139.18   159.29   182.31
                              201.93   235.73   292.27   311.50   332.04
                              345.46   370.01   383.76   404.40   451.58
                              475.49   512.55   557.24   581.50   612.11
                              618.38   630.59   652.61   704.36   743.52
                              778.98   796.59   837.28   921.36   934.56
                              990.93  1027.93  1049.48  1138.48  1151.19
                             1174.47  1180.87  1202.02  1233.70  1243.10
                             1314.95  1338.32  1378.93  1397.56  1399.17
                             1471.98  1482.15  1517.80  1523.91  1564.36
                             1584.50  1601.48  1624.76  1638.08  1660.29
                             1664.39  1679.44  1739.41  1779.68  1781.09
                             1792.04  1828.54  1854.74  1878.44  1885.62
                             1924.84  1947.08  1953.15  1963.05  1985.90
                             2012.28  2023.73  2040.90  2079.77  2083.07
                             2119.77  2128.74  2142.32  2180.26  2180.97
                             2183.85  2188.14  2191.06  2201.77  2204.65
                             2215.58  2228.22  2246.04  2328.82  2390.68
                             2630.62  4360.41  4390.31  4394.81  4412.23
                             4425.52  4441.68  4454.72  4461.51  4465.77
                             4483.84  4500.58  4505.77  4512.45  4522.82
                             4534.78  4536.62  4552.83  4621.75  4637.64
                             4663.12  4669.55

 Zero-point correction=                           0.343105 (Hartree/Particle)
 Thermal correction to Energy=                    0.364559
 Thermal correction to Enthalpy=                  0.365503
 Thermal correction to Gibbs Free Energy=         0.289172
 Sum of electronic and zero-point Energies=          -1299.664989
 Sum of electronic and thermal Energies=             -1299.643535
 Sum of electronic and thermal Enthalpies=           -1299.642591
 Sum of electronic and thermal Free Energies=        -1299.718922

                     E (Thermal)             CV                S
                      KCal/Mol        Cal/Mol-Kelvin    Cal/Mol-Kelvin
 Total                  228.764             78.635            160.653
 Electronic               0.000              0.000              0.000
 Translational            0.889              2.981             42.984
 Rotational               0.889              2.981             34.324
 Vibrational            226.987             72.674             83.345
 Vibration     1          0.593              1.986              7.312
 Vibration     2          0.593              1.986              6.940
 Vibration     3          0.593              1.985              6.259
 Vibration     4          0.594              1.983              5.671
 Vibration     5          0.596              1.977              4.748
 Vibration     6          0.599              1.967              4.083
 Vibration     7          0.600              1.961              3.842
 Vibration     8          0.603              1.952              3.519
 Vibration     9          0.607              1.941              3.256
 Vibration    10          0.611              1.926              2.995
 Vibration    11          0.615              1.913              2.799
 Vibration    12          0.623              1.887              2.505
 Vibration    13          0.639              1.835              2.104
 Vibration    14          0.645              1.816              1.988
 Vibration    15          0.652              1.794              1.873
 Vibration    16          0.657              1.779              1.802
 Vibration    17          0.667              1.751              1.681
 Vibration    18          0.672              1.734              1.617
 Vibration    19          0.681              1.709              1.527
 Vibration    20          0.702              1.647              1.342
 Vibration    21          0.713              1.615              1.258
 Vibration    22          0.732              1.562              1.138
 Vibration    23          0.756              1.497              1.011
 Vibration    24          0.769              1.461              0.947
 Vibration    25          0.787              1.415              0.874
 Vibration    26          0.791              1.405              0.859
 Vibration    27          0.798              1.387              0.832
 Vibration    28          0.812              1.353              0.785
 Vibration    29          0.845              1.273              0.685
 Vibration    30          0.872              1.213              0.617
 Vibration    31          0.897              1.158              0.562
 Vibration    32          0.909              1.132              0.537
 Vibration    33          0.939              1.070              0.482

 Optimization completed on the basis of negligible forces.
    -- Stationary point found.
 Normal termination of Gaussian 16 at Mon Dec 14 18:19:03 2020.

 ----------------------------------------------------------------------
 # B3LYP/6-311++G(d,p) empiricaldispersion=gd3bj scf=xqc pop=npa geom=c
 heck
 ----------------------------------------------------------------------

 ---------------------------------------
 CID_62007090_JID_10908_Energie_neutraal
 ---------------------------------------
 Structure from the checkpoint file:  "JID_10908.chk"
 Charge =  0 Multiplicity = 1

 SCF Done:  E(RB3LYP) =  -1300.28952424     A.U. after   17 cycles
 Normal termination of Gaussian 16 at Mon Dec 14 18:28:45 2020.

 ----------------------------------------------------------------------
 # B3LYP/6-311++G(d,p) empiricaldispersion=gd3bj scf=xqc pop=npa geom=c
 heck
 ----------------------------------------------------------------------

 -------------------------------------
 CID_62007090_JID_10908_Energie_kation
 -------------------------------------
 Structure from the checkpoint file:  "JID_10908.chk"
 Charge =  1 Multiplicity = 2

 SCF Done:  E(UB3LYP) =  -1300.00335085     A.U. after   25 cycles
 Normal termination of Gaussian 16 at Mon Dec 14 18:48:52 2020.
 Gaussian 16:  ES64L-G16RevA.03 25-Dec-2016

 ----------------------------------------------------------------------
 # B3LYP/6-311++G(d,p) empiricaldispersion=gd3bj scf=xqc pop=npa geom=c
 heck
 ----------------------------------------------------------------------

 ------------------------------------
 CID_62007090_JID_10908_Energie_anion
 ------------------------------------
 Structure from the checkpoint file:  "JID_10908.chk"
 Charge = -1 Multiplicity = 2

                         Standard orientation:
 ---------------------------------------------------------------------
 Center     Atomic      Atomic             Coordinates (Angstroms)
 Number     Number       Type             X           Y           Z
 ---------------------------------------------------------------------
      1          6           0        3.501973    2.362002    0.626371
      2          6           0        4.498668    1.225543    0.378206
      3          6           0        4.062488   -0.143151    0.905052
      4         16           0        2.935792   -1.085682   -0.174430
      5          8           0        3.460005   -0.998602   -1.550378
      6          8           0        2.747270   -2.389737    0.486054
      7          6           0        1.377857   -0.223500   -0.136988
      8          6           0        0.977181    0.532877   -1.237321
      9          6           0       -0.237142    1.205788   -1.213734
     10          6           0       -1.080951    1.143566   -0.081658
     11          6           0       -0.654489    0.361919    1.019667
     12          6           0        0.555155   -0.315215    0.986575
     13          7           0       -2.294684    1.818056   -0.052463
     14          6           0       -2.788356    2.422825   -1.281567
     15          6           0       -3.286459    1.386766    0.914293
     16          6           0       -3.674723   -0.092006    0.802291
     17          8           0       -3.963885   -0.785035    1.751995
     18          8           0       -3.646416   -0.497525   -0.478615
     19          6           0       -3.787576   -1.922648   -0.714922
     20          6           0       -2.437446   -2.608032   -0.585012
     21          1           0        2.565252    2.215557    0.083804
     22          1           0        3.928861    3.318638    0.306637
     23          1           0        3.259255    2.444286    1.692770
     24          1           0        4.722779    1.131485   -0.690350
     25          1           0        5.447803    1.469375    0.871790
     26          1           0        4.912551   -0.828559    0.990121
     27          1           0        3.576634   -0.086378    1.884497
     28          1           0        1.616657    0.575471   -2.112372
     29          1           0       -0.535544    1.766602   -2.089573
     30          1           0       -1.276766    0.258165    1.899158
     31          1           0        0.850458   -0.936818    1.825806
     32          1           0       -2.954778    1.680801   -2.074964
     33          1           0       -3.734435    2.924635   -1.070826
     34          1           0       -2.085747    3.179824   -1.643012
     35          1           0       -2.947968    1.553034    1.940689
     36          1           0       -4.188195    1.991110    0.780599
     37          1           0       -4.518263   -2.324522   -0.009810
     38          1           0       -4.183283   -1.989597   -1.730468
     39          1           0       -2.066785   -2.538619    0.441074
     40          1           0       -2.529509   -3.667603   -0.847564
     41          1           0       -1.701729   -2.145580   -1.249832
 ---------------------------------------------------------------------

 SCF Done:  E(UB3LYP) =  -1300.28497426     A.U. after   33 cycles
 SCF Done:  E(UB3LYP) =  -1300.28497426     a.u. after    1 cycles

 The electronic state is 2-A.
 Alpha  occ. eigenvalues --  -88.94164 -19.08033 -19.02702 -19.01207 -19.00954
 Alpha  occ. eigenvalues --  -14.24295 -10.21372 -10.14425 -10.12610 -10.11963
 Alpha  occ. eigenvalues --  -10.11883 -10.09981 -10.09770 -10.09020 -10.08801
 Alpha  occ. eigenvalues --  -10.08427 -10.07986 -10.07870 -10.07719 -10.07472
 Alpha  occ. eigenvalues --   -8.00588  -5.96873  -5.96757  -5.96678  -1.02172
 Alpha  occ. eigenvalues --   -1.00221  -0.93715  -0.90016  -0.86356  -0.76376
 Alpha  occ. eigenvalues --   -0.72540  -0.69657  -0.67246  -0.66456  -0.64496
 Alpha  occ. eigenvalues --   -0.63498  -0.59333  -0.57107  -0.54517  -0.51952
 Alpha  occ. eigenvalues --   -0.51474  -0.48059  -0.47168  -0.45214  -0.42794
 Alpha  occ. eigenvalues --   -0.41494  -0.40558  -0.39991  -0.39269  -0.37946
 Alpha  occ. eigenvalues --   -0.37131  -0.36556  -0.36084  -0.35597  -0.34814
 Alpha  occ. eigenvalues --   -0.34060  -0.33978  -0.33188  -0.32781  -0.31956
 Alpha  occ. eigenvalues --   -0.31429  -0.30702  -0.29244  -0.29125  -0.28966
 Alpha  occ. eigenvalues --   -0.28689  -0.27792  -0.27070  -0.26461  -0.25839
 Alpha  occ. eigenvalues --   -0.25130  -0.23216  -0.22322  -0.22062  -0.21324
 Alpha  occ. eigenvalues --   -0.20473  -0.19203  -0.18809  -0.16763  -0.11554
 Alpha  occ. eigenvalues --    0.03894
 Alpha virt. eigenvalues --    0.05807   0.06169   0.06610   0.07039   0.07476
 Alpha virt. eigenvalues --    0.07907   0.08270   0.08829   0.09268   0.09507
 Alpha virt. eigenvalues --    0.10098   0.10296   0.10567   0.10776   0.11300

  Beta  occ. eigenvalues --  -88.94161 -19.08018 -19.02692 -19.01194 -19.00935
  Beta  occ. eigenvalues --  -14.24274 -10.21344 -10.14415 -10.12581 -10.11872
  Beta  occ. eigenvalues --  -10.11818 -10.09977 -10.09716 -10.08936 -10.08799
  Beta  occ. eigenvalues --  -10.08301 -10.07983 -10.07913 -10.07707 -10.07446
  Beta  occ. eigenvalues --   -8.00584  -5.96871  -5.96747  -5.96672  -1.02139
  Beta  occ. eigenvalues --   -1.00164  -0.93690  -0.89973  -0.86262  -0.76231
  Beta  occ. eigenvalues --   -0.72511  -0.69611  -0.67084  -0.66363  -0.64425
  Beta  occ. eigenvalues --   -0.63420  -0.59212  -0.57065  -0.54467  -0.51889
  Beta  occ. eigenvalues --   -0.51361  -0.47976  -0.47099  -0.45155  -0.42738
  Beta  occ. eigenvalues --   -0.41444  -0.40468  -0.39924  -0.39205  -0.37897
  Beta  occ. eigenvalues --   -0.37097  -0.36491  -0.36024  -0.35531  -0.34765
  Beta  occ. eigenvalues --   -0.33998  -0.33918  -0.33150  -0.32752  -0.31900
  Beta  occ. eigenvalues --   -0.31383  -0.30645  -0.29092  -0.29045  -0.28940
  Beta  occ. eigenvalues --   -0.28601  -0.27747  -0.26995  -0.26350  -0.25818
  Beta  occ. eigenvalues --   -0.25068  -0.23157  -0.22242  -0.22036  -0.21151
  Beta  occ. eigenvalues --   -0.20423  -0.19004  -0.18703  -0.16421  -0.11218
  Beta virt. eigenvalues --    0.05759   0.06445   0.06912   0.07096   0.07618
  Beta virt. eigenvalues --    0.07760   0.08270   0.08403   0.08972   0.09410
  Beta virt. eigenvalues --    0.09746   0.10108   0.10542   0.10701   0.10932

 Mulliken charges and spin densities:
               1          2
     1  C   -0.031541  -0.558134
     2  C   -0.641905   0.419195
     3  C   -0.380268  -0.033747
     4  S    1.483347  -0.962412
     5  O   -0.170323   0.003322
     6  O   -0.137919  -0.013143
     7  C    1.030646  -0.398166
     8  C   -0.124995  -0.168398
     9  C   -0.680407   0.212807
    10  C   -1.276585   0.671362
    11  C   -0.237093  -0.062922
    12  C   -0.140660  -0.107039
    13  N    0.118414   0.152621
    14  C    0.911107  -1.286137
    15  C    0.284142  -0.941374
    16  C   -0.402964   0.320853
    17  O   -0.219930   0.014222
    18  O    0.100918   0.021850
    19  C    0.287154  -0.391337
    20  C   -0.629314   0.164985
    21  H    0.127088   0.071506
    22  H   -0.000188   0.130924
    23  H   -0.000379   0.136886
    24  H    0.157874   0.038881
    25  H    0.083910   0.052602
    26  H    0.249288  -0.023210
    27  H    0.109686   0.121894
    28  H    0.075446   0.162512
    29  H   -0.042276   0.216369
    30  H    0.199153   0.003520
    31  H    0.096468   0.123102
    32  H   -0.077279   0.246457
    33  H   -0.860144   1.014247
    34  H   -0.357943   0.502531
    35  H    0.120505   0.090901
    36  H   -0.540170   0.759739
    37  H    0.115644   0.043198
    38  H   -0.090787   0.259797
    39  H    0.188207  -0.002244
    40  H    0.093830   0.041696
    41  H    0.210245  -0.049720
 Sum of Mulliken charges =  -1.00000   1.00000

 Dipole moment (field-independent basis, Debye):
    X=              4.9274    Y=             -3.0227    Z=              2.1628  Tot=              6.1720
 Quadrupole moment (field-independent basis, Debye-Ang):
   XX=           -209.0177   YY=           -182.5393   ZZ=           -160.0263
   XY=             29.9389   XZ=              6.4713   YZ=              6.7206

 Summary of Natural Population Analysis:

                                       Natural Population
                Natural  -----------------------------------------------
    Atom  No    Charge         Core      Valence    Rydberg      Total
 -----------------------------------------------------------------------
      C    1   -0.28787      0.99966     2.28354    0.00467     3.28787
      C    2   -0.20371      0.99963     2.19607    0.00801     3.20371
      C    3   -0.28575      0.99958     2.27481    0.01136     3.28575
      S    4    1.03457      4.99914     1.87072    0.09557     6.96543
      O    5   -0.47702      0.99991     3.47129    0.00582     4.47702
      O    6   -0.47417      0.99991     3.46865    0.00561     4.47417
      C    7   -0.16071      0.99936     2.14556    0.01579     3.16071
      C    8   -0.08634      0.99951     2.07612    0.01071     3.08634
      C    9   -0.12657      0.99952     2.11771    0.00934     3.12657
      C   10    0.12838      0.99949     1.85981    0.01232     2.87162
      C   11   -0.13978      0.99953     2.13162    0.00863     3.13978
      C   12   -0.06249      0.99951     2.05228    0.01070     3.06249
      N   13   -0.24127      0.99966     2.72801    0.01361     3.74127
      C   14   -0.17583      0.99963     2.16721    0.00899     3.17583
      C   15   -0.12781      0.99956     2.11593    0.01233     3.12781
      C   16    0.40866      0.99969     1.56529    0.02636     2.59134
      O   17   -0.30942      0.99987     3.30412    0.00543     4.30942
      O   18   -0.28024      0.99986     3.27014    0.01024     4.28024
      C   19   -0.01689      0.99958     2.00640    0.01091     3.01689
      C   20   -0.29963      0.99966     2.29574    0.00424     3.29963
      H   21    0.10917      0.00000     0.38955    0.00127     0.39083
      H   22    0.09748      0.00000     0.40154    0.00098     0.40252
      H   23    0.09544      0.00000     0.40332    0.00124     0.40456
      H   24    0.10834      0.00000     0.39022    0.00144     0.39166
      H   25    0.09584      0.00000     0.40284    0.00132     0.40416
      H   26    0.11280      0.00000     0.38600    0.00120     0.38720
      H   27    0.11119      0.00000     0.38754    0.00127     0.38881
      H   28    0.11437      0.00000     0.38452    0.00111     0.38563
      H   29    0.10700      0.00000     0.39191    0.00110     0.39300
      H   30    0.10526      0.00000     0.39318    0.00156     0.39474
      H   31    0.10733      0.00000     0.39168    0.00099     0.39267
      H   32    0.09566      0.00000     0.40193    0.00241     0.40434
      H   33    0.10291      0.00000     0.39434    0.00275     0.39709
      H   34    0.09697      0.00000     0.40150    0.00153     0.40303
      H   35    0.10650      0.00000     0.39228    0.00122     0.39350
      H   36    0.11904      0.00000     0.37877    0.00219     0.38096
      H   37    0.09440      0.00000     0.40445    0.00115     0.40560
      H   38    0.09078      0.00000     0.40817    0.00105     0.40922
      H   39    0.10706      0.00000     0.39202    0.00092     0.39294
      H   40    0.09879      0.00000     0.40059    0.00062     0.40121
      H   41    0.10755      0.00000     0.39137    0.00108     0.39245
 =======================================================================
   * Total *    0.00000     23.99224    55.68873    0.31902    80.00000

 Normal termination of Gaussian 16 at Mon Dec 14 19:15:41 2020.
