 Gaussian 16, Revision A.03,

 -----------------------------------------------------------
 # opt freq B3LYP/6-31G(d) empiricaldispersion=gd3bj scf=xqc
 -----------------------------------------------------------

 --------------------------------
 CID_103065431_JID_10181_neutraal
 --------------------------------
 Symbolic Z-matrix:
 Charge =  0 Multiplicity = 1

 SCF Done:  E(RB3LYP) =  -1566.03814843     A.U. after   15 cycles
 SCF Done:  E(RB3LYP) =  -1566.04630876     A.U. after   13 cycles
 SCF Done:  E(RB3LYP) =  -1566.04661894     A.U. after   13 cycles
 SCF Done:  E(RB3LYP) =  -1566.04809087     A.U. after   12 cycles
 SCF Done:  E(RB3LYP) =  -1566.04845050     A.U. after   12 cycles
 SCF Done:  E(RB3LYP) =  -1566.04861188     A.U. after   11 cycles
 SCF Done:  E(RB3LYP) =  -1566.04868604     A.U. after   11 cycles
 SCF Done:  E(RB3LYP) =  -1566.04873541     A.U. after   11 cycles
 SCF Done:  E(RB3LYP) =  -1566.04878652     A.U. after   11 cycles
 SCF Done:  E(RB3LYP) =  -1566.04891965     A.U. after   12 cycles
 SCF Done:  E(RB3LYP) =  -1566.04986107     A.U. after    8 cycles
 SCF Done:  E(RB3LYP) =  -1566.04985799     A.U. after   10 cycles
 SCF Done:  E(RB3LYP) =  -1566.04985752     A.U. after    7 cycles
 SCF Done:  E(RB3LYP) =  -1566.04986047     A.U. after    9 cycles
 SCF Done:  E(RB3LYP) =  -1566.04985741     A.U. after   10 cycles
 Optimization completed on the basis of negligible forces.
    -- Stationary point found.
 Normal termination of Gaussian 16 at Sat Dec 12 15:48:14 2020.

 --------------------------------------------------------------------
 #N Geom=AllCheck Guess=TCheck SCRF=Check GenChk RB3LYP/6-31G(d) Freq
 --------------------------------------------------------------------

 Structure from the checkpoint file:  "JID_10181.chk"
 --------------------------------
 CID_103065431_JID_10181_neutraal
 --------------------------------
 Charge =  0 Multiplicity = 1

 SCF Done:  E(RB3LYP) =  -1566.04985741     A.U. after    1 cycles

  Exact polarizability: 205.549 -14.962 213.143  10.330  10.679 170.257
 Approx polarizability: 282.442 -29.903 306.524  22.616  34.587 300.891

                      1                      2                      3
                      A                      A                      A
 Frequencies --     21.6380                31.4455                44.6631
 Red. masses --      4.5403                 4.7813                 3.7646
 Frc consts  --      0.0013                 0.0028                 0.0044
 IR Inten    --      0.1507                 0.3832                 0.2290

                      4                      5                      6
                      A                      A                      A
 Frequencies --     53.1740                66.5633                72.0117
 Red. masses --      3.9700                 6.9310                 2.8527
 Frc consts  --      0.0066                 0.0181                 0.0087
 IR Inten    --      0.4909                 1.1026                 1.2808

                      7                      8                      9
                      A                      A                      A
 Frequencies --     88.6910               107.8901               117.8441
 Red. masses --      6.1974                 1.1530                 4.0611
 Frc consts  --      0.0287                 0.0079                 0.0332
 IR Inten    --      4.3663                 0.1893                 0.5206

                     10                     11                     12
                      A                      A                      A
 Frequencies --    131.9652               146.3193               163.1875
 Red. masses --      3.3137                 2.7477                 3.2097
 Frc consts  --      0.0340                 0.0347                 0.0504
 IR Inten    --      0.6953                 1.3439                 3.2027

                     13                     14                     15
                      A                      A                      A
 Frequencies --    193.4476               230.1333               234.7523
 Red. masses --      3.6689                 2.5033                 3.5027
 Frc consts  --      0.0809                 0.0781                 0.1137
 IR Inten    --      0.4897                 3.8694                 1.4024

                     16                     17                     18
                      A                      A                      A
 Frequencies --    267.6609               291.7991               311.9042
 Red. masses --      1.8249                 3.2331                 2.7709
 Frc consts  --      0.0770                 0.1622                 0.1588
 IR Inten    --      6.2870                 0.5878                 5.6896

                     19                     20                     21
                      A                      A                      A
 Frequencies --    324.0349               339.5606               362.6841
 Red. masses --      2.5596                 3.1206                 3.4642
 Frc consts  --      0.1583                 0.2120                 0.2685
 IR Inten    --      1.8465                 0.2663                 3.6139

                     22                     23                     24
                      A                      A                      A
 Frequencies --    381.2987               433.5620               458.0250
 Red. masses --      3.1677                 3.4008                 3.3371
 Frc consts  --      0.2714                 0.3766                 0.4125
 IR Inten    --     13.4818                 4.0829                 4.5743

                     25                     26                     27
                      A                      A                      A
 Frequencies --    496.3431               517.4426               552.5417
 Red. masses --      4.1915                 4.6068                 3.7686
 Frc consts  --      0.6084                 0.7267                 0.6779
 IR Inten    --      7.4529                 1.2058                 1.2740

                     28                     29                     30
                      A                      A                      A
 Frequencies --    561.6726               585.2113               596.3381
 Red. masses --      4.0004                 3.6957                 4.0000
 Frc consts  --      0.7436                 0.7457                 0.8381
 IR Inten    --      7.1858                 2.6175                 0.5035

                     31                     32                     33
                      A                      A                      A
 Frequencies --    647.6539               657.9355               675.2419
 Red. masses --      5.8625                 4.2049                 5.5169
 Frc consts  --      1.4488                 1.0724                 1.4820
 IR Inten    --      0.7343                18.5604                 4.6623

                     34                     35                     36
                      A                      A                      A
 Frequencies --    678.7510               685.7932               735.7506
 Red. masses --      4.1786                 4.2260                 3.4529
 Frc consts  --      1.1342                 1.1710                 1.1013
 IR Inten    --     15.2387                 6.9022                 3.4548

                     37                     38                     39
                      A                      A                      A
 Frequencies --    756.6079               765.0861               778.5921
 Red. masses --      4.8250                 1.5788                 2.8061
 Frc consts  --      1.6274                 0.5445                 1.0022
 IR Inten    --      4.6509                20.7961                 9.5082

                     40                     41                     42
                      A                      A                      A
 Frequencies --    813.8343               833.9695               868.4355
 Red. masses --      1.2544                 2.0680                 2.1504
 Frc consts  --      0.4895                 0.8474                 0.9556
 IR Inten    --     53.9536                44.3556                 3.0458

                     43                     44                     45
                      A                      A                      A
 Frequencies --    874.6825               885.4965               887.9407
 Red. masses --      2.5543                 2.0685                 1.6992
 Frc consts  --      1.1514                 0.9556                 0.7893
 IR Inten    --      4.1205                 4.5611                 0.3805

                     46                     47                     48
                      A                      A                      A
 Frequencies --    909.5405               914.3756               941.7210
 Red. masses --      1.7150                 1.8431                 2.4492
 Frc consts  --      0.8359                 0.9079                 1.2797
 IR Inten    --     15.2600                 5.6332                16.9075

                     49                     50                     51
                      A                      A                      A
 Frequencies --    949.5646               975.2295               996.6053
 Red. masses --      2.0042                 2.1452                 1.7491
 Frc consts  --      1.0647                 1.2021                 1.0235
 IR Inten    --      3.2945                 0.8650                 3.5098

                     52                     53                     54
                      A                      A                      A
 Frequencies --   1012.5010              1030.1692              1045.4887
 Red. masses --      1.8324                 1.7410                 1.9723
 Frc consts  --      1.1068                 1.0886                 1.2702
 IR Inten    --      3.0779                 2.1828                 4.6290

                     55                     56                     57
                      A                      A                      A
 Frequencies --   1072.2718              1072.5692              1076.2365
 Red. masses --      1.4700                 1.4091                 1.2934
 Frc consts  --      0.9958                 0.9551                 0.8827
 IR Inten    --      4.4977                 0.3213                 9.6661

                     58                     59                     60
                      A                      A                      A
 Frequencies --   1083.3198              1120.9808              1133.5985
 Red. masses --      3.0367                 2.0894                 1.3613
 Frc consts  --      2.0997                 1.5469                 1.0307
 IR Inten    --      6.4068                 7.3101                 4.2535

                     61                     62                     63
                      A                      A                      A
 Frequencies --   1142.9314              1147.8560              1170.4291
 Red. masses --      1.7448                 2.1658                 1.7536
 Frc consts  --      1.3429                 1.6813                 1.4153
 IR Inten    --      1.2914                12.2522                12.5141

                     64                     65                     66
                      A                      A                      A
 Frequencies --   1180.8973              1188.0312              1205.1981
 Red. masses --      1.6631                 4.0141                 3.7294
 Frc consts  --      1.3665                 3.3380                 3.1915
 IR Inten    --      1.3984                 9.3513                17.5434

                     67                     68                     69
                      A                      A                      A
 Frequencies --   1248.2322              1250.3676              1261.7306
 Red. masses --      1.4567                 1.3822                 1.5553
 Frc consts  --      1.3372                 1.2732                 1.4588
 IR Inten    --     15.0375                 1.0394                15.9136

                     70                     71                     72
                      A                      A                      A
 Frequencies --   1281.3005              1292.1084              1306.5581
 Red. masses --      1.3775                 1.9959                 1.2929
 Frc consts  --      1.3324                 1.9633                 1.3003
 IR Inten    --    102.3930                62.8708                14.5491

                     73                     74                     75
                      A                      A                      A
 Frequencies --   1315.2169              1330.9111              1336.3120
 Red. masses --      1.2675                 1.4999                 1.4922
 Frc consts  --      1.2918                 1.5653                 1.5700
 IR Inten    --     12.1731                10.6698                33.2390

                     76                     77                     78
                      A                      A                      A
 Frequencies --   1360.8793              1362.8041              1364.9176
 Red. masses --      1.4874                 1.8182                 1.3517
 Frc consts  --      1.6230                 1.9896                 1.4837
 IR Inten    --      3.3450                30.9022                 0.3847

                     79                     80                     81
                      A                      A                      A
 Frequencies --   1397.8947              1403.5012              1404.5460
 Red. masses --      1.3382                 1.4295                 1.3221
 Frc consts  --      1.5407                 1.6590                 1.5367
 IR Inten    --     35.1559                28.4229                18.5201

                     82                     83                     84
                      A                      A                      A
 Frequencies --   1422.6355              1426.2332              1440.7780
 Red. masses --      1.5549                 2.3049                 1.3025
 Frc consts  --      1.8542                 2.7624                 1.5930
 IR Inten    --     69.9638               100.3866                 1.3443

                     85                     86                     87
                      A                      A                      A
 Frequencies --   1444.7939              1479.5946              1507.8743
 Red. masses --      1.2418                 1.2646                 1.0424
 Frc consts  --      1.5272                 1.6311                 1.3964
 IR Inten    --      0.8668                14.1037                 7.9215

                     88                     89                     90
                      A                      A                      A
 Frequencies --   1514.5823              1516.8804              1519.6226
 Red. masses --      1.0786                 1.0799                 1.1759
 Frc consts  --      1.4578                 1.4639                 1.5999
 IR Inten    --     11.5213                 1.7354                 9.6736

                     91                     92                     93
                      A                      A                      A
 Frequencies --   1520.4159              1522.3346              1531.6600
 Red. masses --      1.0735                 1.0955                 1.0725
 Frc consts  --      1.4620                 1.4958                 1.4824
 IR Inten    --      1.9691                 1.2472                 6.2778

                     94                     95                     96
                      A                      A                      A
 Frequencies --   1535.5544              1546.5770              1551.7662
 Red. masses --      1.1055                 1.0498                 4.2340
 Frc consts  --      1.5358                 1.4794                 6.0070
 IR Inten    --     18.8388                 5.1619                17.5198

                     97                     98                     99
                      A                      A                      A
 Frequencies --   1624.8811              1783.4966              3040.8909
 Red. masses --      5.3013                11.5413                 1.0401
 Frc consts  --      8.2466                21.6297                 5.6668
 IR Inten    --      2.4757               282.4864                30.1316

                    100                    101                    102
                      A                      A                      A
 Frequencies --   3043.4629              3046.0059              3053.0497
 Red. masses --      1.0683                 1.0365                 1.0672
 Frc consts  --      5.8303                 5.6658                 5.8611
 IR Inten    --     23.6959                37.3878                32.6272

                    103                    104                    105
                      A                      A                      A
 Frequencies --   3064.3604              3076.2087              3079.6744
 Red. masses --      1.0809                 1.0721                 1.0849
 Frc consts  --      5.9802                 5.9775                 6.0625
 IR Inten    --      5.7648                22.0303                 9.9442

                    106                    107                    108
                      A                      A                      A
 Frequencies --   3084.1723              3087.7429              3095.0346
 Red. masses --      1.0872                 1.0593                 1.0941
 Frc consts  --      6.0930                 5.9502                 6.1748
 IR Inten    --      5.4521                28.5870                 6.7701

                    109                    110                    111
                      A                      A                      A
 Frequencies --   3098.0342              3100.5529              3107.4107
 Red. masses --      1.1017                 1.0656                 1.0970
 Frc consts  --      6.2301                 6.0355                 6.2410
 IR Inten    --     14.0463                25.6374                33.3840

                    112                    113                    114
                      A                      A                      A
 Frequencies --   3115.1167              3128.4751              3129.9388
 Red. masses --      1.0980                 1.1016                 1.1009
 Frc consts  --      6.2777                 6.3524                 6.3546
 IR Inten    --     39.1477                43.2777                12.4612

                    115                    116                    117
                      A                      A                      A
 Frequencies --   3141.6673              3154.7930              3164.7107
 Red. masses --      1.1046                 1.0995                 1.1023
 Frc consts  --      6.4235                 6.4475                 6.5047
 IR Inten    --     14.0358                 5.4911                 1.3327

                    118                    119                    120
                      A                      A                      A
 Frequencies --   3207.6656              3222.0438              3510.6847
 Red. masses --      1.0892                 1.0969                 1.0756
 Frc consts  --      6.6030                 6.7096                 7.8109
 IR Inten    --     11.4273                 8.7332                 0.0963

 - Thermochemistry -
 -------------------
 Temperature   298.150 Kelvin.  Pressure   1.00000 Atm.
 Atom     1 has atomic number  6 and mass  12.00000

 Molecular mass:   310.11736 amu.
 Principal axes and moments of inertia in atomic units:
                           1         2         3
     Eigenvalues --  6018.938796326.16639**********
           X            0.99799  -0.06329  -0.00004
           Y            0.06329   0.99795  -0.00953
           Z            0.00064   0.00951   0.99995
 This molecule is an asymmetric top.
 Rotational symmetry number  1.
 Warning -- assumption of classical behavior for rotation
           may cause significant error
 Rotational temperatures (Kelvin)      0.01439     0.01369     0.00841
 Rotational constants (GHZ):           0.29984     0.28528     0.17514
 Zero-point vibrational energy     937021.4 (Joules/Mol)
                                  223.95349 (Kcal/Mol)
 Warning -- explicit consideration of  30 degrees of freedom as
           vibrations may cause significant error
 Vibrational temperatures:     31.13    45.24    64.26    76.51    95.77
          (Kelvin)            103.61   127.61   155.23   169.55   189.87
                              210.52   234.79   278.33   331.11   337.76
                              385.10   419.83   448.76   466.21   488.55
                              521.82   548.60   623.80   659.00   714.13
                              744.48   794.98   808.12   841.99   858.00
                              931.83   946.62   971.52   976.57   986.70
                             1058.58  1088.59  1100.79  1120.22  1170.93
                             1199.90  1249.48  1258.47  1274.03  1277.55
                             1308.63  1315.58  1354.93  1366.21  1403.14
                             1433.89  1456.76  1482.18  1504.23  1542.76
                             1543.19  1548.46  1558.66  1612.84  1631.00
                             1644.42  1651.51  1683.99  1699.05  1709.31
                             1734.01  1795.93  1799.00  1815.35  1843.51
                             1859.06  1879.85  1892.30  1914.88  1922.65
                             1958.00  1960.77  1963.81  2011.26  2019.33
                             2020.83  2046.86  2052.03  2072.96  2078.74
                             2128.81  2169.49  2179.15  2182.45  2186.40
                             2187.54  2190.30  2203.72  2209.32  2225.18
                             2232.65  2337.84  2566.05  4375.16  4378.86
                             4382.52  4392.66  4408.93  4425.98  4430.96
                             4437.44  4442.57  4453.06  4457.38  4461.00
                             4470.87  4481.96  4501.18  4503.28  4520.16
                             4539.04  4553.31  4615.12  4635.80  5051.09

 Zero-point correction=                           0.356893 (Hartree/Particle)
 Thermal correction to Energy=                    0.377131
 Thermal correction to Enthalpy=                  0.378075
 Thermal correction to Gibbs Free Energy=         0.305975
 Sum of electronic and zero-point Energies=          -1565.692965
 Sum of electronic and thermal Energies=             -1565.672726
 Sum of electronic and thermal Enthalpies=           -1565.671782
 Sum of electronic and thermal Free Energies=        -1565.743882

                     E (Thermal)             CV                S
                      KCal/Mol        Cal/Mol-Kelvin    Cal/Mol-Kelvin
 Total                  236.653             76.405            151.747
 Electronic               0.000              0.000              0.000
 Translational            0.889              2.981             43.092
 Rotational               0.889              2.981             34.328
 Vibrational            234.876             70.444             74.328
 Vibration     1          0.593              1.985              6.478
 Vibration     2          0.594              1.983              5.736
 Vibration     3          0.595              1.980              5.041
 Vibration     4          0.596              1.976              4.696
 Vibration     5          0.598              1.970              4.252
 Vibration     6          0.598              1.967              4.098
 Vibration     7          0.602              1.957              3.689
 Vibration     8          0.606              1.943              3.307
 Vibration     9          0.608              1.935              3.135
 Vibration    10          0.612              1.921              2.917
 Vibration    11          0.617              1.907              2.720
 Vibration    12          0.623              1.888              2.513
 Vibration    13          0.635              1.849              2.195
 Vibration    14          0.652              1.795              1.878
 Vibration    15          0.655              1.788              1.842
 Vibration    16          0.673              1.733              1.611
 Vibration    17          0.687              1.689              1.464
 Vibration    18          0.700              1.651              1.352
 Vibration    19          0.709              1.627              1.290
 Vibration    20          0.719              1.596              1.214
 Vibration    21          0.737              1.549              1.111
 Vibration    22          0.751              1.510              1.034
 Vibration    23          0.794              1.397              0.847
 Vibration    24          0.816              1.343              0.772
 Vibration    25          0.852              1.258              0.667
 Vibration    26          0.872              1.211              0.616
 Vibration    27          0.908              1.134              0.539
 Vibration    28          0.917              1.114              0.521
 Vibration    29          0.942              1.063              0.476
 Vibration    30          0.954              1.040              0.456

 Optimization completed.
    -- Stationary point found.
 Normal termination of Gaussian 16 at Sat Dec 12 16:14:59 2020.

 ----------------------------------------------------------------------
 # B3LYP/6-311++G(d,p) empiricaldispersion=gd3bj scf=xqc pop=npa geom=c
 heck
 ----------------------------------------------------------------------

 ----------------------------------------
 CID_103065431_JID_10181_Energie_neutraal
 ----------------------------------------
 Structure from the checkpoint file:  "JID_10181.chk"
 Charge =  0 Multiplicity = 1

 SCF Done:  E(RB3LYP) =  -1566.31321558     A.U. after   17 cycles
 Normal termination of Gaussian 16 at Sat Dec 12 16:29:40 2020.

 ----------------------------------------------------------------------
 # B3LYP/6-311++G(d,p) empiricaldispersion=gd3bj scf=xqc pop=npa geom=c
 heck
 ----------------------------------------------------------------------

 --------------------------------------
 CID_103065431_JID_10181_Energie_kation
 --------------------------------------
 Structure from the checkpoint file:  "JID_10181.chk"
 Charge =  1 Multiplicity = 2

 SCF Done:  E(UB3LYP) =  -1566.03045485     A.U. after   27 cycles
 Normal termination of Gaussian 16 at Sat Dec 12 17:03:00 2020.
 Gaussian 16:  ES64L-G16RevA.03 25-Dec-2016

 ----------------------------------------------------------------------
 # B3LYP/6-311++G(d,p) empiricaldispersion=gd3bj scf=xqc pop=npa geom=c
 heck
 ----------------------------------------------------------------------

 -------------------------------------
 CID_103065431_JID_10181_Energie_anion
 -------------------------------------
 Structure from the checkpoint file:  "JID_10181.chk"
 Charge = -1 Multiplicity = 2

                         Standard orientation:
 ---------------------------------------------------------------------
 Center     Atomic      Atomic             Coordinates (Angstroms)
 Number     Number       Type             X           Y           Z
 ---------------------------------------------------------------------
      1          6           0       -1.025455   -4.902413   -0.069258
      2          6           0       -1.799231   -3.621397   -0.394243
      3          6           0       -1.644600   -2.511410    0.654424
      4          6           0       -0.195570   -2.094515    0.964854
      5          6           0        0.599532   -1.636528   -0.261816
      6          8           0        0.909172   -2.311229   -1.236487
      7          7           0        0.921092   -0.317615   -0.073262
      8          6           0        0.251872    0.235070    1.115205
      9          7           0       -0.137879   -0.949719    1.899511
     10          6           0       -0.912911    1.124484    0.753431
     11          6           0       -1.430878    2.152092    1.491504
     12          6           0       -2.542566    2.794327    0.864449
     13          6           0       -2.863511    2.264466   -0.356180
     14         16           0       -1.784450    0.945112   -0.752355
     15          6           0       -3.953320    2.679975   -1.296110
     16          6           0        1.668357    0.433151   -1.088752
     17          6           0        3.086412   -0.143226   -1.240128
     18          6           0        3.856838    0.226205    0.029548
     19         16           0        3.285613    1.925645    0.503914
     20          6           0        1.878991    1.897943   -0.696878
     21          1           0        0.053324   -4.733682   -0.145413
     22          1           0       -1.281405   -5.702845   -0.772195
     23          1           0       -1.251281   -5.263295    0.942803
     24          1           0       -1.473516   -3.249082   -1.370873
     25          1           0       -2.869609   -3.849351   -0.482159
     26          1           0       -2.202339   -1.624168    0.338668
     27          1           0       -2.086275   -2.829148    1.607570
     28          1           0        0.330622   -2.950589    1.399323
     29          1           0        0.956410    0.833241    1.700627
     30          1           0        0.601362   -1.118983    2.576615
     31          1           0       -1.030160    2.440555    2.457780
     32          1           0       -3.083413    3.627940    1.300653
     33          1           0       -3.558255    2.983912   -2.272903
     34          1           0       -4.673129    1.871296   -1.470375
     35          1           0       -4.498623    3.529859   -0.874534
     36          1           0        1.123510    0.368484   -2.037805
     37          1           0        3.554013    0.323980   -2.114324
     38          1           0        3.053805   -1.221857   -1.403818
     39          1           0        3.630896   -0.464657    0.846209
     40          1           0        4.937333    0.239762   -0.128336
     41          1           0        2.146636    2.467562   -1.590290
     42          1           0        1.001858    2.360798   -0.244313
 ---------------------------------------------------------------------

 SCF Done:  E(UB3LYP) =  -1566.30614103     A.U. after   33 cycles
 SCF Done:  E(UB3LYP) =  -1566.30614103     a.u. after    1 cycles

 The electronic state is 2-A.
 Alpha  occ. eigenvalues --  -88.76361 -88.74053 -18.99179 -14.24455 -14.20429
 Alpha  occ. eigenvalues --  -10.16756 -10.14709 -10.12801 -10.10661 -10.10533
 Alpha  occ. eigenvalues --  -10.10262 -10.09578 -10.08696 -10.08420 -10.08167
 Alpha  occ. eigenvalues --  -10.06992 -10.06898 -10.06802 -10.06587 -10.06537
 Alpha  occ. eigenvalues --   -7.85010  -7.82667  -5.81296  -5.80936  -5.80604
 Alpha  occ. eigenvalues --   -5.79061  -5.78711  -5.78025  -0.94487  -0.87459
 Alpha  occ. eigenvalues --   -0.79758  -0.77484  -0.73644  -0.69965  -0.67445
 Alpha  occ. eigenvalues --   -0.64379  -0.63724  -0.63155  -0.62636  -0.59763
 Alpha  occ. eigenvalues --   -0.56386  -0.53621  -0.51698  -0.48936  -0.47375
 Alpha  occ. eigenvalues --   -0.45712  -0.44473  -0.43567  -0.41488  -0.40338
 Alpha  occ. eigenvalues --   -0.39438  -0.37976  -0.37046  -0.35773  -0.35234
 Alpha  occ. eigenvalues --   -0.34577  -0.33494  -0.33128  -0.32411  -0.32356
 Alpha  occ. eigenvalues --   -0.31313  -0.30571  -0.30135  -0.28468  -0.28183
 Alpha  occ. eigenvalues --   -0.27900  -0.27675  -0.26943  -0.26666  -0.26259
 Alpha  occ. eigenvalues --   -0.25669  -0.25516  -0.24245  -0.23765  -0.23687
 Alpha  occ. eigenvalues --   -0.23006  -0.21809  -0.17326  -0.15587  -0.15025
 Alpha  occ. eigenvalues --   -0.13776  -0.13075  -0.12108   0.04088
 Alpha virt. eigenvalues --    0.05937   0.06581   0.06757   0.07362   0.08052
 Alpha virt. eigenvalues --    0.08369   0.08821   0.09336   0.09757   0.10164
 Alpha virt. eigenvalues --    0.10411   0.10641   0.11091   0.11303   0.11645

  Beta  occ. eigenvalues --  -88.76345 -88.74049 -18.99168 -14.24458 -14.20370
  Beta  occ. eigenvalues --  -10.16734 -10.14707 -10.12796 -10.10648 -10.10525
  Beta  occ. eigenvalues --  -10.10236 -10.09426 -10.08571 -10.08415 -10.08159
  Beta  occ. eigenvalues --  -10.06990 -10.06917 -10.06801 -10.06546 -10.06531
  Beta  occ. eigenvalues --   -7.84995  -7.82663  -5.81292  -5.80931  -5.80551
  Beta  occ. eigenvalues --   -5.79058  -5.78706  -5.78021  -0.94457  -0.87416
  Beta  occ. eigenvalues --   -0.79704  -0.77333  -0.73615  -0.69929  -0.67280
  Beta  occ. eigenvalues --   -0.64326  -0.63678  -0.63116  -0.62558  -0.59693
  Beta  occ. eigenvalues --   -0.56324  -0.53561  -0.51661  -0.48892  -0.47345
  Beta  occ. eigenvalues --   -0.45605  -0.44347  -0.43466  -0.41406  -0.40266
  Beta  occ. eigenvalues --   -0.39387  -0.37935  -0.37000  -0.35745  -0.35187
  Beta  occ. eigenvalues --   -0.34532  -0.33307  -0.33060  -0.32363  -0.32315
  Beta  occ. eigenvalues --   -0.31275  -0.30514  -0.30081  -0.28409  -0.28136
  Beta  occ. eigenvalues --   -0.27825  -0.27639  -0.26900  -0.26635  -0.26181
  Beta  occ. eigenvalues --   -0.25556  -0.25418  -0.24213  -0.23691  -0.23643
  Beta  occ. eigenvalues --   -0.22939  -0.21784  -0.17283  -0.15527  -0.14739
  Beta  occ. eigenvalues --   -0.13689  -0.12971  -0.11561
  Beta virt. eigenvalues --    0.06165   0.06636   0.06951   0.07478   0.07781
  Beta virt. eigenvalues --    0.08193   0.08811   0.08947   0.09401   0.09783
  Beta virt. eigenvalues --    0.10392   0.10579   0.10742   0.11142   0.11424

 Mulliken charges and spin densities:
               1          2
     1  C   -0.425282  -0.203514
     2  C   -0.320875   0.079489
     3  C    0.350435  -0.206665
     4  C   -0.142168  -0.180766
     5  C   -0.673976  -0.222293
     6  O   -0.265077   0.014631
     7  N    0.249053  -0.034352
     8  C    0.104520  -0.382443
     9  N   -0.016542   0.133251
    10  C    0.258034  -0.317026
    11  C    0.082601   0.038486
    12  C    0.077036   0.021735
    13  C   -0.692640   0.587494
    14  S   -0.177848   0.028048
    15  C    0.549490  -1.043597
    16  C    0.097312   0.539514
    17  C   -0.537688  -0.141995
    18  C    0.114498  -0.487368
    19  S    0.167346  -0.156733
    20  C   -0.494868  -0.368390
    21  H    0.115695   0.071413
    22  H    0.115819  -0.001165
    23  H    0.042567   0.080278
    24  H    0.178480   0.000365
    25  H    0.124332   0.005197
    26  H    0.170595  -0.048340
    27  H    0.162544   0.036481
    28  H   -0.170181   0.391198
    29  H    0.122974   0.048937
    30  H   -0.193016   0.479372
    31  H   -0.023607   0.155598
    32  H    0.005094   0.140007
    33  H   -0.210600   0.382868
    34  H    0.168155  -0.012772
    35  H   -0.033004   0.177659
    36  H    0.007741   0.267255
    37  H    0.026028   0.128967
    38  H    0.161294   0.031490
    39  H   -0.199264   0.404934
    40  H   -0.092228   0.324005
    41  H   -0.041726   0.274709
    42  H    0.258944  -0.035961
 Sum of Mulliken charges =  -1.00000   1.00000

 Dipole moment (field-independent basis, Debye):
    X=             -2.3961    Y=             -0.5606    Z=             -1.2305  Tot=              2.7513
 Quadrupole moment (field-independent basis, Debye-Ang):
   XX=           -186.7289   YY=           -190.9855   ZZ=           -176.3768
   XY=              7.1664   XZ=             -6.0246   YZ=              6.8152

 Summary of Natural Population Analysis:

                                       Natural Population
                Natural  -----------------------------------------------
    Atom  No    Charge         Core      Valence    Rydberg      Total
 -----------------------------------------------------------------------
      C    1   -0.29010      0.99967     2.28529    0.00515     3.29010
      C    2   -0.19222      0.99964     2.18637    0.00621     3.19222
      C    3   -0.19072      0.99960     2.18138    0.00974     3.19072
      C    4   -0.04971      0.99955     2.03628    0.01389     3.04971
      C    5    0.34883      0.99960     1.62736    0.02421     2.65117
      O    6   -0.32799      0.99988     3.32316    0.00495     4.32799
      N    7   -0.26969      0.99961     2.75542    0.01466     3.76969
      C    8    0.07495      0.99952     1.90773    0.01780     2.92505
      N    9   -0.32912      0.99973     2.81668    0.01271     3.82912
      C   10   -0.08952      0.99945     2.07732    0.01276     3.08952
      C   11   -0.11717      0.99945     2.10804    0.00968     3.11717
      C   12   -0.13801      0.99946     2.12808    0.01047     3.13801
      C   13   -0.07473      0.99951     2.06369    0.01153     3.07473
      S   14    0.20273      4.99935     2.77928    0.01864     7.79727
      C   15   -0.29941      0.99961     2.29341    0.00639     3.29941
      C   16   -0.00809      0.99956     1.99425    0.01427     3.00809
      C   17   -0.19943      0.99960     2.19146    0.00837     3.19943
      C   18   -0.24293      0.99960     2.23425    0.00908     3.24293
      S   19    0.06734      4.99967     2.91649    0.01651     7.93266
      C   20   -0.24856      0.99957     2.24069    0.00830     3.24856
      H   21    0.10540      0.00000     0.39367    0.00093     0.39460
      H   22    0.09448      0.00000     0.40481    0.00071     0.40552
      H   23    0.09190      0.00000     0.40725    0.00085     0.40810
      H   24    0.10410      0.00000     0.39476    0.00113     0.39590
      H   25    0.08992      0.00000     0.40900    0.00108     0.41008
      H   26    0.10633      0.00000     0.39204    0.00163     0.39367
      H   27    0.09668      0.00000     0.40232    0.00100     0.40332
      H   28    0.10672      0.00000     0.39135    0.00193     0.39328
      H   29    0.11162      0.00000     0.38549    0.00289     0.38838
      H   30    0.18317      0.00000     0.31140    0.00543     0.31683
      H   31    0.10550      0.00000     0.39347    0.00103     0.39450
      H   32    0.10175      0.00000     0.39740    0.00085     0.39825
      H   33    0.10755      0.00000     0.39089    0.00156     0.39245
      H   34    0.10206      0.00000     0.39704    0.00090     0.39794
      H   35    0.10468      0.00000     0.39452    0.00080     0.39532
      H   36    0.11038      0.00000     0.38795    0.00167     0.38962
      H   37    0.09937      0.00000     0.39952    0.00111     0.40063
      H   38    0.12043      0.00000     0.37838    0.00119     0.37957
      H   39    0.10341      0.00000     0.39443    0.00216     0.39659
      H   40    0.10407      0.00000     0.39454    0.00139     0.39593
      H   41    0.10451      0.00000     0.39392    0.00157     0.39549
      H   42    0.11955      0.00000     0.37898    0.00147     0.38045
 =======================================================================
   * Total *    0.00000     27.99163    54.73976    0.26860    83.00000

 Normal termination of Gaussian 16 at Sat Dec 12 17:44:38 2020.
