 Gaussian 16, Revision A.03,

 -----------------------------------------------------------
 # opt freq B3LYP/6-31G(d) empiricaldispersion=gd3bj scf=xqc
 -----------------------------------------------------------

 -----------------------------
 CID_134972925_JID_81_neutraal
 -----------------------------
 Symbolic Z-matrix:
 Charge =  0 Multiplicity = 1

 SCF Done:  E(RB3LYP) =  -456.286917507     A.U. after   16 cycles
 SCF Done:  E(RB3LYP) =  -456.291133357     A.U. after   14 cycles
 SCF Done:  E(RB3LYP) =  -456.291547741     A.U. after   12 cycles
 SCF Done:  E(RB3LYP) =  -456.291583283     A.U. after   13 cycles
 SCF Done:  E(RB3LYP) =  -456.292017126     A.U. after   12 cycles
 SCF Done:  E(RB3LYP) =  -456.292069365     A.U. after   11 cycles
 SCF Done:  E(RB3LYP) =  -456.292084503     A.U. after   11 cycles
 SCF Done:  E(RB3LYP) =  -456.292085885     A.U. after    9 cycles
 SCF Done:  E(RB3LYP) =  -456.292086145     A.U. after    8 cycles
 Optimization completed.
    -- Stationary point found.
 Normal termination of Gaussian 16 at Tue Dec  8 10:15:20 2020.

 --------------------------------------------------------------------
 #N Geom=AllCheck Guess=TCheck SCRF=Check GenChk RB3LYP/6-31G(d) Freq
 --------------------------------------------------------------------

 Structure from the checkpoint file:  "JID_81.chk"
 -----------------------------
 CID_134972925_JID_81_neutraal
 -----------------------------
 Charge =  0 Multiplicity = 1

 SCF Done:  E(RB3LYP) =  -456.292086145     A.U. after    1 cycles

  Exact polarizability: 156.191  20.724 100.487  -0.910  -0.906  33.062
 Approx polarizability: 325.125  86.913 168.807  -4.557  -1.253  50.911

                      1                      2                      3
                      A                      A                      A
 Frequencies --     82.9245               164.4771               192.0915
 Red. masses --      4.7801                 4.4254                 4.6486
 Frc consts  --      0.0194                 0.0705                 0.1011
 IR Inten    --      3.5426                 6.0615                 1.4387

                      4                      5                      6
                      A                      A                      A
 Frequencies --    316.1659               347.6031               368.1462
 Red. masses --      2.6799                 1.9566                 3.2501
 Frc consts  --      0.1578                 0.1393                 0.2595
 IR Inten    --     15.3720                25.3739                 3.0737

                      7                      8                      9
                      A                      A                      A
 Frequencies --    376.1624               399.1782               421.6999
 Red. masses --      1.6751                 2.6582                 2.6890
 Frc consts  --      0.1397                 0.2496                 0.2817
 IR Inten    --     76.6610                 9.9168                22.3293

                     10                     11                     12
                      A                      A                      A
 Frequencies --    427.8960               471.5296               514.6737
 Red. masses --      1.7684                 2.3424                 7.0456
 Frc consts  --      0.1908                 0.3069                 1.0996
 IR Inten    --     32.3537               111.3848                 3.1347

                     13                     14                     15
                      A                      A                      A
 Frequencies --    568.5451               583.6301               613.4818
 Red. masses --      1.3608                 1.3618                 2.4702
 Frc consts  --      0.2592                 0.2733                 0.5477
 IR Inten    --     86.8373               375.4856                 4.8420

                     16                     17                     18
                      A                      A                      A
 Frequencies --    663.8696               704.6887               739.4783
 Red. masses --      1.4192                 6.3999                 4.6301
 Frc consts  --      0.3685                 1.8725                 1.4917
 IR Inten    --      4.6813                 5.5567                 3.4168

                     19                     20                     21
                      A                      A                      A
 Frequencies --    747.8638               757.0335               831.8066
 Red. masses --      2.5147                 5.4690                 1.4603
 Frc consts  --      0.8287                 1.8467                 0.5953
 IR Inten    --      9.8329                15.0479                 0.2953

                     22                     23                     24
                      A                      A                      A
 Frequencies --    847.8905               847.9522               893.4731
 Red. masses --      1.5769                 2.1993                 1.4468
 Frc consts  --      0.6679                 0.9317                 0.6805
 IR Inten    --     53.9154                 8.5703                62.7567

                     25                     26                     27
                      A                      A                      A
 Frequencies --   1002.0328              1117.9739              1137.9468
 Red. masses --      1.5725                 1.3772                 1.3280
 Frc consts  --      0.9303                 1.0142                 1.0132
 IR Inten    --      0.6371                 1.1905                 3.6274

                     28                     29                     30
                      A                      A                      A
 Frequencies --   1259.0627              1273.6915              1292.4993
 Red. masses --      1.9772                 3.8965                 1.7153
 Frc consts  --      1.8467                 3.7244                 1.6883
 IR Inten    --    113.1747                21.2294                38.0438

                     31                     32                     33
                      A                      A                      A
 Frequencies --   1348.1355              1427.5520              1471.7862
 Red. masses --      2.8591                 2.6039                 3.2151
 Frc consts  --      3.0616                 3.1265                 4.1033
 IR Inten    --     20.6251                28.1399                15.6422

                     34                     35                     36
                      A                      A                      A
 Frequencies --   1482.4598              1624.7927              1626.3846
 Red. masses --      1.6017                 1.9994                 1.8927
 Frc consts  --      2.0739                 3.1098                 2.9497
 IR Inten    --     28.3185                16.3065               259.3397

                     37                     38                     39
                      A                      A                      A
 Frequencies --   1672.8765              1691.1817              1716.2758
 Red. masses --      3.2437                 1.7876                 3.8318
 Frc consts  --      5.3483                 3.0123                 6.6501
 IR Inten    --     91.0599               492.3554                71.0651

                     40                     41                     42
                      A                      A                      A
 Frequencies --   1734.1537              3175.0263              3185.1649
 Red. masses --      5.2948                 1.0886                 1.0601
 Frc consts  --      9.3816                 6.4659                 6.3369
 IR Inten    --     80.5141                15.8638                 5.4340

                     43                     44                     45
                      A                      A                      A
 Frequencies --   3197.6549              3264.2382              3547.5732
 Red. masses --      1.0908                 1.1158                 1.0481
 Frc consts  --      6.5716                 7.0049                 7.7718
 IR Inten    --      9.0316                 8.4487                54.7310

                     46                     47                     48
                      A                      A                      A
 Frequencies --   3571.3150              3672.0271              3679.1956
 Red. masses --      1.0475                 1.0990                 1.0984
 Frc consts  --      7.8712                 8.7310                 8.7604
 IR Inten    --     22.0468                13.2260                29.7161

 - Thermochemistry -
 -------------------
 Temperature   298.150 Kelvin.  Pressure   1.00000 Atm.
 Atom     1 has atomic number  6 and mass  12.00000

 Molecular mass:   136.06366 amu.
 Principal axes and moments of inertia in atomic units:
                           1         2         3
     Eigenvalues --   758.578651601.869662350.82940
           X            0.99966  -0.02565   0.00404
           Y            0.02568   0.99964  -0.00832
           Z           -0.00382   0.00842   0.99996
 This molecule is an asymmetric top.
 Rotational symmetry number  1.
 Warning -- assumption of classical behavior for rotation
           may cause significant error
 Rotational temperatures (Kelvin)      0.11418     0.05407     0.03684
 Rotational constants (GHZ):           2.37911     1.12665     0.76770
 Zero-point vibrational energy     377142.3 (Joules/Mol)
                                   90.13916 (Kcal/Mol)
 Warning -- explicit consideration of  15 degrees of freedom as
           vibrations may cause significant error
 Vibrational temperatures:    119.31   236.65   276.38   454.89   500.12
          (Kelvin)            529.68   541.21   574.33   606.73   615.65
                              678.43   740.50   818.01   839.71   882.66
                              955.16  1013.89  1063.94  1076.01  1089.20
                             1196.78  1219.93  1220.01  1285.51  1441.70
                             1608.52  1637.25  1811.51  1832.56  1859.62
                             1939.67  2053.93  2117.57  2132.93  2337.71
                             2340.00  2406.90  2433.23  2469.34  2495.06
                             4568.15  4582.74  4600.71  4696.51  5104.17
                             5138.33  5283.23  5293.54

 Zero-point correction=                           0.143646 (Hartree/Particle)
 Thermal correction to Energy=                    0.152658
 Thermal correction to Enthalpy=                  0.153602
 Thermal correction to Gibbs Free Energy=         0.110265
 Sum of electronic and zero-point Energies=           -456.148440
 Sum of electronic and thermal Energies=              -456.139428
 Sum of electronic and thermal Enthalpies=            -456.138484
 Sum of electronic and thermal Free Energies=         -456.181821

                     E (Thermal)             CV                S
                      KCal/Mol        Cal/Mol-Kelvin    Cal/Mol-Kelvin
 Total                   95.794             36.142             91.210
 Electronic               0.000              0.000              0.000
 Translational            0.889              2.981             40.636
 Rotational               0.889              2.981             29.436
 Vibrational             94.017             30.181             21.138
 Vibration     1          0.600              1.961              3.820
 Vibration     2          0.623              1.886              2.498
 Vibration     3          0.634              1.851              2.208
 Vibration     4          0.703              1.643              1.330
 Vibration     5          0.725              1.580              1.177
 Vibration     6          0.741              1.538              1.088
 Vibration     7          0.747              1.521              1.055
 Vibration     8          0.765              1.472              0.966
 Vibration     9          0.784              1.423              0.886
 Vibration    10          0.789              1.410              0.866
 Vibration    11          0.828              1.313              0.733
 Vibration    12          0.870              1.217              0.622
 Vibration    13          0.925              1.099              0.507
 Vibration    14          0.941              1.067              0.479
 Vibration    15          0.973              1.003              0.427

 Optimization completed.
    -- Stationary point found.
 Normal termination of Gaussian 16 at Tue Dec  8 10:18:11 2020.

 ----------------------------------------------------------------------
 # B3LYP/6-311++G(d,p) empiricaldispersion=gd3bj scf=xqc pop=npa geom=c
 heck
 ----------------------------------------------------------------------

 -------------------------------------
 CID_134972925_JID_81_Energie_neutraal
 -------------------------------------
 Structure from the checkpoint file:  "JID_81.chk"
 Charge =  0 Multiplicity = 1

 SCF Done:  E(RB3LYP) =  -456.434485572     A.U. after   16 cycles
 Normal termination of Gaussian 16 at Tue Dec  8 10:19:13 2020.

 ----------------------------------------------------------------------
 # B3LYP/6-311++G(d,p) empiricaldispersion=gd3bj scf=xqc pop=npa geom=c
 heck
 ----------------------------------------------------------------------

 -----------------------------------
 CID_134972925_JID_81_Energie_kation
 -----------------------------------
 Structure from the checkpoint file:  "JID_81.chk"
 Charge =  1 Multiplicity = 2

 SCF Done:  E(UB3LYP) =  -456.154074867     A.U. after   25 cycles
 Normal termination of Gaussian 16 at Tue Dec  8 10:21:14 2020.
 Gaussian 16:  ES64L-G16RevA.03 25-Dec-2016

 ----------------------------------------------------------------------
 # B3LYP/6-311++G(d,p) empiricaldispersion=gd3bj scf=xqc pop=npa geom=c
 heck
 ----------------------------------------------------------------------

 ----------------------------------
 CID_134972925_JID_81_Energie_anion
 ----------------------------------
 Structure from the checkpoint file:  "JID_81.chk"
 Charge = -1 Multiplicity = 2

                         Standard orientation:
 ---------------------------------------------------------------------
 Center     Atomic      Atomic             Coordinates (Angstroms)
 Number     Number       Type             X           Y           Z
 ---------------------------------------------------------------------
      1          6           0        2.266012    1.597903   -0.143901
      2          6           0        1.162830    0.825515   -0.012241
      3          6           0       -0.162089    1.411336    0.063509
      4          6           0       -1.289146    0.654868    0.051780
      5          6           0       -1.191506   -0.840389   -0.040866
      6          8           0       -2.228299   -1.508947   -0.119936
      7          6           0        0.132373   -1.417417   -0.013831
      8          6           0        1.262471   -0.654273    0.024418
      9          7           0        2.521207   -1.221946    0.037068
     10          7           0       -2.578480    1.109526    0.139077
     11          1           0        3.261569    1.190583   -0.276706
     12          1           0        2.182475    2.679829   -0.167999
     13          1           0       -0.223550    2.496468    0.097360
     14          1           0        0.185443   -2.502403   -0.008253
     15          1           0        2.543822   -2.216313    0.222649
     16          1           0        3.238815   -0.715047    0.536386
     17          1           0       -2.780173    2.055714   -0.148734
     18          1           0       -3.266774    0.404426   -0.101440
 ---------------------------------------------------------------------

 SCF Done:  E(UB3LYP) =  -456.460047444     A.U. after   22 cycles

 The electronic state is 2-A.
 Alpha  occ. eigenvalues --  -18.90377 -14.17812 -14.16607 -10.05349 -10.04900
 Alpha  occ. eigenvalues --  -10.03833 -10.01676  -9.99918  -9.99053  -9.99019
 Alpha  occ. eigenvalues --   -0.84521  -0.77871  -0.76059  -0.65772  -0.59057
 Alpha  occ. eigenvalues --   -0.56182  -0.48037  -0.45273  -0.41942  -0.39331
 Alpha  occ. eigenvalues --   -0.34949  -0.34375  -0.33436  -0.29185  -0.27046
 Alpha  occ. eigenvalues --   -0.25513  -0.24936  -0.24354  -0.21819  -0.20766
 Alpha  occ. eigenvalues --   -0.19126  -0.17712  -0.13817  -0.07684  -0.07087
 Alpha  occ. eigenvalues --   -0.04645   0.03793
 Alpha virt. eigenvalues --    0.09115   0.09774   0.11001   0.12160   0.13214
 Alpha virt. eigenvalues --    0.14302   0.14649   0.15876   0.16474   0.17984
 Alpha virt. eigenvalues --    0.18269   0.19372   0.20259   0.20711   0.21389

  Beta  occ. eigenvalues --  -18.89901 -14.17768 -14.16584 -10.05142 -10.04586
  Beta  occ. eigenvalues --  -10.03754 -10.01676  -9.99860  -9.99106  -9.98521
  Beta  occ. eigenvalues --   -0.83727  -0.77632  -0.75913  -0.65395  -0.58573
  Beta  occ. eigenvalues --   -0.55877  -0.47089  -0.44988  -0.41558  -0.39232
  Beta  occ. eigenvalues --   -0.34858  -0.34177  -0.33064  -0.29025  -0.26850
  Beta  occ. eigenvalues --   -0.25075  -0.24062  -0.23838  -0.21356  -0.19883
  Beta  occ. eigenvalues --   -0.18827  -0.16362  -0.12886  -0.07208  -0.05532
  Beta  occ. eigenvalues --   -0.03391
  Beta virt. eigenvalues --    0.08975   0.09752   0.10152   0.10964   0.12124
  Beta virt. eigenvalues --    0.13207   0.14459   0.14704   0.16215   0.16636
  Beta virt. eigenvalues --    0.18230   0.18825   0.19418   0.20403   0.21234

 Mulliken charges and spin densities:
               1          2
     1  C   -0.488935   0.575231
     2  C    1.431968  -0.063130
     3  C   -0.118842   0.027743
     4  C   -0.149499   0.050387
     5  C   -0.266096   0.165848
     6  O   -0.491166   0.164883
     7  C   -0.180478  -0.075748
     8  C   -1.238269   0.138127
     9  N   -0.277917   0.013220
    10  N   -0.378448   0.016839
    11  H    0.088362  -0.038799
    12  H    0.071401  -0.016301
    13  H    0.065387  -0.008541
    14  H    0.099280  -0.000819
    15  H    0.211200   0.003615
    16  H    0.166612   0.047467
    17  H    0.198819   0.001819
    18  H    0.256622  -0.001841
 Sum of Mulliken charges =  -1.00000   1.00000

 Dipole moment (field-independent basis, Debye):
    X=              1.3882    Y=              1.1761    Z=              0.2566  Tot=              1.8375
 Quadrupole moment (field-independent basis, Debye-Ang):
   XX=            -82.8287   YY=            -71.1311   ZZ=            -70.3402
   XY=            -16.0071   XZ=              4.3618   YZ=             -2.8745

 Summary of Natural Population Analysis:

                                       Natural Population
                Natural  -----------------------------------------------
    Atom  No    Charge         Core      Valence    Rydberg      Total
 -----------------------------------------------------------------------
      C    1   -0.08031      0.99957     2.07113    0.00961     3.08031
      C    2   -0.05584      0.99949     2.04610    0.01025     3.05584
      C    3   -0.13031      0.99949     2.12252    0.00829     3.13031
      C    4    0.07430      0.99948     1.91474    0.01148     2.92570
      C    5    0.25662      0.99958     1.72400    0.01979     2.74338
      O    6   -0.29097      0.99988     3.28338    0.00770     4.29097
      C    7   -0.19388      0.99948     2.18611    0.00829     3.19388
      C    8    0.16033      0.99948     1.82764    0.01255     2.83967
      N    9   -0.39573      0.99971     2.88656    0.00946     3.89573
      N   10   -0.40549      0.99970     2.89502    0.01077     3.90549
      H   11    0.07828      0.00000     0.42069    0.00103     0.42172
      H   12    0.07824      0.00000     0.42080    0.00095     0.42176
      H   13    0.08192      0.00000     0.41578    0.00230     0.41808
      H   14    0.08801      0.00000     0.40943    0.00257     0.41199
      H   15    0.17792      0.00000     0.32073    0.00135     0.32208
      H   16    0.18456      0.00000     0.31302    0.00241     0.31544
      H   17    0.17591      0.00000     0.32265    0.00144     0.32409
      H   18    0.19644      0.00000     0.30126    0.00230     0.30356
 =======================================================================
   * Total *    0.00000      9.99587    25.88158    0.12255    36.00000

 Normal termination of Gaussian 16 at Tue Dec  8 10:23:00 2020.
