 Gaussian 16, Revision A.03,

 -----------------------------------------------------------
 # opt freq B3LYP/6-31G(d) empiricaldispersion=gd3bj scf=xqc
 -----------------------------------------------------------

 -------------------------------
 CID_149764085_JID_4191_neutraal
 -------------------------------
 Symbolic Z-matrix:
 Charge =  0 Multiplicity = 1

 SCF Done:  E(RB3LYP) =  -613.268955044     A.U. after   15 cycles
 SCF Done:  E(RB3LYP) =  -613.272572150     A.U. after   14 cycles
 SCF Done:  E(RB3LYP) =  -613.273207315     A.U. after   16 cycles
 SCF Done:  E(RB3LYP) =  -613.274210001     A.U. after   14 cycles
 SCF Done:  E(RB3LYP) =  -613.275258527     A.U. after   13 cycles
 SCF Done:  E(RB3LYP) =  -613.277381150     A.U. after   13 cycles
 SCF Done:  E(RB3LYP) =  -613.278290993     A.U. after   14 cycles
 SCF Done:  E(RB3LYP) =  -613.280318587     A.U. after   14 cycles
 SCF Done:  E(RB3LYP) =  -613.282117238     A.U. after   16 cycles
 SCF Done:  E(RB3LYP) =  -613.283135062     A.U. after   15 cycles
 SCF Done:  E(RB3LYP) =  -613.288015245     A.U. after   11 cycles
 SCF Done:  E(RB3LYP) =  -613.288024402     A.U. after   10 cycles
 SCF Done:  E(RB3LYP) =  -613.288024810     A.U. after    8 cycles
 SCF Done:  E(RB3LYP) =  -613.288024965     A.U. after    7 cycles
 SCF Done:  E(RB3LYP) =  -613.288024955     A.U. after    7 cycles
 Optimization completed.
    -- Stationary point found.
 Normal termination of Gaussian 16 at Thu Dec 10 09:37:40 2020.

 --------------------------------------------------------------------
 #N Geom=AllCheck Guess=TCheck SCRF=Check GenChk RB3LYP/6-31G(d) Freq
 --------------------------------------------------------------------

 Structure from the checkpoint file:  "JID_4191.chk"
 -------------------------------
 CID_149764085_JID_4191_neutraal
 -------------------------------
 Charge =  0 Multiplicity = 1

 SCF Done:  E(RB3LYP) =  -613.288024955     A.U. after    1 cycles

  Exact polarizability: 142.206 -12.771 145.871  -0.041   6.100 113.110
 Approx polarizability: 182.423 -30.002 235.661  -7.589  17.237 167.152

                      1                      2                      3
                      A                      A                      A
 Frequencies --     24.2863                31.1823                42.9801
 Red. masses --      5.3232                 4.2919                 3.5494
 Frc consts  --      0.0018                 0.0025                 0.0039
 IR Inten    --      0.1509                 0.0632                 0.0285

                      4                      5                      6
                      A                      A                      A
 Frequencies --     59.1068                66.2825                72.5599
 Red. masses --      2.2663                 3.3494                 2.3670
 Frc consts  --      0.0047                 0.0087                 0.0073
 IR Inten    --      0.0599                 0.2461                 0.0865

                      7                      8                      9
                      A                      A                      A
 Frequencies --    122.6000               145.2105               212.3985
 Red. masses --      3.7319                 2.8065                 1.3176
 Frc consts  --      0.0330                 0.0349                 0.0350
 IR Inten    --      0.3011                 0.0873                 0.1856

                     10                     11                     12
                      A                      A                      A
 Frequencies --    215.7080               221.2902               230.8683
 Red. masses --      3.4021                 1.3886                 1.2163
 Frc consts  --      0.0933                 0.0401                 0.0382
 IR Inten    --      1.2687                 0.3275                 0.1230

                     13                     14                     15
                      A                      A                      A
 Frequencies --    255.6737               262.5430               287.1294
 Red. masses --      1.2894                 1.5286                 2.2042
 Frc consts  --      0.0497                 0.0621                 0.1071
 IR Inten    --      0.1100                 0.1781                 0.4267

                     16                     17                     18
                      A                      A                      A
 Frequencies --    307.9021               323.2243               336.3110
 Red. masses --      2.3157                 3.0115                 2.3072
 Frc consts  --      0.1293                 0.1854                 0.1538
 IR Inten    --      0.6698                 1.4847                 0.3167

                     19                     20                     21
                      A                      A                      A
 Frequencies --    374.2671               416.9443               421.9722
 Red. masses --      2.1340                 2.0273                 2.2016
 Frc consts  --      0.1761                 0.2077                 0.2310
 IR Inten    --      0.1670                 0.4980                 0.0680

                     22                     23                     24
                      A                      A                      A
 Frequencies --    443.6155               484.2649               534.1370
 Red. masses --      2.6939                 3.3740                 3.5286
 Frc consts  --      0.3124                 0.4662                 0.5931
 IR Inten    --      1.6029                 7.2327                 2.6407

                     25                     26                     27
                      A                      A                      A
 Frequencies --    571.7998               594.6152               666.8968
 Red. masses --     13.3983                 2.9392                 4.1405
 Frc consts  --      2.5810                 0.6123                 1.0850
 IR Inten    --      7.3952                 7.5103                 8.5385

                     28                     29                     30
                      A                      A                      A
 Frequencies --    744.6790               778.5532               808.1115
 Red. masses --      1.7089                 1.8269                 1.8433
 Frc consts  --      0.5583                 0.6525                 0.7092
 IR Inten    --      4.8983                 2.3866                 0.3884

                     31                     32                     33
                      A                      A                      A
 Frequencies --    837.9469               866.2401               883.8102
 Red. masses --      1.8092                 2.2560                 2.4342
 Frc consts  --      0.7484                 0.9974                 1.1203
 IR Inten    --      4.9354                 2.8694                 1.1635

                     34                     35                     36
                      A                      A                      A
 Frequencies --    932.8723               941.3631               951.0860
 Red. masses --      2.5497                 1.2378                 1.7477
 Frc consts  --      1.3073                 0.6463                 0.9315
 IR Inten    --      2.1065                 0.5825                 1.7500

                     37                     38                     39
                      A                      A                      A
 Frequencies --    974.0654               981.8191               984.4211
 Red. masses --      1.5204                 1.4807                 1.3244
 Frc consts  --      0.8499                 0.8410                 0.7562
 IR Inten    --      1.1941                 0.7389                 1.7660

                     40                     41                     42
                      A                      A                      A
 Frequencies --   1006.6009              1045.2821              1053.2505
 Red. masses --      1.6840                 1.6972                 2.0967
 Frc consts  --      1.0053                 1.0926                 1.3704
 IR Inten    --      0.5108                 0.9042                 1.3865

                     43                     44                     45
                      A                      A                      A
 Frequencies --   1078.7992              1114.8839              1144.4246
 Red. masses --      2.0134                 2.6179                 2.1138
 Frc consts  --      1.3806                 1.9172                 1.6311
 IR Inten    --      4.1281                17.9865                 7.9097

                     46                     47                     48
                      A                      A                      A
 Frequencies --   1161.9557              1172.2160              1185.7410
 Red. masses --      1.9911                 2.2956                 2.2081
 Frc consts  --      1.5839                 1.8585                 1.8291
 IR Inten    --      1.5884                15.7577                 5.5536

                     49                     50                     51
                      A                      A                      A
 Frequencies --   1207.8543              1214.5876              1239.7521
 Red. masses --      1.7283                 2.3567                 5.4699
 Frc consts  --      1.4856                 2.0484                 4.9533
 IR Inten    --      6.1459                20.7780                69.7051

                     52                     53                     54
                      A                      A                      A
 Frequencies --   1264.7334              1281.8734              1307.3221
 Red. masses --      1.4795                 1.3662                 1.2804
 Frc consts  --      1.3943                 1.3226                 1.2893
 IR Inten    --      2.6728                13.6914                 1.4420

                     55                     56                     57
                      A                      A                      A
 Frequencies --   1324.9282              1356.3123              1363.2880
 Red. masses --      1.2367                 1.2105                 1.1990
 Frc consts  --      1.2791                 1.3120                 1.3130
 IR Inten    --      1.5172                 3.4163                 0.9446

                     58                     59                     60
                      A                      A                      A
 Frequencies --   1383.5258              1383.8678              1404.2142
 Red. masses --      1.3946                 1.3843                 1.3766
 Frc consts  --      1.5728                 1.5620                 1.5993
 IR Inten    --      4.1094                 2.2979                 6.9305

                     61                     62                     63
                      A                      A                      A
 Frequencies --   1408.3836              1411.6407              1427.0530
 Red. masses --      1.3700                 1.4213                 1.4017
 Frc consts  --      1.6010                 1.6687                 1.6819
 IR Inten    --     11.0965                 5.2417                 1.7716

                     64                     65                     66
                      A                      A                      A
 Frequencies --   1431.1066              1436.7533              1442.5900
 Red. masses --      1.2989                 1.3205                 1.2245
 Frc consts  --      1.5673                 1.6060                 1.5013
 IR Inten    --      5.9379                10.7512                 2.3063

                     67                     68                     69
                      A                      A                      A
 Frequencies --   1450.5663              1508.0767              1516.0773
 Red. masses --      1.2443                 1.0791                 1.0582
 Frc consts  --      1.5426                 1.4460                 1.4330
 IR Inten    --      3.2249                 1.4428                 1.1125

                     70                     71                     72
                      A                      A                      A
 Frequencies --   1516.9150              1523.0891              1525.7614
 Red. masses --      1.0494                 1.0484                 1.0592
 Frc consts  --      1.4227                 1.4329                 1.4528
 IR Inten    --      0.7656                 4.8503                 3.6977

                     73                     74                     75
                      A                      A                      A
 Frequencies --   1529.6776              1532.9660              1535.9130
 Red. masses --      1.0661                 1.0502                 1.0587
 Frc consts  --      1.4698                 1.4540                 1.4715
 IR Inten    --     14.3437                 5.0556                 1.1094

                     76                     77                     78
                      A                      A                      A
 Frequencies --   1537.6920              1541.3877              1542.9527
 Red. masses --      1.0599                 1.0553                 1.0582
 Frc consts  --      1.4766                 1.4772                 1.4843
 IR Inten    --      2.9796                 2.2238                 1.1015

                     79                     80                     81
                      A                      A                      A
 Frequencies --   1547.1079              2226.1860              3010.6461
 Red. masses --      1.0788                13.9454                 1.0713
 Frc consts  --      1.5214                40.7196                 5.7212
 IR Inten    --      9.6382               468.9092                39.2461

                     82                     83                     84
                      A                      A                      A
 Frequencies --   3024.3428              3035.4509              3037.2634
 Red. masses --      1.0664                 1.0373                 1.0585
 Frc consts  --      5.7467                 5.6310                 5.7532
 IR Inten    --     13.8255                27.9052                 8.4507

                     85                     86                     87
                      A                      A                      A
 Frequencies --   3043.8003              3045.2169              3049.8186
 Red. masses --      1.0587                 1.0389                 1.0645
 Frc consts  --      5.7792                 5.6762                 5.8335
 IR Inten    --     47.1125                26.9061                18.7762

                     88                     89                     90
                      A                      A                      A
 Frequencies --   3055.0232              3059.8058              3061.7951
 Red. masses --      1.0599                 1.0777                 1.0387
 Frc consts  --      5.8283                 5.9446                 5.7369
 IR Inten    --     33.5371                19.2009                13.2245

                     91                     92                     93
                      A                      A                      A
 Frequencies --   3069.0330              3084.5851              3090.4814
 Red. masses --      1.0991                 1.0981                 1.0991
 Frc consts  --      6.0993                 6.1556                 6.1853
 IR Inten    --      9.0562                40.1630                 7.4450

                     94                     95                     96
                      A                      A                      A
 Frequencies --   3098.6082              3101.4669              3106.2641
 Red. masses --      1.1002                 1.0942                 1.0996
 Frc consts  --      6.2240                 6.2015                 6.2511
 IR Inten    --      7.9841                61.5625                68.3138

                     97                     98                     99
                      A                      A                      A
 Frequencies --   3110.7897              3111.4783              3113.4642
 Red. masses --      1.1020                 1.1006                 1.1014
 Frc consts  --      6.2833                 6.2778                 6.2904
 IR Inten    --     40.0394                44.0618                44.7831

                    100                    101                    102
                      A                      A                      A
 Frequencies --   3123.7551              3131.7911              3140.3408
 Red. masses --      1.1025                 1.1025                 1.1015
 Frc consts  --      6.3387                 6.3712                 6.4000
 IR Inten    --     50.4204                26.8900                27.6282

 - Thermochemistry -
 -------------------
 Temperature   298.150 Kelvin.  Pressure   1.00000 Atm.
 Atom     1 has atomic number  6 and mass  12.00000

 Molecular mass:   198.18445 amu.
 Principal axes and moments of inertia in atomic units:
                           1         2         3
     Eigenvalues --  2175.138914344.741565320.23716
           X            0.99987  -0.01576   0.00433
           Y            0.01567   0.99967   0.02043
           Z           -0.00465  -0.02036   0.99978
 This molecule is an asymmetric top.
 Rotational symmetry number  1.
 Warning -- assumption of classical behavior for rotation
           may cause significant error
 Rotational temperatures (Kelvin)      0.03982     0.01994     0.01628
 Rotational constants (GHZ):           0.82971     0.41539     0.33922
 Zero-point vibrational energy     851760.7 (Joules/Mol)
                                  203.57569 (Kcal/Mol)
 Warning -- explicit consideration of  26 degrees of freedom as
           vibrations may cause significant error
 Vibrational temperatures:     34.94    44.86    61.84    85.04    95.37
          (Kelvin)            104.40   176.39   208.93   305.59   310.36
                              318.39   332.17   367.86   377.74   413.12
                              443.00   465.05   483.88   538.49   599.89
                              607.12   638.26   696.75   768.50   822.69
                              855.52   959.52  1071.43  1120.16  1162.69
                             1205.62  1246.33  1271.61  1342.20  1354.41
                             1368.40  1401.46  1412.62  1416.36  1448.27
                             1503.93  1515.39  1552.15  1604.07  1646.57
                             1671.80  1686.56  1706.02  1737.83  1747.52
                             1783.73  1819.67  1844.33  1880.94  1906.28
                             1951.43  1961.47  1990.59  1991.08  2020.35
                             2026.35  2031.04  2053.21  2059.04  2067.17
                             2075.57  2087.04  2169.79  2181.30  2182.50
                             2191.39  2195.23  2200.86  2205.60  2209.84
                             2212.40  2217.71  2219.96  2225.94  3202.99
                             4331.65  4351.35  4367.34  4369.94  4379.35
                             4381.39  4388.01  4395.50  4402.38  4405.24
                             4415.65  4438.03  4446.51  4458.21  4462.32
                             4469.22  4475.73  4476.72  4479.58  4494.39
                             4505.95  4518.25

 Zero-point correction=                           0.324419 (Hartree/Particle)
 Thermal correction to Energy=                    0.341544
 Thermal correction to Enthalpy=                  0.342488
 Thermal correction to Gibbs Free Energy=         0.278084
 Sum of electronic and zero-point Energies=           -612.963606
 Sum of electronic and thermal Energies=              -612.946481
 Sum of electronic and thermal Enthalpies=            -612.945537
 Sum of electronic and thermal Free Energies=         -613.009941

                     E (Thermal)             CV                S
                      KCal/Mol        Cal/Mol-Kelvin    Cal/Mol-Kelvin
 Total                  214.322             62.235            135.549
 Electronic               0.000              0.000              0.000
 Translational            0.889              2.981             41.757
 Rotational               0.889              2.981             32.286
 Vibrational            212.545             56.274             61.506
 Vibration     1          0.593              1.985              6.249
 Vibration     2          0.594              1.983              5.753
 Vibration     3          0.595              1.980              5.117
 Vibration     4          0.596              1.974              4.487
 Vibration     5          0.598              1.970              4.261
 Vibration     6          0.599              1.967              4.083
 Vibration     7          0.610              1.930              3.059
 Vibration     8          0.617              1.908              2.734
 Vibration     9          0.643              1.822              2.023
 Vibration    10          0.645              1.817              1.995
 Vibration    11          0.648              1.809              1.949
 Vibration    12          0.653              1.794              1.872
 Vibration    13          0.666              1.753              1.691
 Vibration    14          0.670              1.741              1.645
 Vibration    15          0.684              1.698              1.491
 Vibration    16          0.698              1.659              1.374
 Vibration    17          0.708              1.629              1.294
 Vibration    18          0.717              1.603              1.230
 Vibration    19          0.745              1.525              1.062
 Vibration    20          0.780              1.433              0.902
 Vibration    21          0.784              1.422              0.885
 Vibration    22          0.803              1.375              0.815
 Vibration    23          0.840              1.285              0.699
 Vibration    24          0.889              1.175              0.578
 Vibration    25          0.928              1.092              0.501
 Vibration    26          0.952              1.043              0.459

                           ! Non-Optimized Parameters !
 Normal termination of Gaussian 16 at Thu Dec 10 09:47:53 2020.

 ----------------------------------------------------------------------
 # B3LYP/6-311++G(d,p) empiricaldispersion=gd3bj scf=xqc pop=npa geom=c
 heck
 ----------------------------------------------------------------------

 ---------------------------------------
 CID_149764085_JID_4191_Energie_neutraal
 ---------------------------------------
 Structure from the checkpoint file:  "JID_4191.chk"
 Charge =  0 Multiplicity = 1

 SCF Done:  E(RB3LYP) =  -613.458623052     A.U. after   15 cycles
 Normal termination of Gaussian 16 at Thu Dec 10 09:52:29 2020.

 ----------------------------------------------------------------------
 # B3LYP/6-311++G(d,p) empiricaldispersion=gd3bj scf=xqc pop=npa geom=c
 heck
 ----------------------------------------------------------------------

 -------------------------------------
 CID_149764085_JID_4191_Energie_kation
 -------------------------------------
 Structure from the checkpoint file:  "JID_4191.chk"
 Charge =  1 Multiplicity = 2

 SCF Done:  E(UB3LYP) =  -613.153275961     A.U. after   25 cycles
 Normal termination of Gaussian 16 at Thu Dec 10 10:02:45 2020.
 Gaussian 16:  ES64L-G16RevA.03 25-Dec-2016

 ----------------------------------------------------------------------
 # B3LYP/6-311++G(d,p) empiricaldispersion=gd3bj scf=xqc pop=npa geom=c
 heck
 ----------------------------------------------------------------------

 ------------------------------------
 CID_149764085_JID_4191_Energie_anion
 ------------------------------------
 Structure from the checkpoint file:  "JID_4191.chk"
 Charge = -1 Multiplicity = 2

                         Standard orientation:
 ---------------------------------------------------------------------
 Center     Atomic      Atomic             Coordinates (Angstroms)
 Number     Number       Type             X           Y           Z
 ---------------------------------------------------------------------
      1          6           0        3.940950   -1.646166    0.197891
      2          6           0        2.881484   -0.771755   -0.479969
      3          6           0        1.704988   -0.407760    0.443373
      4          6           0        2.136050    0.396160    1.671177
      5          7           0        0.598202    0.313283   -0.227251
      6          6           0       -0.086321   -0.417280   -1.305619
      7          6           0       -0.832041   -1.649286   -0.782470
      8          6           0       -1.732161   -1.381548    0.433311
      9          6           0       -2.749632   -0.239353    0.271688
     10          6           0       -3.707085   -0.472049   -0.903634
     11          6           0       -3.532794   -0.045947    1.575897
     12          7           0        1.139256    1.547065   -0.805963
     13          7           0        0.507275    2.533907   -0.381234
     14          7           0        0.014287    3.520975   -0.092522
     15          1           0        4.455007   -1.114120    1.004906
     16          1           0        4.701742   -1.964612   -0.522870
     17          1           0        3.492613   -2.550847    0.628006
     18          1           0        3.336361    0.153342   -0.852913
     19          1           0        2.496475   -1.305096   -1.357411
     20          1           0        1.243321   -1.337939    0.796492
     21          1           0        2.672499    1.303759    1.374471
     22          1           0        1.256818    0.688702    2.253639
     23          1           0        2.795773   -0.192475    2.314880
     24          1           0       -0.806127    0.285900   -1.734497
     25          1           0        0.595916   -0.704596   -2.120237
     26          1           0       -1.426483   -2.041395   -1.616827
     27          1           0       -0.117495   -2.443318   -0.531733
     28          1           0       -2.273390   -2.307671    0.675498
     29          1           0       -1.101541   -1.155274    1.301534
     30          1           0       -2.186902    0.685131    0.084777
     31          1           0       -4.265372   -1.408111   -0.770586
     32          1           0       -4.436975    0.341871   -0.981306
     33          1           0       -3.179288   -0.533400   -1.861727
     34          1           0       -2.858708    0.152803    2.417246
     35          1           0       -4.232138    0.794512    1.498645
     36          1           0       -4.115889   -0.943870    1.818932
 ---------------------------------------------------------------------

 SCF Done:  E(UB3LYP) =  -613.450315828     A.U. after   33 cycles
 SCF Done:  E(UB3LYP) =  -613.450315828     a.u. after    1 cycles

 The electronic state is 2-A.
 Alpha  occ. eigenvalues --  -14.31488 -14.23247 -14.22938 -14.21751 -10.08994
 Alpha  occ. eigenvalues --  -10.08597 -10.07110 -10.06502 -10.06372 -10.06026
 Alpha  occ. eigenvalues --  -10.05973 -10.05627 -10.05513 -10.04959  -0.99481
 Alpha  occ. eigenvalues --   -0.86877  -0.76707  -0.71431  -0.68095  -0.64708
 Alpha  occ. eigenvalues --   -0.61588  -0.58926  -0.56540  -0.53560  -0.50051
 Alpha  occ. eigenvalues --   -0.48074  -0.44957  -0.40306  -0.38785  -0.37609
 Alpha  occ. eigenvalues --   -0.36803  -0.36177  -0.35018  -0.34442  -0.33237
 Alpha  occ. eigenvalues --   -0.32648  -0.31263  -0.30896  -0.30098  -0.29093
 Alpha  occ. eigenvalues --   -0.28655  -0.28256  -0.26878  -0.26222  -0.25688
 Alpha  occ. eigenvalues --   -0.25042  -0.24809  -0.22957  -0.22752  -0.22455
 Alpha  occ. eigenvalues --   -0.22189  -0.21246  -0.19819  -0.12418  -0.10746
 Alpha  occ. eigenvalues --    0.04762
 Alpha virt. eigenvalues --    0.06346   0.06687   0.07970   0.08237   0.09034
 Alpha virt. eigenvalues --    0.09373   0.09680   0.10861   0.11085   0.11361
 Alpha virt. eigenvalues --    0.11532   0.12354   0.12467   0.12993   0.13683

  Beta  occ. eigenvalues --  -14.31115 -14.23281 -14.22484 -14.21604 -10.08991
  Beta  occ. eigenvalues --  -10.08601 -10.07110 -10.06489 -10.06360 -10.06012
  Beta  occ. eigenvalues --  -10.05963 -10.05625 -10.05474 -10.04949  -0.98800
  Beta  occ. eigenvalues --   -0.86564  -0.76445  -0.71407  -0.68061  -0.64620
  Beta  occ. eigenvalues --   -0.61542  -0.58900  -0.56473  -0.53474  -0.49999
  Beta  occ. eigenvalues --   -0.47859  -0.44894  -0.40207  -0.38473  -0.37282
  Beta  occ. eigenvalues --   -0.36366  -0.35724  -0.34860  -0.34180  -0.33172
  Beta  occ. eigenvalues --   -0.32329  -0.31207  -0.30290  -0.29763  -0.29063
  Beta  occ. eigenvalues --   -0.28619  -0.28190  -0.26802  -0.26190  -0.25652
  Beta  occ. eigenvalues --   -0.24945  -0.24767  -0.22812  -0.22718  -0.22344
  Beta  occ. eigenvalues --   -0.22165  -0.21184  -0.19167  -0.12271  -0.10538
  Beta virt. eigenvalues --    0.06629   0.07320   0.07992   0.08588   0.09206
  Beta virt. eigenvalues --    0.09488   0.09850   0.10618   0.10980   0.11195
  Beta virt. eigenvalues --    0.11506   0.11690   0.12433   0.12793   0.13074

 Mulliken charges and spin densities:
               1          2
     1  C    1.102434  -1.778176
     2  C   -1.068616   1.088835
     3  C   -0.690913   0.157815
     4  C   -0.013935  -0.534653
     5  N    0.524608   0.018135
     6  C   -0.495054   0.078627
     7  C    0.083919  -0.450254
     8  C    0.399220  -0.528826
     9  C   -0.575893   0.878704
    10  C   -0.107274  -0.565248
    11  C   -0.065787  -0.534521
    12  N   -0.100259   0.102007
    13  N    0.386851   0.025923
    14  N   -0.663191   0.234634
    15  H   -0.050655   0.188076
    16  H   -0.177696   0.309501
    17  H   -0.523085   0.678855
    18  H    0.160641   0.006630
    19  H    0.075590   0.016364
    20  H    0.399972  -0.303104
    21  H    0.138428   0.012601
    22  H    0.112728   0.021615
    23  H   -0.116537   0.251427
    24  H    0.175018   0.009574
    25  H    0.121368   0.013082
    26  H    0.085069   0.065956
    27  H   -0.233991   0.413094
    28  H   -0.050638   0.210004
    29  H   -0.116137   0.259470
    30  H    0.177803  -0.011101
    31  H   -0.039116   0.180033
    32  H    0.054580   0.075042
    33  H    0.095232   0.017033
    34  H    0.056733   0.074755
    35  H   -0.024399   0.153189
    36  H   -0.037017   0.164901
 Sum of Mulliken charges =  -1.00000   1.00000

 Dipole moment (field-independent basis, Debye):
    X=             -2.2528    Y=              0.5474    Z=             -1.9362  Tot=              3.0206
 Quadrupole moment (field-independent basis, Debye-Ang):
   XX=           -150.1890   YY=           -146.7552   ZZ=           -113.3664
   XY=             10.1972   XZ=              0.6379   YZ=              4.5168

 Summary of Natural Population Analysis:

                                       Natural Population
                Natural  -----------------------------------------------
    Atom  No    Charge         Core      Valence    Rydberg      Total
 -----------------------------------------------------------------------
      C    1   -0.28549      0.99967     2.28082    0.00501     3.28549
      C    2   -0.20119      0.99961     2.19316    0.00842     3.20119
      C    3   -0.00963      0.99958     1.99557    0.01447     3.00963
      C    4   -0.29103      0.99964     2.28483    0.00656     3.29103
      N    5   -0.18879      0.99970     2.67643    0.01267     3.68879
      C    6   -0.08557      0.99961     2.07483    0.01113     3.08557
      C    7   -0.19643      0.99962     2.18792    0.00889     3.19643
      C    8   -0.18781      0.99961     2.17820    0.01000     3.18781
      C    9   -0.12321      0.99961     2.11431    0.00929     3.12321
      C   10   -0.28626      0.99965     2.28098    0.00563     3.28626
      C   11   -0.27965      0.99965     2.27539    0.00460     3.27965
      N   12   -0.15610      0.99972     2.64172    0.01466     3.65610
      N   13    0.14527      0.99971     2.34030    0.01473     3.35473
      N   14    0.00483      0.99982     2.48244    0.01292     3.49517
      H   15    0.09495      0.00000     0.40409    0.00096     0.40505
      H   16    0.09702      0.00000     0.40214    0.00084     0.40298
      H   17    0.09845      0.00000     0.39961    0.00195     0.40155
      H   18    0.10199      0.00000     0.39674    0.00127     0.39801
      H   19    0.09532      0.00000     0.40340    0.00129     0.40468
      H   20    0.09614      0.00000     0.40131    0.00255     0.40386
      H   21    0.10054      0.00000     0.39842    0.00105     0.39946
      H   22    0.10404      0.00000     0.39480    0.00116     0.39596
      H   23    0.09837      0.00000     0.40096    0.00067     0.40163
      H   24    0.09588      0.00000     0.40291    0.00121     0.40412
      H   25    0.08636      0.00000     0.41238    0.00126     0.41364
      H   26    0.09623      0.00000     0.40283    0.00094     0.40377
      H   27    0.09974      0.00000     0.39898    0.00128     0.40026
      H   28    0.09346      0.00000     0.40550    0.00104     0.40654
      H   29    0.10193      0.00000     0.39664    0.00143     0.39807
      H   30    0.10135      0.00000     0.39654    0.00211     0.39865
      H   31    0.09457      0.00000     0.40465    0.00078     0.40543
      H   32    0.09729      0.00000     0.40200    0.00070     0.40271
      H   33    0.09743      0.00000     0.40183    0.00074     0.40257
      H   34    0.10042      0.00000     0.39870    0.00088     0.39958
      H   35    0.09624      0.00000     0.40294    0.00082     0.40376
      H   36    0.09335      0.00000     0.40567    0.00098     0.40665
 =======================================================================
   * Total *    0.00000     13.99519    40.83993    0.16489    55.00000

 Normal termination of Gaussian 16 at Thu Dec 10 10:16:18 2020.
