 Gaussian 16, Revision A.03,

 -----------------------------------------------------------
 # opt freq B3LYP/6-31G(d) empiricaldispersion=gd3bj scf=xqc
 -----------------------------------------------------------

 -------------------------------
 CID_107578910_JID_5354_neutraal
 -------------------------------
 Symbolic Z-matrix:
 Charge =  0 Multiplicity = 1

 SCF Done:  E(RB3LYP) =  -686.342299112     A.U. after   15 cycles
 SCF Done:  E(RB3LYP) =  -686.346929809     A.U. after   13 cycles
 SCF Done:  E(RB3LYP) =  -686.346534183     A.U. after   14 cycles
 SCF Done:  E(RB3LYP) =  -686.348209900     A.U. after   13 cycles
 SCF Done:  E(RB3LYP) =  -686.348509402     A.U. after   12 cycles
 SCF Done:  E(RB3LYP) =  -686.348743760     A.U. after   12 cycles
 SCF Done:  E(RB3LYP) =  -686.348851986     A.U. after   12 cycles
 SCF Done:  E(RB3LYP) =  -686.348899765     A.U. after   11 cycles
 SCF Done:  E(RB3LYP) =  -686.348926626     A.U. after   11 cycles
 SCF Done:  E(RB3LYP) =  -686.348961169     A.U. after   11 cycles
 SCF Done:  E(RB3LYP) =  -686.349069947     A.U. after    9 cycles
 SCF Done:  E(RB3LYP) =  -686.349072530     A.U. after   10 cycles
 SCF Done:  E(RB3LYP) =  -686.349073899     A.U. after    9 cycles
 SCF Done:  E(RB3LYP) =  -686.349074365     A.U. after    9 cycles
 SCF Done:  E(RB3LYP) =  -686.349074544     A.U. after    8 cycles
 SCF Done:  E(RB3LYP) =  -686.349074562     A.U. after    7 cycles
 Optimization completed.
    -- Stationary point found.
 Normal termination of Gaussian 16 at Thu Dec 10 15:49:48 2020.

 --------------------------------------------------------------------
 #N Geom=AllCheck Guess=TCheck SCRF=Check GenChk RB3LYP/6-31G(d) Freq
 --------------------------------------------------------------------

 Structure from the checkpoint file:  "JID_5354.chk"
 -------------------------------
 CID_107578910_JID_5354_neutraal
 -------------------------------
 Charge =  0 Multiplicity = 1

 SCF Done:  E(RB3LYP) =  -686.349074562     A.U. after    1 cycles

  Exact polarizability: 203.757 -10.197 158.252  12.019  -2.824  70.319
 Approx polarizability: 304.935 -20.177 232.918  26.798  -2.187 105.083

                      1                      2                      3
                      A                      A                      A
 Frequencies --     14.0734                38.1353                46.9788
 Red. masses --      3.6795                 1.0162                 4.8426
 Frc consts  --      0.0004                 0.0009                 0.0063
 IR Inten    --      2.8084                 0.2267                 1.8557

                      4                      5                      6
                      A                      A                      A
 Frequencies --     50.2804                60.8441                85.8331
 Red. masses --      5.1870                 4.2431                 4.3652
 Frc consts  --      0.0077                 0.0093                 0.0189
 IR Inten    --      1.3360                 3.4272                 1.9226

                      7                      8                      9
                      A                      A                      A
 Frequencies --    115.3614               172.5628               211.2815
 Red. masses --      5.8283                 4.2746                 3.5429
 Frc consts  --      0.0457                 0.0750                 0.0932
 IR Inten    --      0.2086                 1.5662                 2.8459

                     10                     11                     12
                      A                      A                      A
 Frequencies --    238.1423               265.8139               271.7609
 Red. masses --      2.9688                 3.8856                 4.5344
 Frc consts  --      0.0992                 0.1618                 0.1973
 IR Inten    --     14.8440                 1.0023                 3.6237

                     13                     14                     15
                      A                      A                      A
 Frequencies --    326.5149               359.1662               373.4399
 Red. masses --      1.7158                 2.9348                 5.7854
 Frc consts  --      0.1078                 0.2231                 0.4754
 IR Inten    --    102.2417                49.5885                 2.4274

                     16                     17                     18
                      A                      A                      A
 Frequencies --    398.9472               409.4954               473.1857
 Red. masses --      4.1750                 5.5669                 1.1334
 Frc consts  --      0.3915                 0.5500                 0.1495
 IR Inten    --      4.2733                 6.0281                78.6974

                     19                     20                     21
                      A                      A                      A
 Frequencies --    509.3660               525.9531               542.0242
 Red. masses --      1.2600                 4.7990                 4.1832
 Frc consts  --      0.1926                 0.7822                 0.7241
 IR Inten    --     60.7545                 4.0846                 3.2607

                     22                     23                     24
                      A                      A                      A
 Frequencies --    555.0899               565.8213               584.7030
 Red. masses --      3.1000                 1.3140                 6.2362
 Frc consts  --      0.5628                 0.2479                 1.2561
 IR Inten    --     17.4962               156.5665                16.7253

                     25                     26                     27
                      A                      A                      A
 Frequencies --    600.0161               621.2069               703.1539
 Red. masses --      3.0495                 5.3359                 3.4183
 Frc consts  --      0.6469                 1.2132                 0.9958
 IR Inten    --     36.7541                 8.5612                 8.0670

                     28                     29                     30
                      A                      A                      A
 Frequencies --    724.3864               761.4439               863.1182
 Red. masses --      3.8504                 7.3364                 1.7956
 Frc consts  --      1.1904                 2.5062                 0.7881
 IR Inten    --      6.1862                60.2654                26.0542

                     31                     32                     33
                      A                      A                      A
 Frequencies --    871.3730               895.5783               913.3190
 Red. masses --      2.9062                 1.4094                 1.3647
 Frc consts  --      1.3001                 0.6660                 0.6707
 IR Inten    --      3.3849                 0.8654                14.8616

                     34                     35                     36
                      A                      A                      A
 Frequencies --    933.9452               993.2460              1016.6017
 Red. masses --      4.5400                 1.5955                 3.4340
 Frc consts  --      2.3332                 0.9274                 2.0910
 IR Inten    --      2.9171                39.4379                 0.1794

                     37                     38                     39
                      A                      A                      A
 Frequencies --   1021.8121              1037.3170              1060.0860
 Red. masses --      2.0003                 4.1568                 4.0110
 Frc consts  --      1.2305                 2.6353                 2.6557
 IR Inten    --      2.2788                27.8783                63.3437

                     40                     41                     42
                      A                      A                      A
 Frequencies --   1075.7673              1099.6508              1135.9811
 Red. masses --      1.5234                 2.1209                 1.6177
 Frc consts  --      1.0387                 1.5110                 1.2299
 IR Inten    --     11.1398                32.5200                49.1077

                     43                     44                     45
                      A                      A                      A
 Frequencies --   1207.4715              1223.6048              1232.3549
 Red. masses --      1.4801                 1.1156                 1.7960
 Frc consts  --      1.2715                 0.9841                 1.6071
 IR Inten    --      7.2537                 9.1771                58.6486

                     46                     47                     48
                      A                      A                      A
 Frequencies --   1304.7875              1350.7763              1369.4948
 Red. masses --      1.7801                 2.1882                 3.2598
 Frc consts  --      1.7856                 2.3524                 3.6021
 IR Inten    --      7.2121                 5.8300                 8.8342

                     49                     50                     51
                      A                      A                      A
 Frequencies --   1372.6368              1420.2631              1432.5033
 Red. masses --      1.3658                 3.2458                 1.3396
 Frc consts  --      1.5162                 3.8576                 1.6197
 IR Inten    --      2.0514               409.6444               126.6984

                     52                     53                     54
                      A                      A                      A
 Frequencies --   1442.7274              1452.5564              1479.9106
 Red. masses --      1.2756                 2.2686                 3.0572
 Frc consts  --      1.5643                 2.8202                 3.9450
 IR Inten    --      1.7525                 7.6982                26.3682

                     55                     56                     57
                      A                      A                      A
 Frequencies --   1519.0656              1520.5283              1521.3289
 Red. masses --      1.0550                 1.0834                 1.3051
 Frc consts  --      1.4343                 1.4757                 1.7796
 IR Inten    --      6.6959                 1.6720                 5.1319

                     58                     59                     60
                      A                      A                      A
 Frequencies --   1543.5037              1646.9740              1652.3810
 Red. masses --      2.0572                 1.9445                 4.4660
 Frc consts  --      2.8876                 3.1077                 7.1843
 IR Inten    --     86.8600               291.4364                36.0624

                     61                     62                     63
                      A                      A                      A
 Frequencies --   1654.4073              1822.2755              2344.8863
 Red. masses --      2.2148                 6.6578                11.9132
 Frc consts  --      3.5716                13.0259                38.5942
 IR Inten    --     75.0008               583.3327                 6.6187

                     64                     65                     66
                      A                      A                      A
 Frequencies --   2995.1804              3047.4391              3086.1609
 Red. masses --      1.0716                 1.0399                 1.0900
 Frc consts  --      5.6640                 5.6902                 6.1165
 IR Inten    --     58.4120                27.0453                21.3265

                     67                     68                     69
                      A                      A                      A
 Frequencies --   3106.3329              3132.2963              3179.3766
 Red. masses --      1.0964                 1.1030                 1.0902
 Frc consts  --      6.2331                 6.3761                 6.4931
 IR Inten    --     18.5114                14.0329                12.3891

                     70                     71                     72
                      A                      A                      A
 Frequencies --   3208.9555              3239.7881              3564.6598
 Red. masses --      1.0912                 1.0915                 1.0476
 Frc consts  --      6.6203                 6.7499                 7.8428
 IR Inten    --      4.4219                 0.0616                16.0172

                     73                     74                     75
                      A                      A                      A
 Frequencies --   3621.8227              3682.3232              3740.5654
 Red. masses --      1.0761                 1.1006                 1.0663
 Frc consts  --      8.3170                 8.7930                 8.7901
 IR Inten    --     39.6429                50.4314                15.3843

 - Thermochemistry -
 -------------------
 Temperature   298.150 Kelvin.  Pressure   1.00000 Atm.
 Atom     1 has atomic number  6 and mass  12.00000

 Molecular mass:   204.08988 amu.
 Principal axes and moments of inertia in atomic units:
                           1         2         3
     Eigenvalues --  2492.730396073.625088314.01833
           X            0.99981  -0.01952  -0.00114
           Y            0.01952   0.99980  -0.00534
           Z            0.00124   0.00531   0.99999
 This molecule is an asymmetric top.
 Rotational symmetry number  1.
 Warning -- assumption of classical behavior for rotation
           may cause significant error
 Rotational temperatures (Kelvin)      0.03475     0.01426     0.01042
 Rotational constants (GHZ):           0.72400     0.29714     0.21707
 Zero-point vibrational energy     566085.6 (Joules/Mol)
                                  135.29770 (Kcal/Mol)
 Warning -- explicit consideration of  25 degrees of freedom as
           vibrations may cause significant error
 Vibrational temperatures:     20.25    54.87    67.59    72.34    87.54
          (Kelvin)            123.49   165.98   248.28   303.99   342.63
                              382.45   391.00   469.78   516.76   537.30
                              574.00   589.17   680.81   732.86   756.73
                              779.85   798.65   814.09   841.26   863.29
                              893.78  1011.68  1042.23  1095.55  1241.83
                             1253.71  1288.54  1314.06  1343.74  1429.06
                             1462.66  1470.16  1492.47  1525.23  1547.79
                             1582.15  1634.42  1737.28  1760.49  1773.08
                             1877.30  1943.47  1970.40  1974.92  2043.44
                             2061.05  2075.76  2089.90  2129.26  2185.60
                             2187.70  2188.85  2220.76  2369.63  2377.41
                             2380.32  2621.85  3373.77  4309.40  4384.59
                             4440.30  4469.32  4506.68  4574.41  4616.97
                             4661.33  5128.75  5211.00  5298.04  5381.84

 Zero-point correction=                           0.215611 (Hartree/Particle)
 Thermal correction to Energy=                    0.231099
 Thermal correction to Enthalpy=                  0.232043
 Thermal correction to Gibbs Free Energy=         0.169774
 Sum of electronic and zero-point Energies=           -686.133464
 Sum of electronic and thermal Energies=              -686.117976
 Sum of electronic and thermal Enthalpies=            -686.117032
 Sum of electronic and thermal Free Energies=         -686.179301

                     E (Thermal)             CV                S
                      KCal/Mol        Cal/Mol-Kelvin    Cal/Mol-Kelvin
 Total                  145.017             55.939            131.057
 Electronic               0.000              0.000              0.000
 Translational            0.889              2.981             41.844
 Rotational               0.889              2.981             33.198
 Vibrational            143.239             49.977             56.015
 Vibration     1          0.593              1.986              7.332
 Vibration     2          0.594              1.982              5.354
 Vibration     3          0.595              1.979              4.941
 Vibration     4          0.595              1.977              4.806
 Vibration     5          0.597              1.973              4.430
 Vibration     6          0.601              1.959              3.753
 Vibration     7          0.608              1.937              3.177
 Vibration     8          0.626              1.876              2.407
 Vibration     9          0.643              1.824              2.033
 Vibration    10          0.656              1.782              1.817
 Vibration    11          0.672              1.736              1.623
 Vibration    12          0.675              1.725              1.585
 Vibration    13          0.710              1.622              1.277
 Vibration    14          0.734              1.556              1.126
 Vibration    15          0.745              1.527              1.066
 Vibration    16          0.765              1.472              0.967
 Vibration    17          0.774              1.450              0.928
 Vibration    18          0.830              1.310              0.729
 Vibration    19          0.865              1.229              0.635
 Vibration    20          0.881              1.193              0.596
 Vibration    21          0.897              1.157              0.561
 Vibration    22          0.911              1.129              0.534
 Vibration    23          0.922              1.105              0.512
 Vibration    24          0.942              1.064              0.477
 Vibration    25          0.958              1.032              0.450

                           ! Non-Optimized Parameters !
 Normal termination of Gaussian 16 at Thu Dec 10 15:56:40 2020.

 ----------------------------------------------------------------------
 # B3LYP/6-311++G(d,p) empiricaldispersion=gd3bj scf=xqc pop=npa geom=c
 heck
 ----------------------------------------------------------------------

 ---------------------------------------
 CID_107578910_JID_5354_Energie_neutraal
 ---------------------------------------
 Structure from the checkpoint file:  "JID_5354.chk"
 Charge =  0 Multiplicity = 1

 SCF Done:  E(RB3LYP) =  -686.561830139     A.U. after   16 cycles
 Normal termination of Gaussian 16 at Thu Dec 10 15:59:40 2020.

 ----------------------------------------------------------------------
 # B3LYP/6-311++G(d,p) empiricaldispersion=gd3bj scf=xqc pop=npa geom=c
 heck
 ----------------------------------------------------------------------

 -------------------------------------
 CID_107578910_JID_5354_Energie_kation
 -------------------------------------
 Structure from the checkpoint file:  "JID_5354.chk"
 Charge =  1 Multiplicity = 2

 SCF Done:  E(UB3LYP) =  -686.263281296     A.U. after   25 cycles
 Normal termination of Gaussian 16 at Thu Dec 10 16:06:44 2020.
 Gaussian 16:  ES64L-G16RevA.03 25-Dec-2016

 ----------------------------------------------------------------------
 # B3LYP/6-311++G(d,p) empiricaldispersion=gd3bj scf=xqc pop=npa geom=c
 heck
 ----------------------------------------------------------------------

 ------------------------------------
 CID_107578910_JID_5354_Energie_anion
 ------------------------------------
 Structure from the checkpoint file:  "JID_5354.chk"
 Charge = -1 Multiplicity = 2

                         Standard orientation:
 ---------------------------------------------------------------------
 Center     Atomic      Atomic             Coordinates (Angstroms)
 Number     Number       Type             X           Y           Z
 ---------------------------------------------------------------------
      1          6           0       -0.528189    3.968700    0.183670
      2          6           0       -0.450834    2.464146    0.091543
      3          6           0        0.776740    1.806533    0.201688
      4          6           0        0.851787    0.410265    0.074957
      5          6           0       -0.313928   -0.337534   -0.161843
      6          6           0       -1.551713    0.310207   -0.235325
      7          6           0       -1.606036    1.706937   -0.112818
      8          7           0       -2.750140   -0.386311   -0.473245
      9          6           0       -3.181475   -1.637883   -0.044524
     10          8           0       -4.267148   -2.073992   -0.397915
     11          7           0       -2.312145   -2.345437    0.764222
     12          6           0        2.113353   -0.252374    0.166368
     13          6           0        3.184814   -0.811056    0.266451
     14          6           0        4.488717   -1.480415    0.297152
     15          8           0        5.410264   -0.961957   -0.657449
     16          1           0        0.264837    4.369643    0.822541
     17          1           0       -1.491161    4.296624    0.587961
     18          1           0       -0.414599    4.428090   -0.806682
     19          1           0        1.686064    2.371025    0.381376
     20          1           0       -0.242275   -1.407420   -0.311448
     21          1           0       -2.572040    2.203466   -0.168635
     22          1           0       -3.492829    0.116982   -0.939157
     23          1           0       -1.664557   -1.829017    1.345885
     24          1           0       -2.761773   -3.132333    1.212562
     25          1           0        4.966188   -1.338133    1.272891
     26          1           0        4.343423   -2.565192    0.166671
     27          1           0        4.970376   -0.989051   -1.521813
 ---------------------------------------------------------------------

 SCF Done:  E(UB3LYP) =  -686.566355765     A.U. after   29 cycles

 The electronic state is 2-A.
 Alpha  occ. eigenvalues --  -19.00724 -18.98061 -14.23119 -14.22763 -10.19547
 Alpha  occ. eigenvalues --  -10.11887 -10.08870 -10.05941 -10.05137 -10.04276
 Alpha  occ. eigenvalues --  -10.03531 -10.03067 -10.02755 -10.02714 -10.01980
 Alpha  occ. eigenvalues --   -0.94800  -0.90933  -0.82981  -0.79406  -0.72436
 Alpha  occ. eigenvalues --   -0.65983  -0.63743  -0.61714  -0.56999  -0.56093
 Alpha  occ. eigenvalues --   -0.52030  -0.49536  -0.47301  -0.43722  -0.41772
 Alpha  occ. eigenvalues --   -0.40498  -0.37805  -0.36327  -0.35767  -0.34318
 Alpha  occ. eigenvalues --   -0.32965  -0.32888  -0.32416  -0.31240  -0.31031
 Alpha  occ. eigenvalues --   -0.28647  -0.27426  -0.25154  -0.24497  -0.23424
 Alpha  occ. eigenvalues --   -0.22863  -0.20013  -0.18226  -0.17554  -0.16731
 Alpha  occ. eigenvalues --   -0.15689  -0.13171  -0.10942  -0.09783   0.04644
 Alpha virt. eigenvalues --    0.07413   0.08076   0.08482   0.09563   0.10039
 Alpha virt. eigenvalues --    0.10474   0.11098   0.11576   0.11834   0.12297
 Alpha virt. eigenvalues --    0.12968   0.13427   0.14924   0.15158   0.15622

  Beta  occ. eigenvalues --  -19.00624 -18.98055 -14.23123 -14.22742 -10.19537
  Beta  occ. eigenvalues --  -10.11894 -10.08890 -10.05943 -10.05134 -10.03978
  Beta  occ. eigenvalues --  -10.03433 -10.02962 -10.02720 -10.02382 -10.01785
  Beta  occ. eigenvalues --   -0.94785  -0.90684  -0.82949  -0.79370  -0.72072
  Beta  occ. eigenvalues --   -0.65602  -0.63475  -0.61308  -0.56800  -0.55890
  Beta  occ. eigenvalues --   -0.51922  -0.49079  -0.47096  -0.43610  -0.41619
  Beta  occ. eigenvalues --   -0.40364  -0.37733  -0.36106  -0.35611  -0.34201
  Beta  occ. eigenvalues --   -0.32790  -0.32678  -0.32330  -0.31129  -0.30909
  Beta  occ. eigenvalues --   -0.28550  -0.27336  -0.24433  -0.24300  -0.23266
  Beta  occ. eigenvalues --   -0.22638  -0.19230  -0.18186  -0.17370  -0.16707
  Beta  occ. eigenvalues --   -0.14794  -0.13039  -0.10066  -0.08363
  Beta virt. eigenvalues --    0.07441   0.08031   0.08169   0.09568   0.09801
  Beta virt. eigenvalues --    0.10217   0.10684   0.11086   0.11715   0.11846
  Beta virt. eigenvalues --    0.12377   0.12894   0.13340   0.14934   0.15183

 Mulliken charges and spin densities:
               1          2
     1  C   -0.532061   0.010491
     2  C    0.540750  -0.038913
     3  C   -1.086863   0.097093
     4  C    0.615852   0.232867
     5  C   -0.956724  -0.000241
     6  C   -0.214584   0.015498
     7  C   -0.296865   0.365917
     8  N   -0.224347  -0.017942
     9  C    0.213550  -0.013999
    10  O   -0.407158   0.005803
    11  N   -0.439054  -0.022783
    12  C    0.338298  -0.003744
    13  C   -0.054814   0.405859
    14  C    0.048091  -0.414986
    15  O   -0.206645  -0.050706
    16  H    0.126485   0.000119
    17  H    0.120953   0.000787
    18  H    0.130549   0.014581
    19  H    0.084361  -0.002769
    20  H    0.177250  -0.002183
    21  H    0.084657  -0.018715
    22  H    0.270839   0.031429
    23  H    0.217237   0.034361
    24  H    0.244376   0.042911
    25  H    0.078865   0.074000
    26  H    0.089994   0.057292
    27  H    0.037010   0.197971
 Sum of Mulliken charges =  -1.00000   1.00000

 Dipole moment (field-independent basis, Debye):
    X=             -3.2835    Y=              1.1203    Z=              2.2405  Tot=              4.1300
 Quadrupole moment (field-independent basis, Debye-Ang):
   XX=           -173.6091   YY=           -106.7922   ZZ=            -96.6073
   XY=             -5.8059   XZ=             -0.8173   YZ=             -5.4097

 Summary of Natural Population Analysis:

                                       Natural Population
                Natural  -----------------------------------------------
    Atom  No    Charge         Core      Valence    Rydberg      Total
 -----------------------------------------------------------------------
      C    1   -0.28797      0.99964     2.28359    0.00474     3.28797
      C    2   -0.01939      0.99952     2.01147    0.00841     3.01939
      C    3   -0.08848      0.99954     2.07519    0.01375     3.08848
      C    4    0.04874      0.99948     1.94192    0.00987     2.95126
      C    5   -0.11397      0.99955     2.09920    0.01521     3.11397
      C    6    0.06470      0.99947     1.92540    0.01042     2.93530
      C    7   -0.05849      0.99948     2.05029    0.00872     3.05849
      N    8   -0.31833      0.99964     2.80871    0.00998     3.81833
      C    9    0.40252      0.99975     1.57635    0.02138     2.59748
      O   10   -0.34679      0.99987     3.34094    0.00598     4.34679
      N   11   -0.41788      0.99971     2.91015    0.00802     3.91788
      C   12   -0.01115      0.99933     2.00073    0.01109     3.01115
      C   13   -0.00531      0.99922     1.99958    0.00650     3.00531
      C   14   -0.04475      0.99955     2.03055    0.01465     3.04475
      O   15   -0.36366      0.99990     3.35641    0.00735     4.36366
      H   16    0.09714      0.00000     0.40185    0.00101     0.40286
      H   17    0.09588      0.00000     0.40314    0.00098     0.40412
      H   18    0.09840      0.00000     0.40054    0.00106     0.40160
      H   19    0.09394      0.00000     0.40479    0.00127     0.40606
      H   20    0.10342      0.00000     0.39527    0.00131     0.39658
      H   21    0.08657      0.00000     0.41197    0.00146     0.41343
      H   22    0.19689      0.00000     0.30150    0.00161     0.30311
      H   23    0.19816      0.00000     0.29980    0.00203     0.30184
      H   24    0.18911      0.00000     0.30807    0.00282     0.31089
      H   25    0.09351      0.00000     0.40499    0.00150     0.40649
      H   26    0.08273      0.00000     0.41582    0.00144     0.41727
      H   27    0.22897      0.00000     0.26687    0.00416     0.27103
 =======================================================================
   * Total *    0.00452     14.99368    38.82508    0.17672    53.99548

 Normal termination of Gaussian 16 at Thu Dec 10 16:14:38 2020.
