 Gaussian 16, Revision A.03,

 -----------------------------------------------------------
 # opt freq B3LYP/6-31G(d) empiricaldispersion=gd3bj scf=xqc
 -----------------------------------------------------------

 ------------------------------
 CID_150764045_JID_952_neutraal
 ------------------------------
 Symbolic Z-matrix:
 Charge =  0 Multiplicity = 1

 SCF Done:  E(RB3LYP) =  -507.904451806     A.U. after   15 cycles
 SCF Done:  E(RB3LYP) =  -507.912413795     A.U. after   14 cycles
 SCF Done:  E(RB3LYP) =  -507.917057885     A.U. after   14 cycles
 SCF Done:  E(RB3LYP) =  -507.919310490     A.U. after   14 cycles
 SCF Done:  E(RB3LYP) =  -507.920873997     A.U. after   15 cycles
 SCF Done:  E(RB3LYP) =  -507.922132574     A.U. after   16 cycles
 SCF Done:  E(RB3LYP) =  -507.922680175     A.U. after   15 cycles
 SCF Done:  E(RB3LYP) =  -507.923058863     A.U. after   12 cycles
 SCF Done:  E(RB3LYP) =  -507.923144469     A.U. after   13 cycles
 SCF Done:  E(RB3LYP) =  -507.923157816     A.U. after   11 cycles
 SCF Done:  E(RB3LYP) =  -507.923162404     A.U. after    8 cycles
 SCF Done:  E(RB3LYP) =  -507.923162499     A.U. after    8 cycles
 SCF Done:  E(RB3LYP) =  -507.923162604     A.U. after    8 cycles
 SCF Done:  E(RB3LYP) =  -507.923162707     A.U. after    8 cycles
 SCF Done:  E(RB3LYP) =  -507.923162823     A.U. after    8 cycles
 SCF Done:  E(RB3LYP) =  -507.923162869     A.U. after    8 cycles
 Optimization completed.
    -- Stationary point found.
 Normal termination of Gaussian 16 at Tue Dec  8 13:37:59 2020.

 --------------------------------------------------------------------
 #N Geom=AllCheck Guess=TCheck SCRF=Check GenChk RB3LYP/6-31G(d) Freq
 --------------------------------------------------------------------

 Structure from the checkpoint file:  "JID_952.chk"
 ------------------------------
 CID_150764045_JID_952_neutraal
 ------------------------------
 Charge =  0 Multiplicity = 1

 SCF Done:  E(RB3LYP) =  -507.923162869     A.U. after    1 cycles

  Exact polarizability: 110.499  -4.670  66.915  14.141  -2.410  73.135
 Approx polarizability: 142.396 -13.117  95.820  38.699 -15.197 130.000

                      1                      2                      3
                      A                      A                      A
 Frequencies --     11.1788                37.7226                47.7568
 Red. masses --      3.4767                 6.8558                 6.0310
 Frc consts  --      0.0003                 0.0057                 0.0081
 IR Inten    --      0.0356                 0.5434                 0.7058

                      4                      5                      6
                      A                      A                      A
 Frequencies --     99.0566               158.3608               165.5152
 Red. masses --      2.8216                 2.9568                 2.7272
 Frc consts  --      0.0163                 0.0437                 0.0440
 IR Inten    --      0.4080                 3.4018                 6.2157

                      7                      8                      9
                      A                      A                      A
 Frequencies --    231.8314               239.0699               248.2066
 Red. masses --      1.0973                 2.6273                 1.5255
 Frc consts  --      0.0347                 0.0885                 0.0554
 IR Inten    --      0.0904                 1.4117                 3.9145

                     10                     11                     12
                      A                      A                      A
 Frequencies --    307.8819               322.6390               406.3374
 Red. masses --      3.6767                 4.2398                 2.3916
 Frc consts  --      0.2053                 0.2600                 0.2327
 IR Inten    --      0.6604                15.5293                 4.5988

                     13                     14                     15
                      A                      A                      A
 Frequencies --    448.4187               453.1143               567.8856
 Red. masses --      3.9182                 2.1383                13.0223
 Frc consts  --      0.4642                 0.2587                 2.4743
 IR Inten    --      1.2849                 0.1936                 7.0779

                     16                     17                     18
                      A                      A                      A
 Frequencies --    598.8882               695.2281               866.4184
 Red. masses --      4.7852                 6.2383                 3.6912
 Frc consts  --      1.0112                 1.7765                 1.6326
 IR Inten    --      2.5454                34.0291                31.4894

                     19                     20                     21
                      A                      A                      A
 Frequencies --    895.6628               904.8760               964.5231
 Red. masses --      3.2198                 3.9126                 2.4875
 Frc consts  --      1.5218                 1.8875                 1.3634
 IR Inten    --     34.0877               135.1209                41.7733

                     22                     23                     24
                      A                      A                      A
 Frequencies --   1053.9552              1061.1822              1085.2995
 Red. masses --      1.8902                 3.1854                 1.4026
 Frc consts  --      1.2371                 2.1135                 0.9734
 IR Inten    --      6.0632                48.6611                10.5551

                     25                     26                     27
                      A                      A                      A
 Frequencies --   1111.2847              1130.3662              1150.8373
 Red. masses --      2.0753                 1.2605                 4.1356
 Frc consts  --      1.5100                 0.9489                 3.2271
 IR Inten    --    193.9948                 8.8205               172.0446

                     28                     29                     30
                      A                      A                      A
 Frequencies --   1169.2728              1203.7801              1238.2293
 Red. masses --      2.3750                 1.6050                 1.4981
 Frc consts  --      1.9131                 1.3703                 1.3533
 IR Inten    --     40.4802                11.9894                21.7343

                     31                     32                     33
                      A                      A                      A
 Frequencies --   1258.9991              1310.3439              1359.2678
 Red. masses --      2.2216                 1.3563                 2.7889
 Frc consts  --      2.0747                 1.3720                 3.0359
 IR Inten    --     42.0232                14.2243                45.0067

                     34                     35                     36
                      A                      A                      A
 Frequencies --   1366.6941              1411.2488              1438.3987
 Red. masses --      1.6556                 1.1716                 1.2232
 Frc consts  --      1.8220                 1.3748                 1.4911
 IR Inten    --      7.2987                47.5393                25.9724

                     37                     38                     39
                      A                      A                      A
 Frequencies --   1466.3388              1486.0603              1497.5340
 Red. masses --      1.1570                 1.1800                 1.1617
 Frc consts  --      1.4657                 1.5353                 1.5349
 IR Inten    --      0.7107                37.1062                 4.1276

                     40                     41                     42
                      A                      A                      A
 Frequencies --   1507.5659              1523.0125              1536.1581
 Red. masses --      1.0442                 1.0570                 1.0496
 Frc consts  --      1.3983                 1.4446                 1.4594
 IR Inten    --      7.7150                10.0816                 4.8385

                     43                     44                     45
                      A                      A                      A
 Frequencies --   1542.4722              1548.4163              1552.8865
 Red. masses --      1.1384                 1.0914                 1.0686
 Frc consts  --      1.5958                 1.5418                 1.5183
 IR Inten    --      0.5463                 1.1218                17.7774

                     46                     47                     48
                      A                      A                      A
 Frequencies --   2232.9135              2997.5836              3005.1555
 Red. masses --     13.9548                 1.0497                 1.0510
 Frc consts  --     40.9936                 5.5572                 5.5921
 IR Inten    --    444.6415                45.1185                83.4074

                     49                     50                     51
                      A                      A                      A
 Frequencies --   3007.6323              3023.4715              3062.8915
 Red. masses --      1.0582                 1.0653                 1.1069
 Frc consts  --      5.6400                 5.7379                 6.1182
 IR Inten    --     46.0006                41.2415                51.0535

                     52                     53                     54
                      A                      A                      A
 Frequencies --   3083.5911              3084.7701              3101.9976
 Red. masses --      1.0840                 1.0834                 1.1003
 Frc consts  --      6.0730                 6.0740                 6.2378
 IR Inten    --     21.6481                57.7456                26.6231

                     55                     56                     57
                      A                      A                      A
 Frequencies --   3122.5694              3125.0595              3466.8619
 Red. masses --      1.1040                 1.1036                 1.0747
 Frc consts  --      6.3421                 6.3498                 7.6107
 IR Inten    --     22.2609                50.3286                 2.1214

 - Thermochemistry -
 -------------------
 Temperature   298.150 Kelvin.  Pressure   1.00000 Atm.
 Atom     1 has atomic number  6 and mass  12.00000

 Molecular mass:   145.09636 amu.
 Principal axes and moments of inertia in atomic units:
                           1         2         3
     Eigenvalues --   488.688643848.618143896.87839
           X            0.99998   0.00548  -0.00142
           Y           -0.00464   0.93717   0.34885
           Z            0.00324  -0.34883   0.93718
 This molecule is an asymmetric top.
 Rotational symmetry number  1.
 Warning -- assumption of classical behavior for rotation
           may cause significant error
 Rotational temperatures (Kelvin)      0.17724     0.02251     0.02223
 Rotational constants (GHZ):           3.69303     0.46893     0.46312
 Zero-point vibrational energy     460530.4 (Joules/Mol)
                                  110.06941 (Kcal/Mol)
 Warning -- explicit consideration of  16 degrees of freedom as
           vibrations may cause significant error
 Vibrational temperatures:     16.08    54.27    68.71   142.52   227.85
          (Kelvin)            238.14   333.55   343.97   357.11   442.97
                              464.21   584.63   645.17   651.93   817.06
                              861.67  1000.28  1246.58  1288.66  1301.91
                             1387.73  1516.41  1526.80  1561.50  1598.89
                             1626.34  1655.80  1682.32  1731.97  1781.54
                             1811.42  1885.29  1955.68  1966.37  2030.47
                             2069.53  2109.73  2138.11  2154.62  2169.05
                             2191.28  2210.19  2219.27  2227.83  2234.26
                             3212.66  4312.85  4323.75  4327.31  4350.10
                             4406.82  4436.60  4438.30  4463.08  4492.68
                             4496.26  4988.04

 Zero-point correction=                           0.175407 (Hartree/Particle)
 Thermal correction to Energy=                    0.186940
 Thermal correction to Enthalpy=                  0.187884
 Thermal correction to Gibbs Free Energy=         0.135159
 Sum of electronic and zero-point Energies=           -507.747756
 Sum of electronic and thermal Energies=              -507.736223
 Sum of electronic and thermal Enthalpies=            -507.735279
 Sum of electronic and thermal Free Energies=         -507.788004

                     E (Thermal)             CV                S
                      KCal/Mol        Cal/Mol-Kelvin    Cal/Mol-Kelvin
 Total                  117.307             39.070            110.969
 Electronic               0.000              0.000              0.000
 Translational            0.889              2.981             40.828
 Rotational               0.889              2.981             30.373
 Vibrational            115.529             33.108             39.769
 Vibration     1          0.593              1.987              7.790
 Vibration     2          0.594              1.982              5.375
 Vibration     3          0.595              1.978              4.908
 Vibration     4          0.604              1.950              3.473
 Vibration     5          0.621              1.893              2.569
 Vibration     6          0.624              1.885              2.486
 Vibration     7          0.653              1.792              1.865
 Vibration     8          0.657              1.781              1.810
 Vibration     9          0.662              1.766              1.743
 Vibration    10          0.698              1.659              1.374
 Vibration    11          0.708              1.630              1.297
 Vibration    12          0.771              1.456              0.940
 Vibration    13          0.807              1.364              0.801
 Vibration    14          0.812              1.354              0.786
 Vibration    15          0.924              1.101              0.508
 Vibration    16          0.957              1.034              0.452

 Optimization completed.
    -- Stationary point found.
 Normal termination of Gaussian 16 at Tue Dec  8 13:41:54 2020.

 ----------------------------------------------------------------------
 # B3LYP/6-311++G(d,p) empiricaldispersion=gd3bj scf=xqc pop=npa geom=c
 heck
 ----------------------------------------------------------------------

 --------------------------------------
 CID_150764045_JID_952_Energie_neutraal
 --------------------------------------
 Structure from the checkpoint file:  "JID_952.chk"
 Charge =  0 Multiplicity = 1

 SCF Done:  E(RB3LYP) =  -508.074852024     A.U. after   14 cycles
 Normal termination of Gaussian 16 at Tue Dec  8 13:44:12 2020.

 ----------------------------------------------------------------------
 # B3LYP/6-311++G(d,p) empiricaldispersion=gd3bj scf=xqc pop=npa geom=c
 heck
 ----------------------------------------------------------------------

 ------------------------------------
 CID_150764045_JID_952_Energie_kation
 ------------------------------------
 Structure from the checkpoint file:  "JID_952.chk"
 Charge =  1 Multiplicity = 2

 SCF Done:  E(UB3LYP) =  -507.765700857     A.U. after   26 cycles
 Normal termination of Gaussian 16 at Tue Dec  8 13:50:44 2020.
 Gaussian 16:  ES64L-G16RevA.03 25-Dec-2016

 ----------------------------------------------------------------------
 # B3LYP/6-311++G(d,p) empiricaldispersion=gd3bj scf=xqc pop=npa geom=c
 heck
 ----------------------------------------------------------------------

 -----------------------------------
 CID_150764045_JID_952_Energie_anion
 -----------------------------------
 Structure from the checkpoint file:  "JID_952.chk"
 Charge = -1 Multiplicity = 2

                         Standard orientation:
 ---------------------------------------------------------------------
 Center     Atomic      Atomic             Coordinates (Angstroms)
 Number     Number       Type             X           Y           Z
 ---------------------------------------------------------------------
      1          6           0        2.953324    1.302821    0.546862
      2          7           0        2.600560    0.383712   -0.528834
      3          6           0        3.429003   -0.816471   -0.534831
      4          6           0        1.209914    0.128125   -0.636471
      5          8           0        0.721363   -0.614346    0.513740
      6          6           0       -0.616922   -0.984396    0.421192
      7          7           0       -1.463341    0.214705    0.610419
      8          7           0       -2.851114   -0.220741    0.709178
      9          7           0       -3.520700    0.215650   -0.251146
     10          7           0       -4.264299    0.524936   -1.057230
     11          1           0        4.001199    1.602298    0.436872
     12          1           0        2.820524    0.867434    1.550716
     13          1           0        2.332160    2.201646    0.475442
     14          1           0        3.331897   -1.415745    0.384512
     15          1           0        3.150795   -1.445728   -1.386716
     16          1           0        4.479331   -0.528435   -0.651571
     17          1           0        0.661855    1.072999   -0.707366
     18          1           0        1.011788   -0.473518   -1.535555
     19          1           0       -0.869718   -1.405133   -0.564275
     20          1           0       -0.797958   -1.747622    1.189609
     21          1           0       -1.252440    0.578272    1.541193
 ---------------------------------------------------------------------

 SCF Done:  E(UB3LYP) =  -508.072100010     A.U. after   29 cycles

 The electronic state is 2-A.
 Alpha  occ. eigenvalues --  -19.01666 -14.30350 -14.22781 -14.21737 -14.20924
 Alpha  occ. eigenvalues --  -14.20753 -10.13160 -10.12778 -10.08376 -10.08284
 Alpha  occ. eigenvalues --   -0.98495  -0.93938  -0.85492  -0.82096  -0.72901
 Alpha  occ. eigenvalues --   -0.61112  -0.60609  -0.53800  -0.48489  -0.43461
 Alpha  occ. eigenvalues --   -0.40484  -0.39022  -0.38256  -0.36689  -0.35611
 Alpha  occ. eigenvalues --   -0.33595  -0.32528  -0.32156  -0.30050  -0.29290
 Alpha  occ. eigenvalues --   -0.27904  -0.27162  -0.26615  -0.24217  -0.20779
 Alpha  occ. eigenvalues --   -0.16789  -0.12968  -0.12010  -0.11079   0.04755
 Alpha virt. eigenvalues --    0.06494   0.08127   0.09226   0.09777   0.10685
 Alpha virt. eigenvalues --    0.11353   0.11996   0.12621   0.12893   0.13821
 Alpha virt. eigenvalues --    0.14942   0.15223   0.16122   0.16592   0.17182

  Beta  occ. eigenvalues --  -19.01651 -14.29970 -14.22841 -14.21171 -14.20763
  Beta  occ. eigenvalues --  -14.20752 -10.13148 -10.12761 -10.08343 -10.08253
  Beta  occ. eigenvalues --   -0.97740  -0.93898  -0.85127  -0.82063  -0.72524
  Beta  occ. eigenvalues --   -0.61043  -0.60559  -0.53659  -0.48426  -0.43144
  Beta  occ. eigenvalues --   -0.40384  -0.38943  -0.38103  -0.35794  -0.35100
  Beta  occ. eigenvalues --   -0.33227  -0.32266  -0.31964  -0.29264  -0.28887
  Beta  occ. eigenvalues --   -0.27845  -0.27066  -0.26578  -0.23780  -0.20094
  Beta  occ. eigenvalues --   -0.16624  -0.12863  -0.11847  -0.10916
  Beta virt. eigenvalues --    0.07118   0.08595   0.09228   0.09900   0.10904
  Beta virt. eigenvalues --    0.11172   0.12059   0.12431   0.12776   0.12935
  Beta virt. eigenvalues --    0.14155   0.14979   0.15581   0.16126   0.16555

 Mulliken charges and spin densities:
               1          2
     1  C    0.569448  -0.894790
     2  N   -0.183655   0.200384
     3  C    0.501826  -0.839863
     4  C   -0.409200  -0.066923
     5  O   -0.172612   0.048796
     6  C    0.092506  -0.342704
     7  N   -0.180207  -0.018155
     8  N   -0.539563  -0.063909
     9  N    0.450311   0.150096
    10  N   -0.320887   0.373906
    11  H   -0.237536   0.384179
    12  H   -0.130821   0.268376
    13  H   -0.123073   0.257037
    14  H   -0.036118   0.171140
    15  H   -0.165694   0.297141
    16  H   -0.331782   0.464907
    17  H    0.196984   0.009074
    18  H    0.093336   0.019510
    19  H    0.067263   0.067808
    20  H   -0.177273   0.310915
    21  H    0.036745   0.203077
 Sum of Mulliken charges =  -1.00000   1.00000

 Dipole moment (field-independent basis, Debye):
    X=              1.1738    Y=             -0.8583    Z=             -0.4674  Tot=              1.5273
 Quadrupole moment (field-independent basis, Debye-Ang):
   XX=           -145.6533   YY=            -80.3117   ZZ=            -82.2695
   XY=              0.9368   XZ=             -3.9271   YZ=              2.1745

 Summary of Natural Population Analysis:

                                       Natural Population
                Natural  -----------------------------------------------
    Atom  No    Charge         Core      Valence    Rydberg      Total
 -----------------------------------------------------------------------
      C    1   -0.17774      0.99964     2.16910    0.00900     3.17774
      N    2   -0.27896      0.99973     2.76475    0.01449     3.77896
      C    3   -0.17800      0.99964     2.16930    0.00906     3.17800
      C    4    0.08362      0.99957     1.90381    0.01299     2.91638
      O    5   -0.31137      0.99988     3.30156    0.00992     4.31137
      C    6    0.08473      0.99963     1.90112    0.01452     2.91527
      N    7   -0.25401      0.99974     2.74118    0.01309     3.75401
      N    8   -0.16821      0.99973     2.65128    0.01720     3.66821
      N    9    0.14170      0.99971     2.34304    0.01555     3.35830
      N   10    0.01931      0.99982     2.46635    0.01452     3.48069
      H   11    0.09319      0.00000     0.40545    0.00135     0.40681
      H   12    0.08768      0.00000     0.41064    0.00167     0.41232
      H   13    0.09575      0.00000     0.40307    0.00119     0.40425
      H   14    0.08777      0.00000     0.41060    0.00163     0.41223
      H   15    0.09373      0.00000     0.40521    0.00106     0.40627
      H   16    0.09388      0.00000     0.40467    0.00145     0.40612
      H   17    0.09058      0.00000     0.40742    0.00200     0.40942
      H   18    0.07743      0.00000     0.42104    0.00153     0.42257
      H   19    0.07054      0.00000     0.42724    0.00221     0.42946
      H   20    0.07768      0.00000     0.41966    0.00266     0.42232
      H   21    0.17069      0.00000     0.32601    0.00330     0.32931
 =======================================================================
   * Total *    0.00000      9.99710    28.85251    0.15039    39.00000

 Normal termination of Gaussian 16 at Tue Dec  8 13:57:03 2020.
