 Gaussian 16, Revision A.03,

 -----------------------------------------------------------
 # opt freq B3LYP/6-31G(d) empiricaldispersion=gd3bj scf=xqc
 -----------------------------------------------------------

 -------------------------------
 CID_62083146_JID_10859_neutraal
 -------------------------------
 Symbolic Z-matrix:
 Charge =  0 Multiplicity = 1

 SCF Done:  E(RB3LYP) =  -894.147332440     A.U. after   15 cycles
 SCF Done:  E(RB3LYP) =  -894.152404303     A.U. after   12 cycles
 SCF Done:  E(RB3LYP) =  -894.153105947     A.U. after   12 cycles
 SCF Done:  E(RB3LYP) =  -894.153403693     A.U. after   12 cycles
 SCF Done:  E(RB3LYP) =  -894.153514361     A.U. after   12 cycles
 SCF Done:  E(RB3LYP) =  -894.153569720     A.U. after   11 cycles
 SCF Done:  E(RB3LYP) =  -894.153612828     A.U. after   11 cycles
 SCF Done:  E(RB3LYP) =  -894.153660199     A.U. after   12 cycles
 SCF Done:  E(RB3LYP) =  -894.153692773     A.U. after   11 cycles
 SCF Done:  E(RB3LYP) =  -894.153717672     A.U. after   11 cycles
 SCF Done:  E(RB3LYP) =  -894.154017010     A.U. after   10 cycles
 SCF Done:  E(RB3LYP) =  -894.154017250     A.U. after    8 cycles
 SCF Done:  E(RB3LYP) =  -894.154017371     A.U. after    7 cycles
 SCF Done:  E(RB3LYP) =  -894.154017380     A.U. after    7 cycles
 Optimization completed.
    -- Stationary point found.
 Normal termination of Gaussian 16 at Sat Dec 12 16:52:24 2020.

 --------------------------------------------------------------------
 #N Geom=AllCheck Guess=TCheck SCRF=Check GenChk RB3LYP/6-31G(d) Freq
 --------------------------------------------------------------------

 Structure from the checkpoint file:  "JID_10859.chk"
 -------------------------------
 CID_62083146_JID_10859_neutraal
 -------------------------------
 Charge =  0 Multiplicity = 1

 SCF Done:  E(RB3LYP) =  -894.154017380     A.U. after    1 cycles

  Exact polarizability: 241.545   5.352 172.636   1.952  19.936 118.023
 Approx polarizability: 314.304  12.454 321.780  -2.151  50.267 199.709

                      1                      2                      3
                      A                      A                      A
 Frequencies --     15.2975                23.9584                27.4994
 Red. masses --      4.1963                 6.2713                 4.3145
 Frc consts  --      0.0006                 0.0021                 0.0019
 IR Inten    --      0.7272                 0.6839                 0.4533

                      4                      5                      6
                      A                      A                      A
 Frequencies --     76.6886                94.5429                98.1048
 Red. masses --      7.0612                 6.3328                 6.1956
 Frc consts  --      0.0245                 0.0334                 0.0351
 IR Inten    --      0.7937                 0.9035                 1.0470

                      7                      8                      9
                      A                      A                      A
 Frequencies --    174.0493               182.5991               216.0013
 Red. masses --      5.2875                 5.0282                 5.7017
 Frc consts  --      0.0944                 0.0988                 0.1567
 IR Inten    --      2.4646                 2.2637                 1.6909

                     10                     11                     12
                      A                      A                      A
 Frequencies --    228.0582               262.5622               302.3119
 Red. masses --      3.8929                 5.1771                 1.0545
 Frc consts  --      0.1193                 0.2103                 0.0568
 IR Inten    --      2.5667                 0.7718                20.8830

                     13                     14                     15
                      A                      A                      A
 Frequencies --    321.7196               347.1575               358.4486
 Red. masses --      6.4616                 2.0844                 8.1735
 Frc consts  --      0.3940                 0.1480                 0.6187
 IR Inten    --      0.1169                51.0229                 2.7760

                     16                     17                     18
                      A                      A                      A
 Frequencies --    380.8602               394.5524               420.2178
 Red. masses --      1.8672                 4.5887                 2.6572
 Frc consts  --      0.1596                 0.4209                 0.2765
 IR Inten    --     70.1978                30.2193                19.3590

                     19                     20                     21
                      A                      A                      A
 Frequencies --    458.4555               470.4522               485.0541
 Red. masses --      3.1427                 4.0667                 4.7940
 Frc consts  --      0.3892                 0.5303                 0.6645
 IR Inten    --      7.7057                 3.6094                 8.8835

                     22                     23                     24
                      A                      A                      A
 Frequencies --    520.9159               547.4035               569.0718
 Red. masses --      5.4413                 6.0448                 2.4874
 Frc consts  --      0.8699                 1.0672                 0.4746
 IR Inten    --     12.8842                16.9181               121.0424

                     25                     26                     27
                      A                      A                      A
 Frequencies --    624.4966               632.6068               637.1448
 Red. masses --      1.9812                 5.5057                 6.1528
 Frc consts  --      0.4552                 1.2982                 1.4716
 IR Inten    --    228.7333                16.8338                 8.3936

                     28                     29                     30
                      A                      A                      A
 Frequencies --    694.3000               697.6728               710.1696
 Red. masses --      5.7108                 2.9244                 3.0308
 Frc consts  --      1.6220                 0.8387                 0.9006
 IR Inten    --      7.1671                 1.8966                 6.0616

                     31                     32                     33
                      A                      A                      A
 Frequencies --    717.9649               743.3514               770.3572
 Red. masses --      4.0652                 1.5795                 3.3242
 Frc consts  --      1.2346                 0.5142                 1.1623
 IR Inten    --      7.1429                73.0093                39.7983

                     34                     35                     36
                      A                      A                      A
 Frequencies --    808.6485               831.1315               857.5041
 Red. masses --      1.7740                 4.0827                 3.7727
 Frc consts  --      0.6835                 1.6616                 1.6345
 IR Inten    --     16.3933                13.6419                 1.2942

                     37                     38                     39
                      A                      A                      A
 Frequencies --    867.1471               882.0498               892.3406
 Red. masses --      1.2463                 1.7035                 5.0097
 Frc consts  --      0.5522                 0.7809                 2.3503
 IR Inten    --      0.6866                21.7880                62.6210

                     40                     41                     42
                      A                      A                      A
 Frequencies --    899.8413               921.5725               941.9586
 Red. masses --      1.4631                 8.2950                 1.4820
 Frc consts  --      0.6980                 4.1508                 0.7748
 IR Inten    --      4.9357                 8.4244                 1.5486

                     43                     44                     45
                      A                      A                      A
 Frequencies --    970.8131               976.9276              1001.3658
 Red. masses --      1.2643                 1.3390                 1.2559
 Frc consts  --      0.7020                 0.7529                 0.7420
 IR Inten    --      0.3069                 0.3306                 0.3490

                     46                     47                     48
                      A                      A                      A
 Frequencies --   1006.6553              1020.6173              1022.2413
 Red. masses --      5.5250                 6.0883                 6.1617
 Frc consts  --      3.2987                 3.7365                 3.7937
 IR Inten    --      1.0648                 6.1280                 1.8950

                     49                     50                     51
                      A                      A                      A
 Frequencies --   1054.1720              1062.5620              1095.5501
 Red. masses --      5.4694                 2.5120                 2.7257
 Frc consts  --      3.5811                 1.6710                 1.9275
 IR Inten    --      8.7897                 2.7752                52.5328

                     52                     53                     54
                      A                      A                      A
 Frequencies --   1101.7570              1127.4737              1138.1350
 Red. masses --      1.6394                 1.9719                 2.1057
 Frc consts  --      1.1725                 1.4769                 1.6071
 IR Inten    --      4.4504                25.6659                24.0395

                     55                     56                     57
                      A                      A                      A
 Frequencies --   1160.6244              1194.3016              1204.4076
 Red. masses --      1.4602                 1.1010                 1.2684
 Frc consts  --      1.1589                 0.9253                 1.0840
 IR Inten    --      5.7599                 0.4755                 4.0952

                     58                     59                     60
                      A                      A                      A
 Frequencies --   1205.2958              1218.2926              1238.3367
 Red. masses --      1.6759                 1.4002                 1.9611
 Frc consts  --      1.4344                 1.2245                 1.7718
 IR Inten    --     15.9525                 7.2416                 9.3128

                     61                     62                     63
                      A                      A                      A
 Frequencies --   1308.1796              1316.0710              1337.9220
 Red. masses --      1.6482                 2.7137                 1.9290
 Frc consts  --      1.6619                 2.7693                 2.0344
 IR Inten    --     41.7533                13.6265                17.9137

                     64                     65                     66
                      A                      A                      A
 Frequencies --   1352.6836              1358.8307              1368.8160
 Red. masses --      1.7689                 2.1665                 2.2425
 Frc consts  --      1.9070                 2.3569                 2.4756
 IR Inten    --      9.5596                11.5508                 1.0680

                     67                     68                     69
                      A                      A                      A
 Frequencies --   1380.7393              1393.3488              1461.8736
 Red. masses --      4.5269                 3.1294                 1.4209
 Frc consts  --      5.0848                 3.5796                 1.7891
 IR Inten    --     16.8046               255.7976                36.3847

                     70                     71                     72
                      A                      A                      A
 Frequencies --   1500.0056              1516.6530              1520.9000
 Red. masses --      2.2299                 3.6527                 3.4656
 Frc consts  --      2.9561                 4.9504                 4.7232
 IR Inten    --     18.2441               144.2504                 5.1974

                     73                     74                     75
                      A                      A                      A
 Frequencies --   1545.8061              1575.8464              1627.9014
 Red. masses --      2.1675                 4.7567                 8.9843
 Frc consts  --      3.0515                 6.9596                14.0279
 IR Inten    --     14.1310                19.2726                87.7695

                     76                     77                     78
                      A                      A                      A
 Frequencies --   1649.1581              1651.9803              1666.2033
 Red. masses --      5.7340                 6.0795                 5.4684
 Frc consts  --      9.1882                 9.7752                 8.9447
 IR Inten    --      0.6571                25.7047                 4.5122

                     79                     80                     81
                      A                      A                      A
 Frequencies --   1672.1988              1696.4127              3066.1302
 Red. masses --      3.5757                 1.3194                 1.0846
 Frc consts  --      5.8909                 2.2371                 6.0077
 IR Inten    --     32.9549               139.2568                12.3382

                     82                     83                     84
                      A                      A                      A
 Frequencies --   3179.3030              3184.5207              3192.9308
 Red. masses --      1.0877                 1.0850                 1.0884
 Frc consts  --      6.4780                 6.4831                 6.5373
 IR Inten    --     12.8459                 0.5520                 8.1136

                     85                     86                     87
                      A                      A                      A
 Frequencies --   3201.3511              3202.1736              3203.9972
 Red. masses --      1.0925                 1.0925                 1.0908
 Frc consts  --      6.5969                 6.6003                 6.5977
 IR Inten    --     23.1695                24.1503                 3.7938

                     88                     89                     90
                      A                      A                      A
 Frequencies --   3211.8658              3229.4630              3238.5139
 Red. masses --      1.0969                 1.0920                 1.0927
 Frc consts  --      6.6673                 6.7101                 6.7521
 IR Inten    --     22.3174                 6.1191                 2.3470

                     91                     92                     93
                      A                      A                      A
 Frequencies --   3555.3157              3654.6090              3687.9627
 Red. masses --      1.0478                 1.0984                 1.0658
 Frc consts  --      7.8036                 8.6438                 8.5407
 IR Inten    --     16.9072                 9.9013                56.4716

 - Thermochemistry -
 -------------------
 Temperature   298.150 Kelvin.  Pressure   1.00000 Atm.
 Atom     1 has atomic number  6 and mass  12.00000

 Molecular mass:   267.10078 amu.
 Principal axes and moments of inertia in atomic units:
                           1         2         3
     Eigenvalues --  2270.04368********************
           X            1.00000  -0.00035   0.00250
           Y            0.00022   0.99872   0.05058
           Z           -0.00251  -0.05058   0.99872
 This molecule is an asymmetric top.
 Rotational symmetry number  1.
 Warning -- assumption of classical behavior for rotation
           may cause significant error
 Rotational temperatures (Kelvin)      0.03816     0.00707     0.00690
 Rotational constants (GHZ):           0.79502     0.14725     0.14378
 Zero-point vibrational energy     679571.2 (Joules/Mol)
                                  162.42142 (Kcal/Mol)
 Warning -- explicit consideration of  24 degrees of freedom as
           vibrations may cause significant error
 Vibrational temperatures:     22.01    34.47    39.57   110.34   136.03
          (Kelvin)            141.15   250.42   262.72   310.78   328.12
                              377.77   434.96   462.88   499.48   515.73
                              547.97   567.67   604.60   659.62   676.88
                              697.88   749.48   787.59   818.77   898.51
                              910.18   916.71   998.94  1003.80  1021.78
                             1032.99  1069.52  1108.37  1163.46  1195.81
                             1233.76  1247.63  1269.07  1283.88  1294.67
                             1325.94  1355.27  1396.78  1405.58  1440.74
                             1448.35  1468.44  1470.78  1516.72  1528.79
                             1576.25  1585.18  1622.18  1637.52  1669.88
                             1718.33  1732.87  1734.15  1752.85  1781.69
                             1882.18  1893.53  1924.97  1946.21  1955.05
                             1969.42  1986.58  2004.72  2103.31  2158.17
                             2182.13  2188.24  2224.07  2267.29  2342.19
                             2372.77  2376.83  2397.29  2405.92  2440.76
                             4411.48  4574.31  4581.81  4593.92  4606.03
                             4607.21  4609.84  4621.16  4646.48  4659.50
                             5115.31  5258.17  5306.16

 Zero-point correction=                           0.258835 (Hartree/Particle)
 Thermal correction to Energy=                    0.275287
 Thermal correction to Enthalpy=                  0.276231
 Thermal correction to Gibbs Free Energy=         0.212044
 Sum of electronic and zero-point Energies=           -893.895182
 Sum of electronic and thermal Energies=              -893.878731
 Sum of electronic and thermal Enthalpies=            -893.877786
 Sum of electronic and thermal Free Energies=         -893.941973

                     E (Thermal)             CV                S
                      KCal/Mol        Cal/Mol-Kelvin    Cal/Mol-Kelvin
 Total                  172.745             64.417            135.093
 Electronic               0.000              0.000              0.000
 Translational            0.889              2.981             42.647
 Rotational               0.889              2.981             34.212
 Vibrational            170.968             58.455             58.235
 Vibration     1          0.593              1.986              7.167
 Vibration     2          0.593              1.985              6.276
 Vibration     3          0.593              1.984              6.002
 Vibration     4          0.599              1.965              3.974
 Vibration     5          0.603              1.953              3.564
 Vibration     6          0.604              1.951              3.492
 Vibration     7          0.627              1.874              2.391
 Vibration     8          0.630              1.863              2.302
 Vibration     9          0.645              1.817              1.992
 Vibration    10          0.651              1.798              1.894
 Vibration    11          0.670              1.741              1.645
 Vibration    12          0.694              1.669              1.404
 Vibration    13          0.707              1.632              1.301
 Vibration    14          0.725              1.581              1.179
 Vibration    15          0.733              1.558              1.129
 Vibration    16          0.751              1.511              1.036
 Vibration    17          0.762              1.482              0.983
 Vibration    18          0.783              1.426              0.891
 Vibration    19          0.816              1.342              0.771
 Vibration    20          0.827              1.316              0.736
 Vibration    21          0.841              1.283              0.697
 Vibration    22          0.876              1.204              0.608
 Vibration    23          0.903              1.145              0.550
 Vibration    24          0.925              1.098              0.506

 Optimization completed.
    -- Stationary point found.
 Normal termination of Gaussian 16 at Sat Dec 12 17:08:06 2020.

 ----------------------------------------------------------------------
 # B3LYP/6-311++G(d,p) empiricaldispersion=gd3bj scf=xqc pop=npa geom=c
 heck
 ----------------------------------------------------------------------

 ---------------------------------------
 CID_62083146_JID_10859_Energie_neutraal
 ---------------------------------------
 Structure from the checkpoint file:  "JID_10859.chk"
 Charge =  0 Multiplicity = 1

 SCF Done:  E(RB3LYP) =  -894.401535033     A.U. after   16 cycles
 Normal termination of Gaussian 16 at Sat Dec 12 17:15:24 2020.

 ----------------------------------------------------------------------
 # B3LYP/6-311++G(d,p) empiricaldispersion=gd3bj scf=xqc pop=npa geom=c
 heck
 ----------------------------------------------------------------------

 -------------------------------------
 CID_62083146_JID_10859_Energie_kation
 -------------------------------------
 Structure from the checkpoint file:  "JID_10859.chk"
 Charge =  1 Multiplicity = 2

 SCF Done:  E(UB3LYP) =  -894.112850813     A.U. after   33 cycles
 SCF Done:  E(UB3LYP) =  -894.112850813     a.u. after    2 cycles
 Normal termination of Gaussian 16 at Sat Dec 12 17:57:13 2020.
 Gaussian 16:  ES64L-G16RevA.03 25-Dec-2016

 ----------------------------------------------------------------------
 # B3LYP/6-311++G(d,p) empiricaldispersion=gd3bj scf=xqc pop=npa geom=c
 heck
 ----------------------------------------------------------------------

 ------------------------------------
 CID_62083146_JID_10859_Energie_anion
 ------------------------------------
 Structure from the checkpoint file:  "JID_10859.chk"
 Charge = -1 Multiplicity = 2

                         Standard orientation:
 ---------------------------------------------------------------------
 Center     Atomic      Atomic             Coordinates (Angstroms)
 Number     Number       Type             X           Y           Z
 ---------------------------------------------------------------------
      1          6           0        4.891873   -0.940936    1.743926
      2          6           0        4.775282    0.439438    1.585061
      3          6           0        3.936875    0.966042    0.601001
      4          6           0        3.209130    0.112666   -0.228504
      5          6           0        3.328940   -1.272884   -0.071396
      6          6           0        4.167498   -1.796200    0.910978
      7          6           0        2.296487    0.695183   -1.314803
      8          6           0        0.892501    0.181063   -1.138191
      9          7           0       -0.067128    0.807257   -0.529066
     10          6           0       -1.113651   -0.100538   -0.593614
     11          7           0       -0.807646   -1.221197   -1.211137
     12          8           0        0.544576   -1.031971   -1.583533
     13          6           0       -2.439332    0.166411   -0.027270
     14          6           0       -3.448341   -0.798316   -0.124295
     15          6           0       -4.718595   -0.552171    0.410031
     16          6           0       -4.958592    0.681561    1.042407
     17          6           0       -3.950004    1.635324    1.133959
     18          6           0       -2.684277    1.392090    0.603814
     19          7           0       -5.710063   -1.533174    0.368195
     20          8           0        2.266191    2.106810   -1.327621
     21          1           0        5.544171   -1.349731    2.510365
     22          1           0        5.338798    1.111405    2.226441
     23          1           0        3.849988    2.037315    0.459906
     24          1           0        2.763090   -1.943822   -0.711638
     25          1           0        4.253382   -2.872904    1.026904
     26          1           0        2.662724    0.375649   -2.297761
     27          1           0       -3.237401   -1.743656   -0.615062
     28          1           0       -5.940109    0.881889    1.465268
     29          1           0       -4.155739    2.582256    1.624777
     30          1           0       -1.893385    2.129354    0.669561
     31          1           0       -5.597790   -2.221906   -0.365083
     32          1           0       -6.659310   -1.184350    0.409440
     33          1           0        1.564536    2.377183   -0.708466
 ---------------------------------------------------------------------

 SCF Done:  E(UB3LYP) =  -894.409740775     A.U. after   33 cycles
 SCF Done:  E(UB3LYP) =  -894.409740775     a.u. after    1 cycles

 The electronic state is 2-A.
 Alpha  occ. eigenvalues --  -19.06542 -19.02484 -14.21120 -14.19573 -14.18370
 Alpha  occ. eigenvalues --  -10.13813 -10.13016 -10.08771 -10.08158 -10.07931
 Alpha  occ. eigenvalues --  -10.07874 -10.07836 -10.07489 -10.07233 -10.07184
 Alpha  occ. eigenvalues --  -10.04315 -10.04266 -10.03405 -10.03160 -10.02880
 Alpha  occ. eigenvalues --   -1.01644  -0.93373  -0.80842  -0.79758  -0.76044
 Alpha  occ. eigenvalues --   -0.73342  -0.70705  -0.66764  -0.64911  -0.62174
 Alpha  occ. eigenvalues --   -0.60338  -0.59243  -0.51785  -0.51124  -0.50065
 Alpha  occ. eigenvalues --   -0.48532  -0.46782  -0.46108  -0.42979  -0.41906
 Alpha  occ. eigenvalues --   -0.39855  -0.38434  -0.37107  -0.36146  -0.35508
 Alpha  occ. eigenvalues --   -0.35412  -0.33895  -0.32878  -0.32039  -0.31847
 Alpha  occ. eigenvalues --   -0.30216  -0.29553  -0.27824  -0.27425  -0.26606
 Alpha  occ. eigenvalues --   -0.25904  -0.25468  -0.24411  -0.23488  -0.22019
 Alpha  occ. eigenvalues --   -0.21756  -0.20216  -0.18700  -0.18461  -0.16320
 Alpha  occ. eigenvalues --   -0.15947  -0.15765  -0.15086  -0.11441  -0.09145
 Alpha  occ. eigenvalues --    0.04339
 Alpha virt. eigenvalues --    0.06860   0.07089   0.07620   0.08255   0.08491
 Alpha virt. eigenvalues --    0.09004   0.09322   0.10341   0.10551   0.10968
 Alpha virt. eigenvalues --    0.11920   0.12415   0.12502   0.12845   0.14030

  Beta  occ. eigenvalues --  -19.06257 -19.02479 -14.21127 -14.19000 -14.18462
  Beta  occ. eigenvalues --  -10.13836 -10.12840 -10.08834 -10.08042 -10.07885
  Beta  occ. eigenvalues --  -10.07848 -10.07827 -10.07409 -10.07227 -10.07155
  Beta  occ. eigenvalues --  -10.04232 -10.04192 -10.03201 -10.03136 -10.02719
  Beta  occ. eigenvalues --   -1.01140  -0.93350  -0.80831  -0.79600  -0.75937
  Beta  occ. eigenvalues --   -0.72786  -0.70400  -0.66573  -0.64849  -0.61780
  Beta  occ. eigenvalues --   -0.60131  -0.59059  -0.51341  -0.50982  -0.49904
  Beta  occ. eigenvalues --   -0.48434  -0.46586  -0.45941  -0.42908  -0.41758
  Beta  occ. eigenvalues --   -0.39791  -0.38344  -0.36898  -0.35988  -0.35301
  Beta  occ. eigenvalues --   -0.34796  -0.33820  -0.32756  -0.31826  -0.31528
  Beta  occ. eigenvalues --   -0.30119  -0.29422  -0.27611  -0.27208  -0.26216
  Beta  occ. eigenvalues --   -0.25804  -0.25328  -0.24322  -0.23323  -0.21825
  Beta  occ. eigenvalues --   -0.20985  -0.19921  -0.18611  -0.17991  -0.15771
  Beta  occ. eigenvalues --   -0.15395  -0.15136  -0.14351  -0.09785  -0.08423
  Beta virt. eigenvalues --    0.06798   0.07050   0.08017   0.08347   0.08431
  Beta virt. eigenvalues --    0.08956   0.09331   0.09914   0.10398   0.10557
  Beta virt. eigenvalues --    0.10944   0.12324   0.12449   0.12700   0.13631

 Mulliken charges and spin densities:
               1          2
     1  C   -0.289785  -0.027313
     2  C   -0.334716   0.002945
     3  C   -0.054318   0.009915
     4  C    1.039348   0.012100
     5  C   -0.640690   0.128727
     6  C   -0.341410   0.010828
     7  C   -0.721924  -0.105934
     8  C    0.528017   0.083865
     9  N    0.051930  -0.053015
    10  C   -0.147565   0.035989
    11  N   -0.566206   0.285627
    12  O    0.257470   0.057376
    13  C    0.911663   0.024413
    14  C   -1.086015   0.184688
    15  C   -0.274300  -0.019426
    16  C    0.094887   0.146678
    17  C   -0.376067   0.031986
    18  C   -0.483932   0.025773
    19  N   -0.343480  -0.001156
    20  O   -0.219500   0.000058
    21  H    0.106913   0.001922
    22  H    0.123146   0.021213
    23  H    0.138104   0.013567
    24  H    0.171195   0.016701
    25  H    0.123782   0.026873
    26  H    0.129927   0.106918
    27  H    0.168108  -0.011270
    28  H    0.086996  -0.013141
    29  H    0.122063  -0.002159
    30  H    0.125216   0.001062
    31  H    0.223047  -0.000448
    32  H    0.215719   0.007878
    33  H    0.262378  -0.003240
 Sum of Mulliken charges =  -1.00000   1.00000

 Dipole moment (field-independent basis, Debye):
    X=              1.8561    Y=              0.0701    Z=              0.8685  Tot=              2.0504
 Quadrupole moment (field-independent basis, Debye-Ang):
   XX=           -163.8725   YY=           -129.4604   ZZ=           -133.7394
   XY=              0.7046   XZ=              8.6324   YZ=              3.6004

 Summary of Natural Population Analysis:

                                       Natural Population
                Natural  -----------------------------------------------
    Atom  No    Charge         Core      Valence    Rydberg      Total
 -----------------------------------------------------------------------
      C    1   -0.09755      0.99957     2.08906    0.00892     3.09755
      C    2   -0.10223      0.99957     2.09366    0.00900     3.10223
      C    3   -0.10226      0.99951     2.09408    0.00867     3.10226
      C    4   -0.00979      0.99948     1.99887    0.01144     3.00979
      C    5   -0.09638      0.99952     2.08804    0.00882     3.09638
      C    6   -0.10426      0.99958     2.09513    0.00955     3.10426
      C    7    0.03549      0.99948     1.94697    0.01806     2.96451
      C    8    0.29618      0.99960     1.68549    0.01873     2.70382
      N    9   -0.29895      0.99965     2.79109    0.00821     3.79895
      C   10    0.17140      0.99962     1.81131    0.01767     2.82860
      N   11   -0.01900      0.99967     2.50538    0.01395     3.51900
      O   12   -0.15779      0.99985     3.14848    0.00946     4.15779
      C   13   -0.01268      0.99938     2.00346    0.00985     3.01268
      C   14   -0.08007      0.99943     2.07262    0.00802     3.08007
      C   15    0.06580      0.99951     1.92463    0.01007     2.93420
      C   16   -0.09737      0.99953     2.08872    0.00912     3.09737
      C   17   -0.10021      0.99960     2.09079    0.00982     3.10021
      C   18   -0.09911      0.99945     2.09084    0.00882     3.09911
      N   19   -0.40503      0.99972     2.89570    0.00962     3.90503
      O   20   -0.36776      0.99990     3.36168    0.00618     4.36776
      H   21    0.09419      0.00000     0.40487    0.00094     0.40581
      H   22    0.09440      0.00000     0.40418    0.00143     0.40560
      H   23    0.10738      0.00000     0.39153    0.00109     0.39262
      H   24    0.10920      0.00000     0.38935    0.00145     0.39080
      H   25    0.09614      0.00000     0.40273    0.00114     0.40386
      H   26    0.10103      0.00000     0.39726    0.00171     0.39897
      H   27    0.10129      0.00000     0.39709    0.00162     0.39871
      H   28    0.08591      0.00000     0.41246    0.00162     0.41409
      H   29    0.09016      0.00000     0.40867    0.00117     0.40984
      H   30    0.10312      0.00000     0.39520    0.00168     0.39688
      H   31    0.18064      0.00000     0.31790    0.00146     0.31936
      H   32    0.17806      0.00000     0.32045    0.00148     0.32194
      H   33    0.24004      0.00000     0.25738    0.00258     0.25996
 =======================================================================
   * Total *    0.00000     19.99160    49.77504    0.23335    70.00000

 Normal termination of Gaussian 16 at Sat Dec 12 18:17:30 2020.
