 Gaussian 16, Revision A.03,

 -----------------------------------------------------------
 # opt freq B3LYP/6-31G(d) empiricaldispersion=gd3bj scf=xqc
 -----------------------------------------------------------

 ------------------------------
 CID_140071298_JID_988_neutraal
 ------------------------------
 Symbolic Z-matrix:
 Charge =  0 Multiplicity = 1

 SCF Done:  E(RB3LYP) =  -787.915409986     A.U. after   14 cycles
 SCF Done:  E(RB3LYP) =  -787.918095257     A.U. after   12 cycles
 SCF Done:  E(RB3LYP) =  -787.918553294     A.U. after   10 cycles
 SCF Done:  E(RB3LYP) =  -787.918628414     A.U. after   11 cycles
 SCF Done:  E(RB3LYP) =  -787.918643438     A.U. after    9 cycles
 SCF Done:  E(RB3LYP) =  -787.918646691     A.U. after    8 cycles
 SCF Done:  E(RB3LYP) =  -787.918647318     A.U. after    8 cycles
 SCF Done:  E(RB3LYP) =  -787.918647469     A.U. after    7 cycles
 SCF Done:  E(RB3LYP) =  -787.918647506     A.U. after    7 cycles
 Optimization completed.
    -- Stationary point found.
 Normal termination of Gaussian 16 at Tue Dec  8 13:17:21 2020.

 --------------------------------------------------------------------
 #N Geom=AllCheck Guess=TCheck SCRF=Check GenChk RB3LYP/6-31G(d) Freq
 --------------------------------------------------------------------

 Structure from the checkpoint file:  "JID_988.chk"
 ------------------------------
 CID_140071298_JID_988_neutraal
 ------------------------------
 Charge =  0 Multiplicity = 1

 SCF Done:  E(RB3LYP) =  -787.918647506     A.U. after    1 cycles

  Exact polarizability: 112.894   1.834  99.405  -2.624  -0.595  93.148
 Approx polarizability: 144.716   6.128 158.853  -3.816   8.067 144.984

                      1                      2                      3
                      A                      A                      A
 Frequencies --     54.8116                96.3599               145.2177
 Red. masses --      2.4565                 2.4183                 4.2026
 Frc consts  --      0.0043                 0.0132                 0.0522
 IR Inten    --      0.3278                 0.8108                 7.9106

                      4                      5                      6
                      A                      A                      A
 Frequencies --    184.6163               196.8205               238.9017
 Red. masses --      2.1816                 2.4814                 1.1334
 Frc consts  --      0.0438                 0.0566                 0.0381
 IR Inten    --      0.0761                 3.1442                 0.0811

                      7                      8                      9
                      A                      A                      A
 Frequencies --    245.4786               269.7616               300.3071
 Red. masses --      1.5902                 2.5217                 2.8930
 Frc consts  --      0.0565                 0.1081                 0.1537
 IR Inten    --      1.6589                 2.0868                 0.9938

                     10                     11                     12
                      A                      A                      A
 Frequencies --    310.5457               355.7102               399.5346
 Red. masses --      2.2779                 3.1058                 2.8985
 Frc consts  --      0.1294                 0.2315                 0.2726
 IR Inten    --      0.2366                 3.7277                 1.5490

                     13                     14                     15
                      A                      A                      A
 Frequencies --    423.2847               451.0182               478.7667
 Red. masses --      1.7773                 3.8067                 5.3452
 Frc consts  --      0.1876                 0.4562                 0.7219
 IR Inten    --      0.5849                 2.4043                 5.8134

                     16                     17                     18
                      A                      A                      A
 Frequencies --    573.7943               632.8783               688.7304
 Red. masses --      4.1448                 2.2444                 3.7266
 Frc consts  --      0.8040                 0.5296                 1.0415
 IR Inten    --      5.8966                 5.1385                 4.9505

                     19                     20                     21
                      A                      A                      A
 Frequencies --    784.5524               812.0569               847.2978
 Red. masses --      1.8500                 1.3454                 2.1506
 Frc consts  --      0.6709                 0.5227                 0.9097
 IR Inten    --      0.0884                 0.9885                 0.2289

                     22                     23                     24
                      A                      A                      A
 Frequencies --    878.9315               925.8016               944.8444
 Red. masses --      1.6548                 1.9121                 1.9841
 Frc consts  --      0.7532                 0.9656                 1.0436
 IR Inten    --      2.4756                 0.7819                 2.3157

                     25                     26                     27
                      A                      A                      A
 Frequencies --    977.9156               987.4150              1044.1419
 Red. masses --      1.4121                 1.6835                 2.7362
 Frc consts  --      0.7956                 0.9671                 1.7576
 IR Inten    --      9.9953                 0.8656                12.0360

                     28                     29                     30
                      A                      A                      A
 Frequencies --   1052.1859              1067.5150              1077.2739
 Red. masses --      4.1791                 1.7488                 1.5354
 Frc consts  --      2.7259                 1.1742                 1.0498
 IR Inten    --     69.7559                14.5039                 3.0953

                     31                     32                     33
                      A                      A                      A
 Frequencies --   1102.8749              1119.5704              1131.8279
 Red. masses --      2.3088                 1.3246                 1.6523
 Frc consts  --      1.6546                 0.9782                 1.2471
 IR Inten    --      1.1653                 9.0049                 2.9839

                     34                     35                     36
                      A                      A                      A
 Frequencies --   1161.6506              1198.0708              1240.8661
 Red. masses --      1.9839                 1.8425                 1.3805
 Frc consts  --      1.5773                 1.5582                 1.2524
 IR Inten    --      3.5414                 0.6961                 3.2344

                     37                     38                     39
                      A                      A                      A
 Frequencies --   1272.6129              1286.4070              1298.8769
 Red. masses --      1.3693                 1.3291                 1.2635
 Frc consts  --      1.3066                 1.2959                 1.2559
 IR Inten    --      0.9939                 1.3397                 1.8043

                     40                     41                     42
                      A                      A                      A
 Frequencies --   1329.4921              1345.2293              1360.2855
 Red. masses --      1.2608                 1.2429                 1.2563
 Frc consts  --      1.3130                 1.3252                 1.3697
 IR Inten    --      2.7305                 2.9114                 1.1055

                     43                     44                     45
                      A                      A                      A
 Frequencies --   1395.1285              1397.8021              1414.8773
 Red. masses --      1.4103                 1.4718                 1.4073
 Frc consts  --      1.6173                 1.6943                 1.6599
 IR Inten    --      0.5240                 2.1125                 0.7501

                     46                     47                     48
                      A                      A                      A
 Frequencies --   1421.5562              1439.3423              1446.2003
 Red. masses --      1.4866                 1.2306                 1.2320
 Frc consts  --      1.7699                 1.5021                 1.5182
 IR Inten    --      0.4281                 1.0766                 3.7043

                     49                     50                     51
                      A                      A                      A
 Frequencies --   1483.8272              1512.0355              1523.0387
 Red. masses --      1.1025                 1.0833                 1.0591
 Frc consts  --      1.4301                 1.4592                 1.4474
 IR Inten    --      2.7804                10.5787                 0.5250

                     52                     53                     54
                      A                      A                      A
 Frequencies --   1523.9921              1527.1111              1529.5154
 Red. masses --      1.0865                 1.0444                 1.0410
 Frc consts  --      1.4868                 1.4351                 1.4349
 IR Inten    --      2.8044                 7.0154                 7.9341

                     55                     56                     57
                      A                      A                      A
 Frequencies --   1530.8452              1538.2906              3026.6865
 Red. masses --      1.0588                 1.0715                 1.0646
 Frc consts  --      1.4619                 1.4939                 5.7459
 IR Inten    --      3.1940                 6.3756                13.2011

                     58                     59                     60
                      A                      A                      A
 Frequencies --   3038.0638              3038.5063              3044.6960
 Red. masses --      1.0672                 1.0384                 1.0697
 Frc consts  --      5.8034                 5.6487                 5.8424
 IR Inten    --     12.2456                36.6082                37.2206

                     61                     62                     63
                      A                      A                      A
 Frequencies --   3053.4055              3053.7621              3056.9852
 Red. masses --      1.0427                 1.0735                 1.0790
 Frc consts  --      5.7276                 5.8982                 5.9409
 IR Inten    --     13.2934                17.3786                19.6391

                     64                     65                     66
                      A                      A                      A
 Frequencies --   3064.1235              3073.2291              3086.3483
 Red. masses --      1.0640                 1.0977                 1.0924
 Frc consts  --      5.8856                 6.1084                 6.1311
 IR Inten    --      9.0135                31.7220                25.1131

                     67                     68                     69
                      A                      A                      A
 Frequencies --   3100.8194              3104.4007              3113.1021
 Red. masses --      1.0981                 1.1007                 1.1029
 Frc consts  --      6.2208                 6.2502                 6.2977
 IR Inten    --      5.1211                42.4688                22.2913

                     70                     71                     72
                      A                      A                      A
 Frequencies --   3117.8352              3120.9105              3128.1870
 Red. masses --      1.1039                 1.1020                 1.1025
 Frc consts  --      6.3227                 6.3238                 6.3565
 IR Inten    --     26.5262                42.8924                33.1585

 - Thermochemistry -
 -------------------
 Temperature   298.150 Kelvin.  Pressure   1.00000 Atm.
 Atom     1 has atomic number  6 and mass  12.00000

 Molecular mass:   160.09219 amu.
 Principal axes and moments of inertia in atomic units:
                           1         2         3
     Eigenvalues --  1187.048592044.207742383.65264
           X            0.99994   0.01071  -0.00175
           Y           -0.01074   0.99980  -0.01712
           Z            0.00156   0.01714   0.99985
 This molecule is an asymmetric top.
 Rotational symmetry number  1.
 Warning -- assumption of classical behavior for rotation
           may cause significant error
 Rotational temperatures (Kelvin)      0.07297     0.04237     0.03634
 Rotational constants (GHZ):           1.52036     0.88286     0.75713
 Zero-point vibrational energy     611284.9 (Joules/Mol)
                                  146.10060 (Kcal/Mol)
 Warning -- explicit consideration of  16 degrees of freedom as
           vibrations may cause significant error
 Vibrational temperatures:     78.86   138.64   208.94   265.62   283.18
          (Kelvin)            343.73   353.19   388.13   432.07   446.81
                              511.79   574.84   609.01   648.91   688.84
                              825.56   910.57   990.93  1128.80  1168.37
                             1219.07  1264.59  1332.02  1359.42  1407.00
                             1420.67  1502.29  1513.86  1535.92  1549.96
                             1586.79  1610.81  1628.45  1671.36  1723.76
                             1785.33  1831.01  1850.85  1868.79  1912.84
                             1935.48  1957.15  2007.28  2011.13  2035.69
                             2045.30  2070.89  2080.76  2134.90  2175.48
                             2191.31  2192.68  2197.17  2200.63  2202.54
                             2213.26  4354.73  4371.10  4371.73  4380.64
                             4393.17  4393.68  4398.32  4408.59  4421.69
                             4440.57  4461.39  4466.54  4479.06  4485.87
                             4490.29  4500.76

 Zero-point correction=                           0.232826 (Hartree/Particle)
 Thermal correction to Energy=                    0.244033
 Thermal correction to Enthalpy=                  0.244977
 Thermal correction to Gibbs Free Energy=         0.196339
 Sum of electronic and zero-point Energies=           -787.685821
 Sum of electronic and thermal Energies=              -787.674614
 Sum of electronic and thermal Enthalpies=            -787.673670
 Sum of electronic and thermal Free Energies=         -787.722309

                     E (Thermal)             CV                S
                      KCal/Mol        Cal/Mol-Kelvin    Cal/Mol-Kelvin
 Total                  153.133             42.914            102.369
 Electronic               0.000              0.000              0.000
 Translational            0.889              2.981             41.121
 Rotational               0.889              2.981             30.137
 Vibrational            151.356             36.952             31.111
 Vibration     1          0.596              1.976              4.636
 Vibration     2          0.603              1.952              3.527
 Vibration     3          0.617              1.908              2.734
 Vibration     4          0.631              1.861              2.281
 Vibration     5          0.636              1.844              2.163
 Vibration     6          0.657              1.781              1.811
 Vibration     7          0.660              1.770              1.763
 Vibration     8          0.674              1.729              1.598
 Vibration     9          0.693              1.673              1.415
 Vibration    10          0.699              1.654              1.359
 Vibration    11          0.731              1.564              1.141
 Vibration    12          0.766              1.471              0.964
 Vibration    13          0.785              1.420              0.881
 Vibration    14          0.810              1.359              0.793
 Vibration    15          0.835              1.297              0.713
 Vibration    16          0.930              1.088              0.497

 Optimization completed.
    -- Stationary point found.
 Normal termination of Gaussian 16 at Tue Dec  8 13:27:17 2020.

 ----------------------------------------------------------------------
 # B3LYP/6-311++G(d,p) empiricaldispersion=gd3bj scf=xqc pop=npa geom=c
 heck
 ----------------------------------------------------------------------

 --------------------------------------
 CID_140071298_JID_988_Energie_neutraal
 --------------------------------------
 Structure from the checkpoint file:  "JID_988.chk"
 Charge =  0 Multiplicity = 1

 SCF Done:  E(RB3LYP) =  -788.058626555     A.U. after   14 cycles
 Normal termination of Gaussian 16 at Tue Dec  8 13:31:24 2020.

 ----------------------------------------------------------------------
 # B3LYP/6-311++G(d,p) empiricaldispersion=gd3bj scf=xqc pop=npa geom=c
 heck
 ----------------------------------------------------------------------

 ------------------------------------
 CID_140071298_JID_988_Energie_kation
 ------------------------------------
 Structure from the checkpoint file:  "JID_988.chk"
 Charge =  1 Multiplicity = 2

 SCF Done:  E(UB3LYP) =  -787.755940381     A.U. after   20 cycles
 Normal termination of Gaussian 16 at Tue Dec  8 13:40:17 2020.
 Gaussian 16:  ES64L-G16RevA.03 25-Dec-2016

 ----------------------------------------------------------------------
 # B3LYP/6-311++G(d,p) empiricaldispersion=gd3bj scf=xqc pop=npa geom=c
 heck
 ----------------------------------------------------------------------

 -----------------------------------
 CID_140071298_JID_988_Energie_anion
 -----------------------------------
 Structure from the checkpoint file:  "JID_988.chk"
 Charge = -1 Multiplicity = 2

                         Standard orientation:
 ---------------------------------------------------------------------
 Center     Atomic      Atomic             Coordinates (Angstroms)
 Number     Number       Type             X           Y           Z
 ---------------------------------------------------------------------
      1          6           0       -3.059800   -0.719577   -0.924766
      2          6           0       -1.814476   -1.242320   -0.201108
      3          6           0       -1.137783   -0.209655    0.707357
      4          6           0        0.009317   -0.744383    1.570918
      5          6           0        1.222408   -1.240796    0.772734
      6          6           0        1.869743   -0.143455   -0.087244
      7          6           0        0.868147    0.452718   -1.078965
      8         16           0       -0.545019    1.289703   -0.233383
      9          8           0        0.063375    2.213347    0.809471
     10          6           0        3.104824   -0.665416   -0.827625
     11          1           0       -3.792115   -0.328058   -0.209046
     12          1           0       -3.542611   -1.519586   -1.495713
     13          1           0       -2.815879    0.089408   -1.620797
     14          1           0       -2.093464   -2.093938    0.434491
     15          1           0       -1.101137   -1.641066   -0.931377
     16          1           0       -1.897800    0.230519    1.365389
     17          1           0        0.326095    0.062926    2.240108
     18          1           0       -0.382303   -1.553061    2.201845
     19          1           0        0.938906   -2.086301    0.129356
     20          1           0        1.971769   -1.629296    1.473538
     21          1           0        2.173859    0.674581    0.578389
     22          1           0        0.453215   -0.300597   -1.759456
     23          1           0        1.331932    1.236725   -1.686651
     24          1           0        3.583852    0.127537   -1.413120
     25          1           0        3.845688   -1.056441   -0.120590
     26          1           0        2.839024   -1.478069   -1.515809
 ---------------------------------------------------------------------

 SCF Done:  E(UB3LYP) =  -788.045339363     A.U. after   27 cycles

 The electronic state is 2-A.
 Alpha  occ. eigenvalues --  -88.83407 -18.97416 -10.10008 -10.09374 -10.07998
 Alpha  occ. eigenvalues --  -10.07387 -10.07003 -10.06569 -10.06190 -10.06074
 Alpha  occ. eigenvalues --   -7.91191  -5.87459  -5.87303  -5.86787  -0.90249
 Alpha  occ. eigenvalues --   -0.74254  -0.70089  -0.65237  -0.63699  -0.58563
 Alpha  occ. eigenvalues --   -0.53018  -0.52151  -0.48977  -0.43963  -0.39425
 Alpha  occ. eigenvalues --   -0.36078  -0.35822  -0.34898  -0.33656  -0.33108
 Alpha  occ. eigenvalues --   -0.31067  -0.29829  -0.28668  -0.28146  -0.27419
 Alpha  occ. eigenvalues --   -0.27327  -0.26052  -0.24820  -0.24090  -0.22393
 Alpha  occ. eigenvalues --   -0.22083  -0.21667  -0.15953  -0.12511   0.04536
 Alpha virt. eigenvalues --    0.06746   0.07501   0.08504   0.09040   0.09457
 Alpha virt. eigenvalues --    0.10040   0.10701   0.11312   0.11829   0.12057
 Alpha virt. eigenvalues --    0.12666   0.12994   0.13866   0.13996   0.14400

  Beta  occ. eigenvalues --  -88.83402 -18.97407 -10.10005 -10.09343 -10.07996
  Beta  occ. eigenvalues --  -10.07350 -10.06990 -10.06547 -10.06153 -10.06038
  Beta  occ. eigenvalues --   -7.91186  -5.87456  -5.87291  -5.86783  -0.90229
  Beta  occ. eigenvalues --   -0.74225  -0.70055  -0.65196  -0.63652  -0.58501
  Beta  occ. eigenvalues --   -0.52939  -0.52088  -0.48913  -0.43905  -0.39384
  Beta  occ. eigenvalues --   -0.36043  -0.35772  -0.34856  -0.33620  -0.33061
  Beta  occ. eigenvalues --   -0.31023  -0.29787  -0.28634  -0.28107  -0.27382
  Beta  occ. eigenvalues --   -0.27286  -0.25985  -0.24777  -0.24051  -0.22363
  Beta  occ. eigenvalues --   -0.22044  -0.21632  -0.15908  -0.12492
  Beta virt. eigenvalues --    0.07017   0.07645   0.08301   0.09114   0.09571
  Beta virt. eigenvalues --    0.10002   0.10751   0.11065   0.11691   0.12256
  Beta virt. eigenvalues --    0.12453   0.13032   0.13258   0.14158   0.14442

 Mulliken charges and spin densities:
               1          2
     1  C    1.066452  -1.670151
     2  C    0.015382  -0.432872
     3  C   -0.720418   0.810441
     4  C    0.211040  -0.723970
     5  C    0.982944  -1.251686
     6  C   -2.438619   2.896344
     7  C    0.599551  -1.729301
     8  S    1.119364  -0.368150
     9  O   -0.492573   0.014517
    10  C    0.991700  -1.713038
    11  H   -0.108257   0.236098
    12  H   -0.488750   0.641773
    13  H   -0.159616   0.304641
    14  H   -0.547867   0.713233
    15  H   -0.015237   0.171002
    16  H    0.051614   0.260659
    17  H    0.202944  -0.034564
    18  H   -0.268984   0.450314
    19  H   -0.224361   0.397137
    20  H   -0.114396   0.282922
    21  H    0.163698   0.045501
    22  H   -0.370577   0.575384
    23  H    0.292569  -0.039180
    24  H   -0.217948   0.344766
    25  H   -0.348852   0.488236
    26  H   -0.180803   0.329943
 Sum of Mulliken charges =  -1.00000   1.00000

 Dipole moment (field-independent basis, Debye):
    X=              0.8158    Y=              4.0936    Z=              1.0620  Tot=              4.3071
 Quadrupole moment (field-independent basis, Debye-Ang):
   XX=           -128.1497   YY=           -122.8159   ZZ=           -107.6470
   XY=             -4.6475   XZ=             -0.9436   YZ=             -5.3043

 Summary of Natural Population Analysis:

                                       Natural Population
                Natural  -----------------------------------------------
    Atom  No    Charge         Core      Valence    Rydberg      Total
 -----------------------------------------------------------------------
      C    1   -0.28628      0.99966     2.27995    0.00667     3.28628
      C    2   -0.20232      0.99960     2.19271    0.01002     3.20232
      C    3   -0.18019      0.99955     2.16512    0.01551     3.18019
      C    4   -0.19894      0.99959     2.18863    0.01072     3.19894
      C    5   -0.18989      0.99960     2.18024    0.01005     3.18989
      C    6   -0.12427      0.99958     2.11476    0.00993     3.12427
      C    7   -0.27358      0.99956     2.26119    0.01283     3.27358
      S    8    0.58107      4.99940     2.36757    0.05196     7.41893
      O    9   -0.49203      0.99993     3.48636    0.00574     4.49203
      C   10   -0.28093      0.99965     2.27524    0.00605     3.28093
      H   11    0.09581      0.00000     0.40296    0.00123     0.40419
      H   12    0.10377      0.00000     0.39486    0.00138     0.39623
      H   13    0.09723      0.00000     0.40085    0.00192     0.40277
      H   14    0.10615      0.00000     0.39098    0.00287     0.39385
      H   15    0.10118      0.00000     0.39636    0.00246     0.39882
      H   16    0.10680      0.00000     0.39192    0.00128     0.39320
      H   17    0.10868      0.00000     0.39006    0.00126     0.39132
      H   18    0.10494      0.00000     0.39385    0.00121     0.39506
      H   19    0.09812      0.00000     0.39980    0.00208     0.40188
      H   20    0.10200      0.00000     0.39694    0.00106     0.39800
      H   21    0.10496      0.00000     0.39323    0.00181     0.39504
      H   22    0.10962      0.00000     0.38799    0.00240     0.39038
      H   23    0.10878      0.00000     0.39000    0.00122     0.39122
      H   24    0.09820      0.00000     0.40083    0.00097     0.40180
      H   25    0.10093      0.00000     0.39796    0.00111     0.39907
      H   26    0.10018      0.00000     0.39837    0.00145     0.39982
 =======================================================================
   * Total *   -0.00000     13.99613    29.83872    0.16515    44.00000

 Normal termination of Gaussian 16 at Tue Dec  8 13:49:57 2020.
