 Gaussian 16, Revision A.03,

 -----------------------------------------------------------
 # opt freq B3LYP/6-31G(d) empiricaldispersion=gd3bj scf=xqc
 -----------------------------------------------------------

 -----------------------------
 CID_85856592_JID_539_neutraal
 -----------------------------
 Symbolic Z-matrix:
 Charge =  0 Multiplicity = 1

 SCF Done:  E(RB3LYP) =  -537.919481451     A.U. after   13 cycles
 SCF Done:  E(RB3LYP) =  -537.923439778     A.U. after   11 cycles
 SCF Done:  E(RB3LYP) =  -537.921402029     A.U. after   12 cycles
 SCF Done:  E(RB3LYP) =  -537.923304326     A.U. after   11 cycles
 SCF Done:  E(RB3LYP) =  -537.924951552     A.U. after    9 cycles
 SCF Done:  E(RB3LYP) =  -537.926109050     A.U. after   11 cycles
 SCF Done:  E(RB3LYP) =  -537.926269769     A.U. after   10 cycles
 SCF Done:  E(RB3LYP) =  -537.926419289     A.U. after   10 cycles
 SCF Done:  E(RB3LYP) =  -537.926532677     A.U. after   10 cycles
 SCF Done:  E(RB3LYP) =  -537.926583679     A.U. after    9 cycles
 SCF Done:  E(RB3LYP) =  -537.928726061     A.U. after    9 cycles
 SCF Done:  E(RB3LYP) =  -537.928735632     A.U. after    9 cycles
 SCF Done:  E(RB3LYP) =  -537.928742529     A.U. after    8 cycles
 SCF Done:  E(RB3LYP) =  -537.928747688     A.U. after    9 cycles
 SCF Done:  E(RB3LYP) =  -537.928748463     A.U. after    7 cycles
 SCF Done:  E(RB3LYP) =  -537.928748837     A.U. after    7 cycles
 Optimization completed.
    -- Stationary point found.

 1\1\GINC-NODE370\FOpt\RB3LYP\6-31G(d)\C6H14O4\VSC10255\08-Dec-2020\0\\
 # opt freq B3LYP/6-31G(d) empiricaldispersion=gd3bj scf=xqc\\CID_85856
 592_JID_539_neutraal\\0,1\C,1.1192437563,0.1564530036,-0.0518547981\O,
 0.2321735097,0.237845307,-1.1584096459\C,0.7394716246,0.6741085014,-2.
 4015544193\C,0.6094598542,2.2201498158,-2.5992845932\C,0.7595079309,3.
 1170059843,-1.3751073945\O,2.1227291784,3.1936167807,-0.946788683\C,1.
 4426363812,2.7053454683,-3.7994207258\O,1.2987572955,1.8638662967,-4.9
 340692805\O,1.9777868934,0.1048642668,-2.7931634879\C,3.2207700302,0.5

 Normal termination of Gaussian 16 at Tue Dec  8 12:42:26 2020.

 --------------------------------------------------------------------
 #N Geom=AllCheck Guess=TCheck SCRF=Check GenChk RB3LYP/6-31G(d) Freq
 --------------------------------------------------------------------

 Structure from the checkpoint file:  "JID_539.chk"
 -----------------------------
 CID_85856592_JID_539_neutraal
 -----------------------------
 Charge =  0 Multiplicity = 1

 SCF Done:  E(RB3LYP) =  -537.928748837     A.U. after    1 cycles

  Exact polarizability:  81.529  -0.083  76.252  -1.840  -3.220  72.077
 Approx polarizability: 103.835  -2.088 103.488  -3.042  -1.723 104.693

                      1                      2                      3
                      A                      A                      A
 Frequencies --     82.4053               107.3927               137.3053
 Red. masses --      2.7874                 3.4710                 5.1956
 Frc consts  --      0.0112                 0.0236                 0.0577
 IR Inten    --      1.3228                 1.1025                 4.1402

                      4                      5                      6
                      A                      A                      A
 Frequencies --    153.2840               158.2277               193.6673
 Red. masses --      3.3212                 1.4118                 3.7816
 Frc consts  --      0.0460                 0.0208                 0.0836
 IR Inten    --     15.2162                 0.9607                 0.5203

                      7                      8                      9
                      A                      A                      A
 Frequencies --    205.6881               250.9639               261.3214
 Red. masses --      2.9101                 1.4974                 3.1397
 Frc consts  --      0.0725                 0.0556                 0.1263
 IR Inten    --      5.7300                47.1462                 1.7905

                     10                     11                     12
                      A                      A                      A
 Frequencies --    280.8800               284.2270               289.3396
 Red. masses --      1.5356                 3.2909                 1.2974
 Frc consts  --      0.0714                 0.1566                 0.0640
 IR Inten    --     75.1306                 3.2920                 0.4958

                     13                     14                     15
                      A                      A                      A
 Frequencies --    309.0580               392.0069               448.3173
 Red. masses --      2.2030                 4.5359                 3.9508
 Frc consts  --      0.1240                 0.4107                 0.4679
 IR Inten    --      1.6497                 3.7952                20.2878

                     16                     17                     18
                      A                      A                      A
 Frequencies --    548.3884               606.7619               622.3932
 Red. masses --      3.6018                 2.3603                 1.3714
 Frc consts  --      0.6382                 0.5120                 0.3130
 IR Inten    --      4.0073                48.3911                96.6794

                     19                     20                     21
                      A                      A                      A
 Frequencies --    682.4809               815.9471               904.0777
 Red. masses --      3.6479                 2.8647                 3.5361
 Frc consts  --      1.0011                 1.1237                 1.7029
 IR Inten    --      5.0588                 7.8948                21.2310

                     22                     23                     24
                      A                      A                      A
 Frequencies --    938.4171               952.8982               990.5794
 Red. masses --      1.7326                 4.2958                 2.4446
 Frc consts  --      0.8990                 2.2982                 1.4133
 IR Inten    --     15.7218                30.1000                39.4277

                     25                     26                     27
                      A                      A                      A
 Frequencies --   1050.8728              1085.1176              1098.5890
 Red. masses --      2.5623                 5.6880                 4.2132
 Frc consts  --      1.6672                 3.9461                 2.9959
 IR Inten    --     17.4981                81.8140               194.5993

                     28                     29                     30
                      A                      A                      A
 Frequencies --   1129.9812              1149.4114              1182.8477
 Red. masses --      2.3969                 3.0485                 1.8630
 Frc consts  --      1.8032                 2.3730                 1.5358
 IR Inten    --     29.2966                87.9976                65.1336

                     31                     32                     33
                      A                      A                      A
 Frequencies --   1191.5425              1203.3887              1214.8723
 Red. masses --      1.2563                 1.4154                 1.4326
 Frc consts  --      1.0509                 1.2076                 1.2458
 IR Inten    --      4.9923                29.9408                57.9718

                     34                     35                     36
                      A                      A                      A
 Frequencies --   1238.9008              1248.3824              1265.1335
 Red. masses --      1.4752                 1.5012                 1.3411
 Frc consts  --      1.3341                 1.3785                 1.2646
 IR Inten    --     28.1254                10.1095                85.7193

                     37                     38                     39
                      A                      A                      A
 Frequencies --   1294.5615              1355.5178              1400.2904
 Red. masses --      1.1262                 1.3081                 1.2577
 Frc consts  --      1.1120                 1.4162                 1.4530
 IR Inten    --     10.1450                 3.1595                 3.7492

                     40                     41                     42
                      A                      A                      A
 Frequencies --   1405.6029              1423.5801              1452.3525
 Red. masses --      1.2271                 1.3183                 1.2892
 Frc consts  --      1.4284                 1.5741                 1.6022
 IR Inten    --     10.2158                11.9408                67.1460

                     43                     44                     45
                      A                      A                      A
 Frequencies --   1463.0690              1469.4347              1505.4316
 Red. masses --      1.1481                 1.3721                 1.1546
 Frc consts  --      1.4480                 1.7455                 1.5416
 IR Inten    --      7.4610                 1.9487                 1.8429

                     46                     47                     48
                      A                      A                      A
 Frequencies --   1519.9468              1523.8928              1539.0413
 Red. masses --      1.0558                 1.1316                 1.0650
 Frc consts  --      1.4370                 1.5483                 1.4863
 IR Inten    --      0.3376                 0.1016                 6.1357

                     49                     50                     51
                      A                      A                      A
 Frequencies --   1539.8561              1550.7512              1552.9446
 Red. masses --      1.0523                 1.0713                 1.0726
 Frc consts  --      1.4702                 1.5179                 1.5240
 IR Inten    --     12.1291                 2.1202                 1.6658

                     52                     53                     54
                      A                      A                      A
 Frequencies --   1562.7874              3009.2464              3035.1372
 Red. masses --      1.0485                 1.0639                 1.0824
 Frc consts  --      1.5087                 5.6763                 5.8748
 IR Inten    --      2.7165                51.7652                20.8043

                     55                     56                     57
                      A                      A                      A
 Frequencies --   3038.8255              3047.9341              3051.2095
 Red. masses --      1.0328                 1.0534                 1.0421
 Frc consts  --      5.6191                 5.7656                 5.7162
 IR Inten    --     24.1068                28.7806               100.2512

                     58                     59                     60
                      A                      A                      A
 Frequencies --   3059.2951              3096.2181              3104.3984
 Red. masses --      1.0998                 1.1037                 1.1039
 Frc consts  --      6.0644                 6.2339                 6.2681
 IR Inten    --     46.4538                55.5586                41.4722

                     61                     62                     63
                      A                      A                      A
 Frequencies --   3109.2298              3110.1403              3136.9978
 Red. masses --      1.1054                 1.0890                 1.1043
 Frc consts  --      6.2960                 6.2062                 6.4026
 IR Inten    --     34.1698                32.6703                26.2553

                     64                     65                     66
                      A                      A                      A
 Frequencies --   3175.8052              3687.2066              3756.9972
 Red. masses --      1.1027                 1.0654                 1.0665
 Frc consts  --      6.5526                 8.5338                 8.8694
 IR Inten    --      0.2700                59.9388                21.7220

 - Thermochemistry -
 -------------------
 Temperature   298.150 Kelvin.  Pressure   1.00000 Atm.
 Atom     1 has atomic number  6 and mass  12.00000

 Molecular mass:   150.08921 amu.
 Principal axes and moments of inertia in atomic units:
                           1         2         3
     Eigenvalues --  1197.796191570.074881932.51031
           X            0.99977   0.01768  -0.01234
           Y           -0.01836   0.99818  -0.05745
           Z            0.01130   0.05767   0.99827
 This molecule is an asymmetric top.
 Rotational symmetry number  1.
 Warning -- assumption of classical behavior for rotation
           may cause significant error
 Rotational temperatures (Kelvin)      0.07231     0.05517     0.04482
 Rotational constants (GHZ):           1.50672     1.14946     0.93388
 Zero-point vibrational energy     554186.6 (Joules/Mol)
                                  132.45378 (Kcal/Mol)
 Warning -- explicit consideration of  17 degrees of freedom as
           vibrations may cause significant error
 Vibrational temperatures:    118.56   154.51   197.55   220.54   227.65
          (Kelvin)            278.64   295.94   361.08   375.98   404.12
                              408.94   416.30   444.67   564.01   645.03
                              789.01   873.00   895.49   981.94  1173.97
                             1300.77  1350.17  1371.01  1425.22  1511.97
                             1561.24  1580.62  1625.79  1653.75  1701.85
                             1714.36  1731.41  1747.93  1782.50  1796.14
                             1820.24  1862.59  1950.29  2014.71  2022.35
                             2048.21  2089.61  2105.03  2114.19  2165.98
                             2186.86  2192.54  2214.34  2215.51  2231.19
                             2234.34  2248.50  4329.63  4366.89  4372.19
                             4385.30  4390.01  4401.64  4454.77  4466.54
                             4473.49  4474.80  4513.44  4569.28  5305.07
                             5405.48

 Zero-point correction=                           0.211079 (Hartree/Particle)
 Thermal correction to Energy=                    0.222918
 Thermal correction to Enthalpy=                  0.223863
 Thermal correction to Gibbs Free Energy=         0.174301
 Sum of electronic and zero-point Energies=           -537.717670
 Sum of electronic and thermal Energies=              -537.705830
 Sum of electronic and thermal Enthalpies=            -537.704886
 Sum of electronic and thermal Free Energies=         -537.754448

                     E (Thermal)             CV                S
                      KCal/Mol        Cal/Mol-Kelvin    Cal/Mol-Kelvin
 Total                  139.883             42.879            104.312
 Electronic               0.000              0.000              0.000
 Translational            0.889              2.981             40.928
 Rotational               0.889              2.981             29.676
 Vibrational            138.106             36.917             33.707
 Vibration     1          0.600              1.961              3.833
 Vibration     2          0.606              1.943              3.316
 Vibration     3          0.614              1.916              2.841
 Vibration     4          0.619              1.899              2.631
 Vibration     5          0.621              1.893              2.571
 Vibration     6          0.635              1.849              2.192
 Vibration     7          0.640              1.832              2.082
 Vibration     8          0.663              1.761              1.724
 Vibration     9          0.669              1.744              1.653
 Vibration    10          0.681              1.709              1.528
 Vibration    11          0.683              1.703              1.508
 Vibration    12          0.686              1.694              1.478
 Vibration    13          0.698              1.656              1.367
 Vibration    14          0.759              1.487              0.992
 Vibration    15          0.807              1.365              0.801
 Vibration    16          0.904              1.143              0.548
 Vibration    17          0.965              1.017              0.438

 Optimization completed.
    -- Stationary point found.

 1\1\GINC-NODE370\Freq\RB3LYP\6-31G(d)\C6H14O4\VSC10255\08-Dec-2020\0\\
 #N Geom=AllCheck Guess=TCheck SCRF=Check GenChk RB3LYP/6-31G(d) Freq\\
 CID_85856592_JID_539_neutraal\\0,1\C,1.1192437563,0.1564530036,-0.0518
 547981\O,0.2321735097,0.237845307,-1.1584096459\C,0.7394716246,0.67410
 85014,-2.4015544193\C,0.6094598542,2.2201498158,-2.5992845932\C,0.7595
 079309,3.1170059843,-1.3751073945\O,2.1227291784,3.1936167807,-0.94678
 8683\C,1.4426363812,2.7053454683,-3.7994207258\O,1.2987572955,1.863866
 2967,-4.9340692805\O,1.9777868934,0.1048642668,-2.7931634879\C,3.22077

 Normal termination of Gaussian 16 at Tue Dec  8 13:04:02 2020.

 ----------------------------------------------------------------------
 # B3LYP/6-311++G(d,p) empiricaldispersion=gd3bj scf=xqc pop=npa geom=c
 heck
 ----------------------------------------------------------------------

 -------------------------------------
 CID_85856592_JID_539_Energie_neutraal
 -------------------------------------
 Structure from the checkpoint file:  "JID_539.chk"
 Charge =  0 Multiplicity = 1

 SCF Done:  E(RB3LYP) =  -538.110812354     A.U. after   13 cycles
 Normal termination of Gaussian 16 at Tue Dec  8 13:10:16 2020.

 ----------------------------------------------------------------------
 # B3LYP/6-311++G(d,p) empiricaldispersion=gd3bj scf=xqc pop=npa geom=c
 heck
 ----------------------------------------------------------------------

 -----------------------------------
 CID_85856592_JID_539_Energie_kation
 -----------------------------------
 Structure from the checkpoint file:  "JID_539.chk"
 Charge =  1 Multiplicity = 2

 SCF Done:  E(UB3LYP) =  -537.775649293     A.U. after   24 cycles
 Normal termination of Gaussian 16 at Tue Dec  8 13:17:18 2020.
 Gaussian 16:  ES64L-G16RevA.03 25-Dec-2016

 ----------------------------------
 CID_85856592_JID_539_Energie_anion
 ----------------------------------
 Structure from the checkpoint file:  "JID_539.chk"
 Charge = -1 Multiplicity = 2

                         Standard orientation:
 ---------------------------------------------------------------------
 Center     Atomic      Atomic             Coordinates (Angstroms)
 Number     Number       Type             X           Y           Z
 ---------------------------------------------------------------------
      1          6           0       -2.513997   -0.296101   -0.208852
      2          8           0       -1.520144   -0.505139   -1.202101
      3          6           0       -0.184161   -0.703581   -0.791181
      4          6           0        0.631095    0.629234   -0.719024
      5          6           0       -0.100543    1.897826   -0.293752
      6          8           0       -0.388644    1.890513    1.107905
      7          6           0        1.964858    0.432751    0.024209
      8          8           0        2.638502   -0.751363   -0.376158
      9          8           0       -0.002225   -1.596689    0.295133
     10          6           0       -0.264449   -1.203002    1.647215
     11          1           0       -2.720722   -1.220331    0.344357
     12          1           0       -3.418432   -0.004350   -0.749316
     13          1           0       -2.246015    0.494354    0.500821
     14          1           0        0.251287   -1.271404   -1.615814
     15          1           0        0.880344    0.817854   -1.772388
     16          1           0        0.543966    2.756960   -0.533844
     17          1           0       -1.021695    1.991688   -0.883638
     18          1           0       -0.821971    2.728345    1.328971
     19          1           0        2.634822    1.265831   -0.214211
     20          1           0        1.801406    0.452809    1.109272
     21          1           0        2.069896   -1.483501   -0.078854
     22          1           0       -0.350493   -0.121979    1.760931
     23          1           0       -1.187378   -1.679810    1.995899
     24          1           0        0.568250   -1.567804    2.257896
 ---------------------------------------------------------------------

 SCF Done:  E(UB3LYP) =  -538.100016973     A.U. after   26 cycles

 The electronic state is 2-A.
 Alpha  occ. eigenvalues --  -19.03571 -19.02204 -19.01523 -19.00888 -10.16907
 Alpha  occ. eigenvalues --  -10.10867 -10.10631 -10.10401 -10.10011 -10.07249
 Alpha  occ. eigenvalues --   -0.96592  -0.91967  -0.90953  -0.90641  -0.68890
 Alpha  occ. eigenvalues --   -0.63343  -0.58207  -0.56334  -0.52487  -0.46224
 Alpha  occ. eigenvalues --   -0.43128  -0.41163  -0.39470  -0.38847  -0.38495
 Alpha  occ. eigenvalues --   -0.34041  -0.33520  -0.32496  -0.32027  -0.30720
 Alpha  occ. eigenvalues --   -0.30449  -0.29449  -0.26198  -0.24247  -0.23909
 Alpha  occ. eigenvalues --   -0.22095  -0.21684  -0.18144  -0.17311  -0.16098
 Alpha  occ. eigenvalues --   -0.15321   0.04799
 Alpha virt. eigenvalues --    0.07591   0.08203   0.08479   0.10053   0.10394
 Alpha virt. eigenvalues --    0.10783   0.11559   0.12598   0.13477   0.13728
 Alpha virt. eigenvalues --    0.14303   0.14995   0.16335   0.16490   0.17477

  Beta  occ. eigenvalues --  -19.03568 -19.02200 -19.01517 -19.00815 -10.16903
  Beta  occ. eigenvalues --  -10.10852 -10.10608 -10.10355 -10.09975 -10.07248
  Beta  occ. eigenvalues --   -0.96584  -0.91957  -0.90839  -0.90596  -0.68843
  Beta  occ. eigenvalues --   -0.63299  -0.58156  -0.56244  -0.52422  -0.46172
  Beta  occ. eigenvalues --   -0.43038  -0.41126  -0.39419  -0.38814  -0.38402
  Beta  occ. eigenvalues --   -0.34009  -0.33487  -0.32469  -0.31996  -0.30688
  Beta  occ. eigenvalues --   -0.30414  -0.29409  -0.26152  -0.24218  -0.23859
  Beta  occ. eigenvalues --   -0.22055  -0.21649  -0.18109  -0.17295  -0.16045
  Beta  occ. eigenvalues --   -0.15304
  Beta virt. eigenvalues --    0.07411   0.08467   0.08796   0.09332   0.10698
  Beta virt. eigenvalues --    0.10861   0.11404   0.12038   0.12862   0.13894
  Beta virt. eigenvalues --    0.14104   0.14814   0.15480   0.16413   0.16878

 Mulliken charges and spin densities:
               1          2
     1  C    0.573853  -0.843927
     2  O   -0.138467   0.049696
     3  C   -0.251282  -0.545560
     4  C   -0.926524   1.434903
     5  C    1.989924  -2.474353
     6  O   -0.370958   0.076267
     7  C   -0.073220  -0.448654
     8  O   -0.254288   0.004573
     9  O   -0.187704   0.029571
    10  C    0.281305  -0.561108
    11  H   -0.034119   0.169396
    12  H   -0.435919   0.591061
    13  H   -0.061422   0.246376
    14  H    0.047889   0.154491
    15  H   -0.025326   0.233374
    16  H   -0.757207   0.914260
    17  H   -0.304404   0.485264
    18  H   -0.458577   0.766466
    19  H   -0.008357   0.191290
    20  H    0.125804   0.049315
    21  H    0.219818   0.040259
    22  H    0.201580   0.019757
    23  H   -0.143979   0.273861
    24  H   -0.008420   0.143423
 Sum of Mulliken charges =  -1.00000   1.00000

 Dipole moment (field-independent basis, Debye):
    X=              2.7021    Y=             -6.6206    Z=             -0.7920  Tot=              7.1945
 Quadrupole moment (field-independent basis, Debye-Ang):
   XX=           -105.9531   YY=           -115.0634   ZZ=            -91.8003
   XY=              5.9441   XZ=              2.8351   YZ=             -5.6102

 Summary of Natural Population Analysis:

                                       Natural Population
                Natural  -----------------------------------------------
    Atom  No    Charge         Core      Valence    Rydberg      Total
 -----------------------------------------------------------------------
      C    1   -0.10855      0.99959     2.09886    0.01010     3.10855
      O    2   -0.30499      0.99988     3.29528    0.00983     4.30499
      C    3    0.23130      0.99953     1.75005    0.01912     2.76870
      C    4   -0.15641      0.99955     2.14380    0.01305     3.15641
      C    5   -0.01223      0.99955     1.99795    0.01473     3.01223
      O    6   -0.38591      0.99989     3.37795    0.00807     4.38591
      C    7   -0.01024      0.99957     1.99860    0.01207     3.01024
      O    8   -0.37764      0.99990     3.37103    0.00670     4.37764
      O    9   -0.31656      0.99988     3.30744    0.00924     4.31656
      C   10   -0.11513      0.99958     2.10550    0.01006     3.11513
      H   11    0.07930      0.00000     0.41931    0.00139     0.42070
      H   12    0.09076      0.00000     0.40796    0.00128     0.40924
      H   13    0.09316      0.00000     0.40450    0.00233     0.40684
      H   14    0.08660      0.00000     0.41187    0.00153     0.41340
      H   15    0.10747      0.00000     0.39121    0.00132     0.39253
      H   16    0.08438      0.00000     0.41253    0.00309     0.41562
      H   17    0.08773      0.00000     0.40958    0.00269     0.41227
      H   18    0.24844      0.00000     0.22136    0.03020     0.25156
      H   19    0.08781      0.00000     0.41089    0.00130     0.41219
      H   20    0.08362      0.00000     0.41474    0.00164     0.41638
      H   21    0.23385      0.00000     0.26318    0.00297     0.26615
      H   22    0.10762      0.00000     0.39022    0.00215     0.39238
      H   23    0.08332      0.00000     0.41547    0.00121     0.41668
      H   24    0.08229      0.00000     0.41678    0.00093     0.41771
 =======================================================================
   * Total *   -0.00000      9.99691    30.83608    0.16701    41.00000

 Normal termination of Gaussian 16 at Tue Dec  8 13:36:11 2020.
