 Gaussian 16, Revision A.03,

 -----------------------------------------------------------
 # opt freq B3LYP/6-31G(d) empiricaldispersion=gd3bj scf=xqc
 -----------------------------------------------------------

 -----------------------------
 CID_13326601_JID_137_neutraal
 -----------------------------
 Symbolic Z-matrix:
 Charge =  0 Multiplicity = 1

 SCF Done:  E(RB3LYP) =  -458.708340055     A.U. after   14 cycles
 SCF Done:  E(RB3LYP) =  -458.712599244     A.U. after   12 cycles
 SCF Done:  E(RB3LYP) =  -458.713386459     A.U. after   12 cycles
 SCF Done:  E(RB3LYP) =  -458.713793428     A.U. after   12 cycles
 SCF Done:  E(RB3LYP) =  -458.713923191     A.U. after   10 cycles
 SCF Done:  E(RB3LYP) =  -458.713985026     A.U. after   11 cycles
 SCF Done:  E(RB3LYP) =  -458.714003290     A.U. after   10 cycles
 SCF Done:  E(RB3LYP) =  -458.714022659     A.U. after   11 cycles
 SCF Done:  E(RB3LYP) =  -458.714032377     A.U. after   10 cycles
 SCF Done:  E(RB3LYP) =  -458.714040037     A.U. after   10 cycles
 SCF Done:  E(RB3LYP) =  -458.714076941     A.U. after   10 cycles
 SCF Done:  E(RB3LYP) =  -458.714079564     A.U. after    9 cycles
 SCF Done:  E(RB3LYP) =  -458.714080849     A.U. after   10 cycles
 SCF Done:  E(RB3LYP) =  -458.714080619     A.U. after   10 cycles
 SCF Done:  E(RB3LYP) =  -458.714081124     A.U. after   10 cycles
 SCF Done:  E(RB3LYP) =  -458.714081141     A.U. after    7 cycles
 Optimization completed.
    -- Stationary point found.
 Normal termination of Gaussian 16 at Tue Dec  8 10:20:26 2020.

 --------------------------------------------------------------------
 #N Geom=AllCheck Guess=TCheck SCRF=Check GenChk RB3LYP/6-31G(d) Freq
 --------------------------------------------------------------------

 Structure from the checkpoint file:  "JID_137.chk"
 -----------------------------
 CID_13326601_JID_137_neutraal
 -----------------------------
 Charge =  0 Multiplicity = 1

 SCF Done:  E(RB3LYP) =  -458.714081141     A.U. after    1 cycles

  Exact polarizability: 141.456 -12.291  86.441   4.307   0.096  58.295
 Approx polarizability: 182.686 -37.301 145.396   8.668  -1.879  83.304

                      1                      2                      3
                      A                      A                      A
 Frequencies --     49.1114                49.6032                78.6779
 Red. masses --      2.0481                 2.5001                 5.8023
 Frc consts  --      0.0029                 0.0036                 0.0212
 IR Inten    --      0.0878                 0.3793                 0.1755

                      4                      5                      6
                      A                      A                      A
 Frequencies --    102.2135               163.4287               213.2823
 Red. masses --      2.9553                 2.8663                 1.4811
 Frc consts  --      0.0182                 0.0451                 0.0397
 IR Inten    --      4.7529                 3.3847                 1.7552

                      7                      8                      9
                      A                      A                      A
 Frequencies --    254.4614               319.5424               347.8644
 Red. masses --      2.3233                 2.6576                 3.0625
 Frc consts  --      0.0886                 0.1599                 0.2183
 IR Inten    --      1.8956                18.5090                 1.5176

                     10                     11                     12
                      A                      A                      A
 Frequencies --    371.9130               405.4764               529.3090
 Red. masses --      3.4808                 1.3370                 2.9399
 Frc consts  --      0.2837                 0.1295                 0.4853
 IR Inten    --     23.4878               186.9528                 0.5375

                     13                     14                     15
                      A                      A                      A
 Frequencies --    576.4381               667.9018               715.2175
 Red. masses --      1.2013                 4.5799                 3.5571
 Frc consts  --      0.2352                 1.2037                 1.0721
 IR Inten    --    124.8200                 2.9602                16.7720

                     16                     17                     18
                      A                      A                      A
 Frequencies --    754.2375               767.4905               799.6094
 Red. masses --      4.6434                 3.7703                 1.2518
 Frc consts  --      1.5563                 1.3085                 0.4716
 IR Inten    --      6.3335                 6.3942                13.5973

                     19                     20                     21
                      A                      A                      A
 Frequencies --    816.5888               847.3281               874.5495
 Red. masses --      1.2990                 1.2956                 3.0682
 Frc consts  --      0.5103                 0.5481                 1.3826
 IR Inten    --     10.9224                 3.0597                13.6295

                     22                     23                     24
                      A                      A                      A
 Frequencies --    912.5274               961.9111              1004.6175
 Red. masses --      5.8200                 3.0405                 2.8587
 Frc consts  --      2.8554                 1.6575                 1.6999
 IR Inten    --      9.4946                24.0012                11.7252

                     25                     26                     27
                      A                      A                      A
 Frequencies --   1024.4618              1044.3835              1084.9020
 Red. masses --      4.8124                 6.2364                 1.7741
 Frc consts  --      2.9758                 4.0078                 1.2303
 IR Inten    --     85.8034                32.2989                 4.0460

                     28                     29                     30
                      A                      A                      A
 Frequencies --   1107.1222              1130.0286              1146.6142
 Red. masses --      1.5060                 1.6016                 1.6421
 Frc consts  --      1.0876                 1.2050                 1.2720
 IR Inten    --     10.7416                 0.6324                21.4025

                     31                     32                     33
                      A                      A                      A
 Frequencies --   1225.4629              1255.9985              1276.4063
 Red. masses --      1.1300                 1.1172                 1.9153
 Frc consts  --      0.9998                 1.0384                 1.8385
 IR Inten    --      1.4297                 2.5579                12.2262

                     34                     35                     36
                      A                      A                      A
 Frequencies --   1289.9230              1301.7977              1353.1799
 Red. masses --      1.4661                 1.3147                 1.4974
 Frc consts  --      1.4373                 1.3127                 1.6155
 IR Inten    --     38.8284                18.2275                93.0926

                     37                     38                     39
                      A                      A                      A
 Frequencies --   1376.8866              1390.5320              1436.0426
 Red. masses --      1.5415                 1.4724                 1.2668
 Frc consts  --      1.7218                 1.6774                 1.5392
 IR Inten    --     15.3491                32.6506                 7.1051

                     40                     41                     42
                      A                      A                      A
 Frequencies --   1469.8492              1514.4819              1528.5266
 Red. masses --      2.6493                 1.0648                 1.0499
 Frc consts  --      3.3723                 1.4390                 1.4453
 IR Inten    --     68.0493                 2.3749                 2.7875

                     43                     44                     45
                      A                      A                      A
 Frequencies --   1533.0636              1536.8199              1555.5392
 Red. masses --      1.0998                 1.0789                 1.1007
 Frc consts  --      1.5229                 1.5013                 1.5691
 IR Inten    --      3.7018                 7.2298                 4.9598

                     46                     47                     48
                      A                      A                      A
 Frequencies --   1653.5700              1704.0087              1728.4312
 Red. masses --      1.8132                 2.4259                 5.8678
 Frc consts  --      2.9211                 4.1501                10.3283
 IR Inten    --     25.0646                23.6260               634.4133

                     49                     50                     51
                      A                      A                      A
 Frequencies --   3039.4881              3045.1123              3051.3589
 Red. masses --      1.0633                 1.0681                 1.0364
 Frc consts  --      5.7879                 5.8354                 5.6852
 IR Inten    --     83.8781                28.7784                28.8641

                     52                     53                     54
                      A                      A                      A
 Frequencies --   3064.5936              3073.9975              3104.3889
 Red. masses --      1.0767                 1.0844                 1.0968
 Frc consts  --      5.9580                 6.0373                 6.2280
 IR Inten    --     29.9295                56.9185                 5.4679

                     55                     56                     57
                      A                      A                      A
 Frequencies --   3117.5318              3123.7340              3132.7009
 Red. masses --      1.1103                 1.0990                 1.1038
 Frc consts  --      6.3581                 6.3180                 6.3824
 IR Inten    --     49.3643                42.1732                33.5372

                     58                     59                     60
                      A                      A                      A
 Frequencies --   3238.0280              3565.3804              3683.6878
 Red. masses --      1.0896                 1.0467                 1.1010
 Frc consts  --      6.7309                 7.8394                 8.8025
 IR Inten    --      2.6800                32.9732                51.9041

 - Thermochemistry -
 -------------------
 Temperature   298.150 Kelvin.  Pressure   1.00000 Atm.
 Atom     1 has atomic number  6 and mass  12.00000

 Molecular mass:   140.09496 amu.
 Principal axes and moments of inertia in atomic units:
                           1         2         3
     Eigenvalues --   498.127682725.467473037.45947
           X            0.99995   0.00901  -0.00411
           Y           -0.00898   0.99994   0.00679
           Z            0.00417  -0.00675   0.99997
 This molecule is an asymmetric top.
 Rotational symmetry number  1.
 Warning -- assumption of classical behavior for rotation
           may cause significant error
 Rotational temperatures (Kelvin)      0.17388     0.03178     0.02852
 Rotational constants (GHZ):           3.62305     0.66218     0.59416
 Zero-point vibrational energy     499389.1 (Joules/Mol)
                                  119.35686 (Kcal/Mol)
 Warning -- explicit consideration of  13 degrees of freedom as
           vibrations may cause significant error
 Vibrational temperatures:     70.66    71.37   113.20   147.06   235.14
          (Kelvin)            306.87   366.11   459.75   500.50   535.10
                              583.39   761.56   829.37   960.96  1029.04
                             1085.18  1104.25  1150.46  1174.89  1219.12
                             1258.28  1312.92  1383.98  1445.42  1473.97
                             1502.63  1560.93  1592.90  1625.86  1649.72
                             1763.17  1807.10  1836.46  1855.91  1873.00
                             1946.92  1981.03  2000.67  2066.14  2114.79
                             2179.00  2199.21  2205.74  2211.14  2238.07
                             2379.12  2451.69  2486.83  4373.15  4381.24
                             4390.22  4409.27  4422.80  4466.52  4485.43
                             4494.36  4507.26  4658.80  5129.79  5300.01

 Zero-point correction=                           0.190207 (Hartree/Particle)
 Thermal correction to Energy=                    0.200746
 Thermal correction to Enthalpy=                  0.201691
 Thermal correction to Gibbs Free Energy=         0.153112
 Sum of electronic and zero-point Energies=           -458.523874
 Sum of electronic and thermal Energies=              -458.513335
 Sum of electronic and thermal Enthalpies=            -458.512391
 Sum of electronic and thermal Free Energies=         -458.560969

                     E (Thermal)             CV                S
                      KCal/Mol        Cal/Mol-Kelvin    Cal/Mol-Kelvin
 Total                  125.970             38.091            102.242
 Electronic               0.000              0.000              0.000
 Translational            0.889              2.981             40.723
 Rotational               0.889              2.981             29.801
 Vibrational            124.193             32.130             31.718
 Vibration     1          0.595              1.978              4.853
 Vibration     2          0.595              1.978              4.833
 Vibration     3          0.600              1.964              3.924
 Vibration     4          0.604              1.947              3.412
 Vibration     5          0.623              1.887              2.510
 Vibration     6          0.644              1.821              2.015
 Vibration     7          0.665              1.755              1.699
 Vibration     8          0.705              1.636              1.312
 Vibration     9          0.725              1.580              1.176
 Vibration    10          0.744              1.530              1.072
 Vibration    11          0.770              1.458              0.943
 Vibration    12          0.884              1.185              0.589
 Vibration    13          0.933              1.082              0.492

 Optimization completed.
    -- Stationary point found.
 Normal termination of Gaussian 16 at Tue Dec  8 10:23:38 2020.

 ----------------------------------------------------------------------
 # B3LYP/6-311++G(d,p) empiricaldispersion=gd3bj scf=xqc pop=npa geom=c
 heck
 ----------------------------------------------------------------------

 -------------------------------------
 CID_13326601_JID_137_Energie_neutraal
 -------------------------------------
 Structure from the checkpoint file:  "JID_137.chk"
 Charge =  0 Multiplicity = 1

 SCF Done:  E(RB3LYP) =  -458.850746997     A.U. after   15 cycles
 Normal termination of Gaussian 16 at Tue Dec  8 10:25:01 2020.

 ----------------------------------------------------------------------
 # B3LYP/6-311++G(d,p) empiricaldispersion=gd3bj scf=xqc pop=npa geom=c
 heck
 ----------------------------------------------------------------------

 -----------------------------------
 CID_13326601_JID_137_Energie_kation
 -----------------------------------
 Structure from the checkpoint file:  "JID_137.chk"
 Charge =  1 Multiplicity = 2

 SCF Done:  E(UB3LYP) =  -458.575589764     A.U. after   20 cycles
 Normal termination of Gaussian 16 at Tue Dec  8 10:27:34 2020.
 Gaussian 16:  ES64L-G16RevA.03 25-Dec-2016

 ----------------------------------------------------------------------
 # B3LYP/6-311++G(d,p) empiricaldispersion=gd3bj scf=xqc pop=npa geom=c
 heck
 ----------------------------------------------------------------------

 ----------------------------------
 CID_13326601_JID_137_Energie_anion
 ----------------------------------
 Structure from the checkpoint file:  "JID_137.chk"
 Charge = -1 Multiplicity = 2

                         Standard orientation:
 ---------------------------------------------------------------------
 Center     Atomic      Atomic             Coordinates (Angstroms)
 Number     Number       Type             X           Y           Z
 ---------------------------------------------------------------------
      1          6           0       -3.658586   -0.255092    0.826882
      2          6           0       -2.845852   -0.445729   -0.465336
      3          6           0       -1.430986    0.071925   -0.345392
      4          6           0       -0.385858   -0.798486   -0.271645
      5          6           0        1.007317   -0.473546   -0.088309
      6          7           0        1.976597   -1.312113   -0.054278
      7          6           0        3.202746   -0.550358    0.190022
      8          6           0        2.765762    0.936873    0.184441
      9          8           0        1.327336    0.868224    0.083790
     10          7           0       -1.318876    1.440698   -0.344546
     11          1           0       -3.180190   -0.777435    1.661626
     12          1           0       -4.672483   -0.651013    0.707496
     13          1           0       -3.748223    0.802224    1.102900
     14          1           0       -2.815646   -1.508247   -0.722066
     15          1           0       -3.346139    0.071898   -1.294916
     16          1           0       -0.586834   -1.858364   -0.359168
     17          1           0        3.947714   -0.764965   -0.585314
     18          1           0        3.642917   -0.847004    1.151197
     19          1           0        3.019666    1.478489    1.100042
     20          1           0        3.143699    1.495889   -0.678205
     21          1           0       -2.131759    1.974453   -0.073549
     22          1           0       -0.422724    1.824669   -0.072574
 ---------------------------------------------------------------------

 SCF Done:  E(UB3LYP) =  -458.837318840     A.U. after   31 cycles

 The electronic state is 2-A.
 Alpha  occ. eigenvalues --  -19.05063 -14.21121 -14.17683 -10.14843 -10.12502
 Alpha  occ. eigenvalues --  -10.11621 -10.09778 -10.07146 -10.05736 -10.04772
 Alpha  occ. eigenvalues --   -0.97686  -0.81686  -0.79134  -0.68385  -0.66868
 Alpha  occ. eigenvalues --   -0.61565  -0.54106  -0.53294  -0.47631  -0.44861
 Alpha  occ. eigenvalues --   -0.41937  -0.40037  -0.39565  -0.35721  -0.34079
 Alpha  occ. eigenvalues --   -0.32546  -0.31058  -0.29928  -0.29845  -0.28239
 Alpha  occ. eigenvalues --   -0.26898  -0.25450  -0.24742  -0.24037  -0.21743
 Alpha  occ. eigenvalues --   -0.16862  -0.15629  -0.09929   0.04534
 Alpha virt. eigenvalues --    0.06335   0.07842   0.08374   0.09165   0.09404
 Alpha virt. eigenvalues --    0.09573   0.09932   0.11733   0.12080   0.12305
 Alpha virt. eigenvalues --    0.12999   0.13940   0.14732   0.16050   0.16819

  Beta  occ. eigenvalues --  -19.05057 -14.21069 -14.17664 -10.14836 -10.12472
  Beta  occ. eigenvalues --  -10.11602 -10.09767 -10.07127 -10.05675 -10.04763
  Beta  occ. eigenvalues --   -0.97671  -0.81603  -0.79100  -0.68325  -0.66812
  Beta  occ. eigenvalues --   -0.61506  -0.54009  -0.53246  -0.47555  -0.44817
  Beta  occ. eigenvalues --   -0.41870  -0.40001  -0.39532  -0.35652  -0.34023
  Beta  occ. eigenvalues --   -0.32498  -0.30992  -0.29899  -0.29817  -0.28175
  Beta  occ. eigenvalues --   -0.26835  -0.25414  -0.24694  -0.23987  -0.21668
  Beta  occ. eigenvalues --   -0.16835  -0.15575  -0.09839
  Beta virt. eigenvalues --    0.06860   0.07479   0.08466   0.08954   0.09707
  Beta virt. eigenvalues --    0.09903   0.10070   0.10452   0.12107   0.12509
  Beta virt. eigenvalues --    0.12785   0.13375   0.14313   0.15136   0.16028

 Mulliken charges and spin densities:
               1          2
     1  C    1.316017  -1.882335
     2  C   -1.348833   1.004688
     3  C   -0.177596   0.310087
     4  C    1.368814  -0.964967
     5  C    0.317191  -1.049944
     6  N   -0.156406   0.077537
     7  C    0.122227  -0.399884
     8  C    0.736223  -0.854567
     9  O   -0.217903   0.061078
    10  N   -0.494973   0.163759
    11  H   -0.048738   0.188359
    12  H   -0.679493   0.827288
    13  H   -0.343539   0.478749
    14  H   -0.136863   0.286618
    15  H   -0.396122   0.563659
    16  H    0.075850   0.118333
    17  H   -0.050781   0.188862
    18  H    0.022123   0.107673
    19  H   -0.357954   0.510046
    20  H   -0.210968   0.368422
    21  H   -0.265381   0.518039
    22  H   -0.072893   0.378500
 Sum of Mulliken charges =  -1.00000   1.00000

 Dipole moment (field-independent basis, Debye):
    X=              5.1013    Y=             -1.9636    Z=             -0.2016  Tot=              5.4699
 Quadrupole moment (field-independent basis, Debye-Ang):
   XX=           -139.5598   YY=            -98.3731   ZZ=            -86.7849
   XY=              3.7771   XZ=              2.4972   YZ=             -0.5683

 Summary of Natural Population Analysis:

                                       Natural Population
                Natural  -----------------------------------------------
    Atom  No    Charge         Core      Valence    Rydberg      Total
 -----------------------------------------------------------------------
      C    1   -0.28124      0.99966     2.27643    0.00515     3.28124
      C    2   -0.20624      0.99960     2.19674    0.00990     3.20624
      C    3    0.13487      0.99952     1.85140    0.01421     2.86513
      C    4   -0.19856      0.99944     2.18898    0.01014     3.19856
      C    5    0.27812      0.99954     1.70411    0.01823     2.72188
      N    6   -0.27570      0.99968     2.76541    0.01061     3.77570
      C    7   -0.11327      0.99964     2.10242    0.01121     3.11327
      C    8   -0.01801      0.99960     2.00839    0.01002     3.01801
      O    9   -0.29697      0.99987     3.28809    0.00901     4.29697
      N   10   -0.39046      0.99969     2.88094    0.00982     3.89046
      H   11    0.09789      0.00000     0.40096    0.00115     0.40211
      H   12    0.10230      0.00000     0.39532    0.00238     0.39770
      H   13    0.09817      0.00000     0.39935    0.00248     0.40183
      H   14    0.10181      0.00000     0.39703    0.00116     0.39819
      H   15    0.10415      0.00000     0.39396    0.00189     0.39585
      H   16    0.10977      0.00000     0.38894    0.00130     0.39023
      H   17    0.09266      0.00000     0.40573    0.00161     0.40734
      H   18    0.08988      0.00000     0.40866    0.00146     0.41012
      H   19    0.08861      0.00000     0.40971    0.00167     0.41139
      H   20    0.08655      0.00000     0.41168    0.00177     0.41345
      H   21    0.19188      0.00000     0.30382    0.00431     0.30812
      H   22    0.20380      0.00000     0.29369    0.00252     0.29620
 =======================================================================
   * Total *    0.00000      9.99623    27.87176    0.13200    38.00000

 Normal termination of Gaussian 16 at Tue Dec  8 10:31:25 2020.
