 Gaussian 16, Revision A.03,

 -----------------------------------------------------------
 # opt freq B3LYP/6-31G(d) empiricaldispersion=gd3bj scf=xqc
 -----------------------------------------------------------

 ------------------------------
 CID_83024752_JID_6341_neutraal
 ------------------------------
 Symbolic Z-matrix:
 Charge =  0 Multiplicity = 1

 SCF Done:  E(RB3LYP) =  -705.604118481     A.U. after   14 cycles
 SCF Done:  E(RB3LYP) =  -705.611361818     A.U. after   12 cycles
 SCF Done:  E(RB3LYP) =  -705.613781661     A.U. after   12 cycles
 SCF Done:  E(RB3LYP) =  -705.615632642     A.U. after   12 cycles
 SCF Done:  E(RB3LYP) =  -705.616010112     A.U. after   12 cycles
 SCF Done:  E(RB3LYP) =  -705.616168851     A.U. after   12 cycles
 SCF Done:  E(RB3LYP) =  -705.616324241     A.U. after   11 cycles
 SCF Done:  E(RB3LYP) =  -705.616379552     A.U. after   11 cycles
 SCF Done:  E(RB3LYP) =  -705.616408360     A.U. after   10 cycles
 SCF Done:  E(RB3LYP) =  -705.616414286     A.U. after    9 cycles
 SCF Done:  E(RB3LYP) =  -705.616417141     A.U. after    8 cycles
 SCF Done:  E(RB3LYP) =  -705.616417769     A.U. after    7 cycles
 SCF Done:  E(RB3LYP) =  -705.616418037     A.U. after    7 cycles
 SCF Done:  E(RB3LYP) =  -705.616418112     A.U. after    7 cycles
 SCF Done:  E(RB3LYP) =  -705.616418160     A.U. after    7 cycles
 SCF Done:  E(RB3LYP) =  -705.616418191     A.U. after    7 cycles
 Optimization completed.
    -- Stationary point found.
 Normal termination of Gaussian 16 at Thu Dec 10 22:17:02 2020.

 --------------------------------------------------------------------
 #N Geom=AllCheck Guess=TCheck SCRF=Check GenChk RB3LYP/6-31G(d) Freq
 --------------------------------------------------------------------

 Structure from the checkpoint file:  "JID_6341.chk"
 ------------------------------
 CID_83024752_JID_6341_neutraal
 ------------------------------
 Charge =  0 Multiplicity = 1

 SCF Done:  E(RB3LYP) =  -705.616418191     A.U. after    1 cycles

  Exact polarizability: 203.684  -1.963 147.159  -0.474   6.849 108.049
 Approx polarizability: 267.305 -10.440 229.658  -5.731  24.091 160.150

                      1                      2                      3
                      A                      A                      A
 Frequencies --     28.4342                37.9820                58.0803
 Red. masses --      3.4775                 3.2825                 3.0763
 Frc consts  --      0.0017                 0.0028                 0.0061
 IR Inten    --      0.5580                 0.8696                 2.4678

                      4                      5                      6
                      A                      A                      A
 Frequencies --     61.4896                86.8505               109.1154
 Red. masses --      3.2225                 2.5975                 2.8882
 Frc consts  --      0.0072                 0.0115                 0.0203
 IR Inten    --      0.4683                 0.0449                 0.1362

                      7                      8                      9
                      A                      A                      A
 Frequencies --    138.9668               150.8909               186.7366
 Red. masses --      2.4009                 3.3385                 2.6392
 Frc consts  --      0.0273                 0.0448                 0.0542
 IR Inten    --      2.0164                 1.0904                 2.8913

                     10                     11                     12
                      A                      A                      A
 Frequencies --    202.9092               208.0648               216.2672
 Red. masses --      1.5980                 1.9321                 1.3774
 Frc consts  --      0.0388                 0.0493                 0.0380
 IR Inten    --      1.9350                 4.4587                 1.2513

                     13                     14                     15
                      A                      A                      A
 Frequencies --    221.5578               229.0038               249.8568
 Red. masses --      1.1923                 1.4704                 3.1523
 Frc consts  --      0.0345                 0.0454                 0.1159
 IR Inten    --      0.7959                 0.8109                 1.3104

                     16                     17                     18
                      A                      A                      A
 Frequencies --    278.4391               305.1048               338.7879
 Red. masses --      1.6909                 2.0070                 2.6752
 Frc consts  --      0.0772                 0.1101                 0.1809
 IR Inten    --      2.8412                 0.3440                 8.3996

                     19                     20                     21
                      A                      A                      A
 Frequencies --    368.2074               391.8784               417.9942
 Red. masses --      2.5552                 1.7269                 2.3567
 Frc consts  --      0.2041                 0.1562                 0.2426
 IR Inten    --      5.3168                49.8060                42.3907

                     22                     23                     24
                      A                      A                      A
 Frequencies --    432.1191               457.9388               487.5048
 Red. masses --      2.3191                 2.9724                 3.0188
 Frc consts  --      0.2551                 0.3673                 0.4227
 IR Inten    --      6.5040                 6.8351                 1.1141

                     25                     26                     27
                      A                      A                      A
 Frequencies --    511.3942               561.9865               591.2331
 Red. masses --      3.2075                 3.8505                 4.0573
 Frc consts  --      0.4942                 0.7165                 0.8356
 IR Inten    --      1.8578                 4.2299                 1.3297

                     28                     29                     30
                      A                      A                      A
 Frequencies --    621.2404               712.0570               758.2147
 Red. masses --      4.3973                 6.1151                 2.1347
 Frc consts  --      0.9999                 1.8268                 0.7230
 IR Inten    --      4.2802                 3.2663                 4.4926

                     31                     32                     33
                      A                      A                      A
 Frequencies --    778.1294               803.3137               820.8508
 Red. masses --      1.5546                 1.8675                 3.8257
 Frc consts  --      0.5546                 0.7100                 1.5187
 IR Inten    --     24.2312                 7.4354                 3.7983

                     34                     35                     36
                      A                      A                      A
 Frequencies --    846.4265               856.5177               873.5949
 Red. masses --      1.5040                 4.1519                 2.6055
 Frc consts  --      0.6349                 1.7946                 1.1715
 IR Inten    --     61.7148                 7.1688                11.5247

                     37                     38                     39
                      A                      A                      A
 Frequencies --    898.2256               934.7823               977.8521
 Red. masses --      3.6325                 1.4678                 2.4490
 Frc consts  --      1.7267                 0.7557                 1.3797
 IR Inten    --     11.8733                13.5892                 5.8904

                     40                     41                     42
                      A                      A                      A
 Frequencies --    983.5964               984.4952              1027.8044
 Red. masses --      1.8668                 1.5509                 1.9721
 Frc consts  --      1.0641                 0.8857                 1.2274
 IR Inten    --      6.4524                 3.5849                36.0031

                     43                     44                     45
                      A                      A                      A
 Frequencies --   1050.4402              1091.3793              1095.0547
 Red. masses --      1.7173                 1.9704                 1.8500
 Frc consts  --      1.1164                 1.3828                 1.3071
 IR Inten    --     11.0153                12.0713                21.5135

                     46                     47                     48
                      A                      A                      A
 Frequencies --   1102.4964              1121.7730              1126.5874
 Red. masses --      2.5709                 1.2174                 1.8607
 Frc consts  --      1.8412                 0.9026                 1.3914
 IR Inten    --     35.9621                 1.7538                25.2810

                     49                     50                     51
                      A                      A                      A
 Frequencies --   1148.1016              1175.2090              1198.3869
 Red. masses --      2.8691                 2.3514                 1.6158
 Frc consts  --      2.2282                 1.9134                 1.3672
 IR Inten    --     55.1864                25.9261                 0.4323

                     52                     53                     54
                      A                      A                      A
 Frequencies --   1209.7824              1264.9372              1265.5854
 Red. masses --      2.1303                 2.7708                 2.6960
 Frc consts  --      1.8370                 2.6121                 2.5442
 IR Inten    --      5.4899                11.8137                10.3638

                     55                     56                     57
                      A                      A                      A
 Frequencies --   1287.5301              1307.1922              1317.6504
 Red. masses --      1.5464                 1.4651                 1.9372
 Frc consts  --      1.5103                 1.4750                 1.9817
 IR Inten    --     92.6854                10.3609                21.4786

                     58                     59                     60
                      A                      A                      A
 Frequencies --   1323.3218              1355.6752              1367.9884
 Red. masses --      1.4002                 2.6507                 1.9666
 Frc consts  --      1.4447                 2.8703                 2.1684
 IR Inten    --     18.0437                 1.8747                52.9005

                     61                     62                     63
                      A                      A                      A
 Frequencies --   1387.8076              1395.8747              1407.1066
 Red. masses --      1.8538                 1.3263                 1.4317
 Frc consts  --      2.1037                 1.5226                 1.6702
 IR Inten    --     10.9904                31.1377                28.3023

                     64                     65                     66
                      A                      A                      A
 Frequencies --   1435.7895              1438.4025              1443.4677
 Red. masses --      1.2374                 1.2898                 1.8600
 Frc consts  --      1.5029                 1.5723                 2.2834
 IR Inten    --      7.6420                23.6065                35.5720

                     67                     68                     69
                      A                      A                      A
 Frequencies --   1450.2572              1479.5449              1479.8992
 Red. masses --      1.1655                 1.2058                 1.8622
 Frc consts  --      1.4443                 1.5552                 2.4030
 IR Inten    --      0.1837                 0.5002                22.0800

                     70                     71                     72
                      A                      A                      A
 Frequencies --   1499.5119              1504.6796              1511.5874
 Red. masses --      1.0486                 1.3232                 1.1591
 Frc consts  --      1.3892                 1.7651                 1.5604
 IR Inten    --      5.5482               142.6621                46.7449

                     73                     74                     75
                      A                      A                      A
 Frequencies --   1523.7409              1524.3699              1527.3072
 Red. masses --      1.1118                 1.1449                 1.1308
 Frc consts  --      1.5210                 1.5674                 1.5542
 IR Inten    --     41.7953                48.7971                 6.1439

                     76                     77                     78
                      A                      A                      A
 Frequencies --   1530.6694              1535.6999              1541.3910
 Red. masses --      1.2668                 1.4691                 1.0811
 Frc consts  --      1.7487                 2.0413                 1.5134
 IR Inten    --     57.0234                47.9353                 6.1146

                     79                     80                     81
                      A                      A                      A
 Frequencies --   1541.8497              1543.0352              1546.8703
 Red. masses --      1.0746                 1.0788                 1.1654
 Frc consts  --      1.5052                 1.5133                 1.6429
 IR Inten    --      1.9368                12.1179                13.9578

                     82                     83                     84
                      A                      A                      A
 Frequencies --   1556.6387              1623.2542              1645.0062
 Red. masses --      1.1020                 3.4881                 4.6377
 Frc consts  --      1.5733                 5.4151                 7.3942
 IR Inten    --     10.1755               216.8816               344.2061

                     85                     86                     87
                      A                      A                      A
 Frequencies --   2997.5919              3006.2498              3034.4680
 Red. masses --      1.0741                 1.0752                 1.0642
 Frc consts  --      5.6866                 5.7253                 5.7737
 IR Inten    --     51.4626                37.9552                39.2288

                     88                     89                     90
                      A                      A                      A
 Frequencies --   3034.7622              3042.2341              3047.4835
 Red. masses --      1.0336                 1.0349                 1.0394
 Frc consts  --      5.6086                 5.6431                 5.6876
 IR Inten    --     51.8010                42.2435                24.3986

                     91                     92                     93
                      A                      A                      A
 Frequencies --   3056.5619              3069.8504              3102.8850
 Red. masses --      1.0355                 1.0975                 1.1024
 Frc consts  --      5.6997                 6.0938                 6.2537
 IR Inten    --     32.9177                27.8991                22.4766

                     94                     95                     96
                      A                      A                      A
 Frequencies --   3105.5775              3110.1019              3120.5379
 Red. masses --      1.1025                 1.0993                 1.0902
 Frc consts  --      6.2648                 6.2647                 6.2551
 IR Inten    --     48.2263                33.0122                38.1585

                     97                     98                     99
                      A                      A                      A
 Frequencies --   3123.9808              3127.9944              3131.9864
 Red. masses --      1.1019                 1.1036                 1.1007
 Frc consts  --      6.3357                 6.3621                 6.3614
 IR Inten    --     23.5446                30.2320                21.5466

                    100                    101                    102
                      A                      A                      A
 Frequencies --   3134.0437              3137.5205              3163.7262
 Red. masses --      1.1018                 1.1028                 1.0877
 Frc consts  --      6.3761                 6.3960                 6.4143
 IR Inten    --     34.0632                30.6886                18.0626

                    103                    104                    105
                      A                      A                      A
 Frequencies --   3173.1682              3516.1005              3630.3089
 Red. masses --      1.0904                 1.0733                 1.0770
 Frc consts  --      6.4685                 7.8176                 8.3626
 IR Inten    --     41.7571                10.1144                27.9280

 - Thermochemistry -
 -------------------
 Temperature   298.150 Kelvin.  Pressure   1.00000 Atm.
 Atom     1 has atomic number  6 and mass  12.00000

 Molecular mass:   223.17970 amu.
 Principal axes and moments of inertia in atomic units:
                           1         2         3
     Eigenvalues --  1772.484926421.321197311.96854
           X            0.99996   0.00884   0.00192
           Y           -0.00877   0.99941  -0.03309
           Z           -0.00221   0.03307   0.99945
 This molecule is an asymmetric top.
 Rotational symmetry number  1.
 Warning -- assumption of classical behavior for rotation
           may cause significant error
 Rotational temperatures (Kelvin)      0.04887     0.01349     0.01185
 Rotational constants (GHZ):           1.01820     0.28105     0.24682
 Zero-point vibrational energy     861047.4 (Joules/Mol)
                                  205.79527 (Kcal/Mol)
 Warning -- explicit consideration of  27 degrees of freedom as
           vibrations may cause significant error
 Vibrational temperatures:     40.91    54.65    83.56    88.47   124.96
          (Kelvin)            156.99   199.94   217.10   268.67   291.94
                              299.36   311.16   318.77   329.49   359.49
                              400.61   438.98   487.44   529.77   563.83
                              601.40   621.72   658.87   701.41   735.78
                              808.57   850.65   893.83  1024.49  1090.90
                             1119.55  1155.79  1181.02  1217.82  1232.34
                             1256.91  1292.35  1344.94  1406.91  1415.18
                             1416.47  1478.78  1511.35  1570.25  1575.54
                             1586.25  1613.98  1620.91  1651.86  1690.86
                             1724.21  1740.61  1819.96  1820.90  1852.47
                             1880.76  1895.81  1903.96  1950.51  1968.23
                             1996.75  2008.35  2024.51  2065.78  2069.54
                             2076.83  2086.60  2128.74  2129.24  2157.46
                             2164.90  2174.84  2192.32  2193.23  2197.45
                             2202.29  2209.53  2217.72  2218.38  2220.08
                             2225.60  2239.66  2335.50  2366.80  4312.87
                             4325.32  4365.92  4366.35  4377.10  4384.65
                             4397.71  4416.83  4464.36  4468.23  4474.74
                             4489.76  4494.71  4500.49  4506.23  4509.19
                             4514.19  4551.90  4565.48  5058.88  5223.20

 Zero-point correction=                           0.327956 (Hartree/Particle)
 Thermal correction to Energy=                    0.345669
 Thermal correction to Enthalpy=                  0.346613
 Thermal correction to Gibbs Free Energy=         0.281791
 Sum of electronic and zero-point Energies=           -705.288463
 Sum of electronic and thermal Energies=              -705.270749
 Sum of electronic and thermal Enthalpies=            -705.269805
 Sum of electronic and thermal Free Energies=         -705.334627

                     E (Thermal)             CV                S
                      KCal/Mol        Cal/Mol-Kelvin    Cal/Mol-Kelvin
 Total                  216.910             65.310            136.429
 Electronic               0.000              0.000              0.000
 Translational            0.889              2.981             42.111
 Rotational               0.889              2.981             32.787
 Vibrational            215.133             59.348             61.532
 Vibration     1          0.593              1.984              5.936
 Vibration     2          0.594              1.982              5.362
 Vibration     3          0.596              1.974              4.521
 Vibration     4          0.597              1.973              4.409
 Vibration     5          0.601              1.958              3.730
 Vibration     6          0.606              1.942              3.285
 Vibration     7          0.615              1.914              2.818
 Vibration     8          0.618              1.902              2.661
 Vibration     9          0.632              1.858              2.260
 Vibration    10          0.639              1.836              2.107
 Vibration    11          0.641              1.828              2.061
 Vibration    12          0.645              1.816              1.990
 Vibration    13          0.648              1.808              1.946
 Vibration    14          0.652              1.797              1.887
 Vibration    15          0.663              1.763              1.732
 Vibration    16          0.679              1.713              1.543
 Vibration    17          0.696              1.664              1.389
 Vibration    18          0.719              1.598              1.218
 Vibration    19          0.741              1.538              1.087
 Vibration    20          0.759              1.488              0.993
 Vibration    21          0.781              1.431              0.899
 Vibration    22          0.793              1.400              0.852
 Vibration    23          0.816              1.343              0.772
 Vibration    24          0.843              1.278              0.690
 Vibration    25          0.866              1.225              0.630
 Vibration    26          0.918              1.114              0.520
 Vibration    27          0.949              1.050              0.465

                           ! Non-Optimized Parameters !
 Normal termination of Gaussian 16 at Thu Dec 10 22:29:11 2020.

 ----------------------------------------------------------------------
 # B3LYP/6-311++G(d,p) empiricaldispersion=gd3bj scf=xqc pop=npa geom=c
 heck
 ----------------------------------------------------------------------

 --------------------------------------
 CID_83024752_JID_6341_Energie_neutraal
 --------------------------------------
 Structure from the checkpoint file:  "JID_6341.chk"
 Charge =  0 Multiplicity = 1

 SCF Done:  E(RB3LYP) =  -705.812529206     A.U. after   14 cycles
 Normal termination of Gaussian 16 at Thu Dec 10 22:34:40 2020.

 ----------------------------------------------------------------------
 # B3LYP/6-311++G(d,p) empiricaldispersion=gd3bj scf=xqc pop=npa geom=c
 heck
 ----------------------------------------------------------------------

 ------------------------------------
 CID_83024752_JID_6341_Energie_kation
 ------------------------------------
 Structure from the checkpoint file:  "JID_6341.chk"
 Charge =  1 Multiplicity = 2

 SCF Done:  E(UB3LYP) =  -705.529106083     A.U. after   26 cycles
 Normal termination of Gaussian 16 at Thu Dec 10 22:49:32 2020.
 Gaussian 16:  ES64L-G16RevA.03 25-Dec-2016

 ----------------------------------------------------------------------
 # B3LYP/6-311++G(d,p) empiricaldispersion=gd3bj scf=xqc pop=npa geom=c
 heck
 ----------------------------------------------------------------------

 -----------------------------------
 CID_83024752_JID_6341_Energie_anion
 -----------------------------------
 Structure from the checkpoint file:  "JID_6341.chk"
 Charge = -1 Multiplicity = 2

                         Standard orientation:
 ---------------------------------------------------------------------
 Center     Atomic      Atomic             Coordinates (Angstroms)
 Number     Number       Type             X           Y           Z
 ---------------------------------------------------------------------
      1          6           0        4.646819    1.112448   -0.048986
      2          6           0        4.513138   -0.220862    0.688984
      3          6           0        3.060381   -0.632789    0.932785
      4          7           0        2.358629   -0.868312   -0.340661
      5          6           0        0.960507   -0.938265   -0.346668
      6          6           0        0.150894    0.162329   -0.039107
      7          6           0       -1.241158   -0.107637   -0.023770
      8          7           0       -1.754994   -1.304989   -0.365053
      9          6           0       -0.870321   -2.230292   -0.732729
     10          7           0        0.453801   -2.134375   -0.725993
     11          7           0       -2.130744    0.886433    0.307453
     12          7           0       -3.509565    0.723717    0.510610
     13          6           0       -4.236389    0.498963   -0.738200
     14          6           0       -3.843128   -0.234712    1.565724
     15          6           0        0.680459    1.569143    0.126059
     16          6           0        0.351255    2.461454   -1.085295
     17          1           0        4.108992    1.078652   -1.001329
     18          1           0        5.696127    1.351164   -0.252973
     19          1           0        4.228384    1.934128    0.545702
     20          1           0        5.015852   -1.013810    0.117434
     21          1           0        5.024603   -0.172139    1.659088
     22          1           0        3.024774   -1.533414    1.566412
     23          1           0        2.536914    0.153406    1.482498
     24          1           0        2.699209   -1.728893   -0.763589
     25          1           0       -1.284550   -3.183342   -1.058720
     26          1           0       -1.764886    1.730963    0.720000
     27          1           0       -4.039756   -0.486697   -1.179817
     28          1           0       -5.307548    0.594102   -0.528512
     29          1           0       -3.951925    1.276356   -1.452427
     30          1           0       -3.620130   -1.274447    1.294237
     31          1           0       -3.286352    0.028478    2.470306
     32          1           0       -4.912722   -0.138346    1.781696
     33          1           0        0.290729    2.028889    1.047502
     34          1           0        1.763605    1.548726    0.241075
     35          1           0       -0.725810    2.514466   -1.270681
     36          1           0        0.724779    3.479901   -0.930380
     37          1           0        0.825065    2.055847   -1.984802
 ---------------------------------------------------------------------

 SCF Done:  E(UB3LYP) =  -705.800898973     A.U. after   32 cycles

 The electronic state is 2-A.
 Alpha  occ. eigenvalues --  -14.25710 -14.24857 -14.21935 -14.20070 -14.19964
 Alpha  occ. eigenvalues --  -10.15314 -10.14252 -10.12961 -10.10512 -10.09317
 Alpha  occ. eigenvalues --  -10.09221 -10.07890 -10.07689 -10.07504 -10.06124
 Alpha  occ. eigenvalues --  -10.06006  -0.91747  -0.88110  -0.83220  -0.77742
 Alpha  occ. eigenvalues --   -0.74320  -0.69811  -0.68148  -0.63684  -0.61790
 Alpha  occ. eigenvalues --   -0.58934  -0.57060  -0.55077  -0.51063  -0.50379
 Alpha  occ. eigenvalues --   -0.49259  -0.46487  -0.43294  -0.40545  -0.38400
 Alpha  occ. eigenvalues --   -0.37603  -0.36405  -0.36243  -0.35405  -0.34950
 Alpha  occ. eigenvalues --   -0.34225  -0.33002  -0.32608  -0.31717  -0.30238
 Alpha  occ. eigenvalues --   -0.30103  -0.29806  -0.28287  -0.27994  -0.26916
 Alpha  occ. eigenvalues --   -0.26717  -0.25865  -0.25014  -0.24052  -0.23547
 Alpha  occ. eigenvalues --   -0.20258  -0.19649  -0.16388  -0.14404  -0.13507
 Alpha  occ. eigenvalues --   -0.12345   0.04205
 Alpha virt. eigenvalues --    0.06071   0.06897   0.07329   0.07503   0.08163
 Alpha virt. eigenvalues --    0.08405   0.08759   0.09077   0.09555   0.09833
 Alpha virt. eigenvalues --    0.10297   0.10961   0.11216   0.11969   0.12603

  Beta  occ. eigenvalues --  -14.25693 -14.24856 -14.21937 -14.20089 -14.19936
  Beta  occ. eigenvalues --  -10.15316 -10.14207 -10.12898 -10.10492 -10.09303
  Beta  occ. eigenvalues --  -10.09201 -10.07858 -10.07668 -10.07482 -10.06090
  Beta  occ. eigenvalues --  -10.05975  -0.91721  -0.88064  -0.83178  -0.77722
  Beta  occ. eigenvalues --   -0.74280  -0.69755  -0.68105  -0.63622  -0.61760
  Beta  occ. eigenvalues --   -0.58878  -0.57016  -0.55005  -0.51002  -0.50310
  Beta  occ. eigenvalues --   -0.49197  -0.46440  -0.43262  -0.40512  -0.38369
  Beta  occ. eigenvalues --   -0.37571  -0.36364  -0.36179  -0.35353  -0.34923
  Beta  occ. eigenvalues --   -0.34179  -0.32934  -0.32558  -0.31678  -0.30211
  Beta  occ. eigenvalues --   -0.30068  -0.29761  -0.28220  -0.27964  -0.26861
  Beta  occ. eigenvalues --   -0.26665  -0.25813  -0.24975  -0.23997  -0.23501
  Beta  occ. eigenvalues --   -0.20117  -0.19599  -0.16366  -0.14374  -0.13494
  Beta  occ. eigenvalues --   -0.12229
  Beta virt. eigenvalues --    0.06264   0.06688   0.07388   0.07911   0.08033
  Beta virt. eigenvalues --    0.08435   0.08608   0.08963   0.09233   0.09997
  Beta virt. eigenvalues --    0.10214   0.10603   0.11254   0.11320   0.12156

 Mulliken charges and spin densities:
               1          2
     1  C    0.227304  -0.711931
     2  C    0.397638  -0.717866
     3  C   -0.284142   0.086242
     4  N   -0.135450   0.116284
     5  C   -0.723673   0.043049
     6  C    0.230225   0.292865
     7  C   -0.039542  -0.291663
     8  N   -0.114717   0.016548
     9  C    0.332716  -0.180630
    10  N   -0.073955  -0.047651
    11  N   -0.027020  -0.000524
    12  N   -0.322330   0.259940
    13  C    0.032229  -0.346674
    14  C    0.127669  -0.436730
    15  C   -0.348785  -0.060219
    16  C    0.243149  -0.956059
    17  H    0.022782   0.131329
    18  H   -0.343114   0.497697
    19  H   -0.314670   0.457501
    20  H    0.014622   0.097571
    21  H   -0.210444   0.358935
    22  H   -0.211268   0.389495
    23  H   -0.125361   0.279010
    24  H    0.239600   0.032234
    25  H    0.162538   0.022580
    26  H    0.162609   0.179471
    27  H    0.092769   0.043672
    28  H   -0.016758   0.159936
    29  H   -0.052654   0.184224
    30  H    0.089061   0.046145
    31  H   -0.073380   0.223661
    32  H   -0.137545   0.274593
    33  H   -0.784711   0.957356
    34  H    1.254763  -1.137983
    35  H    0.164890  -0.019189
    36  H   -0.458633   0.606594
    37  H    0.003587   0.150186
 Sum of Mulliken charges =  -1.00000   1.00000

 Dipole moment (field-independent basis, Debye):
    X=             -3.1338    Y=             -4.1862    Z=             -2.2878  Tot=              5.7078
 Quadrupole moment (field-independent basis, Debye-Ang):
   XX=           -183.9661   YY=           -147.8085   ZZ=           -132.8445
   XY=             -4.9189   XZ=             -2.1974   YZ=             -3.7834

 Summary of Natural Population Analysis:

                                       Natural Population
                Natural  -----------------------------------------------
    Atom  No    Charge         Core      Valence    Rydberg      Total
 -----------------------------------------------------------------------
      C    1   -0.28923      0.99967     2.28399    0.00557     3.28923
      C    2   -0.19294      0.99964     2.18482    0.00848     3.19294
      C    3   -0.08363      0.99960     2.07457    0.00945     3.08363
      N    4   -0.32796      0.99968     2.81813    0.01015     3.82796
      C    5    0.22312      0.99947     1.76263    0.01478     2.77688
      C    6   -0.07903      0.99943     2.06957    0.01003     3.07903
      C    7    0.21219      0.99949     1.77183    0.01649     2.78781
      N    8   -0.28530      0.99967     2.77627    0.00935     3.78530
      C    9    0.15960      0.99966     1.82221    0.01852     2.84040
      N   10   -0.28805      0.99968     2.77853    0.00984     3.78805
      N   11   -0.21829      0.99964     2.70503    0.01362     3.71829
      N   12   -0.18291      0.99975     2.66831    0.01485     3.68291
      C   13   -0.17786      0.99964     2.17134    0.00689     3.17786
      C   14   -0.18109      0.99964     2.17476    0.00669     3.18109
      C   15   -0.20655      0.99962     2.19692    0.01001     3.20655
      C   16   -0.28175      0.99966     2.27671    0.00538     3.28175
      H   17    0.10279      0.00000     0.39587    0.00134     0.39721
      H   18    0.09823      0.00000     0.40079    0.00098     0.40177
      H   19    0.09780      0.00000     0.40077    0.00143     0.40220
      H   20    0.09097      0.00000     0.40787    0.00116     0.40903
      H   21    0.09842      0.00000     0.40033    0.00125     0.40158
      H   22    0.08718      0.00000     0.41157    0.00126     0.41282
      H   23    0.09650      0.00000     0.40153    0.00197     0.40350
      H   24    0.18301      0.00000     0.31337    0.00362     0.31699
      H   25    0.07797      0.00000     0.42089    0.00114     0.42203
      H   26    0.19524      0.00000     0.30117    0.00359     0.30476
      H   27    0.09368      0.00000     0.40461    0.00171     0.40632
      H   28    0.09062      0.00000     0.40833    0.00105     0.40938
      H   29    0.09748      0.00000     0.40127    0.00125     0.40252
      H   30    0.09470      0.00000     0.40358    0.00172     0.40530
      H   31    0.09738      0.00000     0.40130    0.00132     0.40262
      H   32    0.09201      0.00000     0.40689    0.00110     0.40799
      H   33    0.09940      0.00000     0.39766    0.00294     0.40060
      H   34    0.10959      0.00000     0.38805    0.00237     0.39041
      H   35    0.09781      0.00000     0.40092    0.00126     0.40219
      H   36    0.10099      0.00000     0.39773    0.00128     0.39901
      H   37    0.09793      0.00000     0.40112    0.00095     0.40207
 =======================================================================
   * Total *    0.00000     15.99394    44.80127    0.20479    61.00000

 Normal termination of Gaussian 16 at Thu Dec 10 23:08:44 2020.
