 Gaussian 16, Revision A.03,

 -----------------------------------------------------------
 # opt freq B3LYP/6-31G(d) empiricaldispersion=gd3bj scf=xqc
 -----------------------------------------------------------

 -------------------------------
 CID_117368131_JID_8510_neutraal
 -------------------------------
 Symbolic Z-matrix:
 Charge =  0 Multiplicity = 1

 SCF Done:  E(RB3LYP) =  -804.351977400     A.U. after   15 cycles
 SCF Done:  E(RB3LYP) =  -804.358771378     A.U. after   12 cycles
 SCF Done:  E(RB3LYP) =  -804.360093111     A.U. after   13 cycles
 SCF Done:  E(RB3LYP) =  -804.361521749     A.U. after   12 cycles
 SCF Done:  E(RB3LYP) =  -804.361355143     A.U. after   12 cycles
 SCF Done:  E(RB3LYP) =  -804.362005547     A.U. after   12 cycles
 SCF Done:  E(RB3LYP) =  -804.362090031     A.U. after   10 cycles
 SCF Done:  E(RB3LYP) =  -804.362116176     A.U. after   10 cycles
 SCF Done:  E(RB3LYP) =  -804.362130216     A.U. after    9 cycles
 SCF Done:  E(RB3LYP) =  -804.362135898     A.U. after    9 cycles
 SCF Done:  E(RB3LYP) =  -804.362137716     A.U. after    8 cycles
 SCF Done:  E(RB3LYP) =  -804.362138474     A.U. after    8 cycles
 SCF Done:  E(RB3LYP) =  -804.362138640     A.U. after    7 cycles
 Optimization completed.
    -- Stationary point found.
 Normal termination of Gaussian 16 at Mon Dec 14 18:53:05 2020.

 --------------------------------------------------------------------
 #N Geom=AllCheck Guess=TCheck SCRF=Check GenChk RB3LYP/6-31G(d) Freq
 --------------------------------------------------------------------

 Structure from the checkpoint file:  "JID_8510.chk"
 -------------------------------
 CID_117368131_JID_8510_neutraal
 -------------------------------
 Charge =  0 Multiplicity = 1

 SCF Done:  E(RB3LYP) =  -804.362138640     A.U. after    1 cycles

  Exact polarizability: 213.493  -7.597 164.854  -8.094   3.640 106.356
 Approx polarizability: 301.117 -10.038 264.793 -17.421  11.547 163.892

                      1                      2                      3
                      A                      A                      A
 Frequencies --     31.7715                42.5700                67.8901
 Red. masses --      3.7219                 4.9388                 4.9394
 Frc consts  --      0.0022                 0.0053                 0.0134
 IR Inten    --      0.9702                 0.6554                 3.5066

                      4                      5                      6
                      A                      A                      A
 Frequencies --     87.2208               127.0205               131.5525
 Red. masses --      4.3388                 3.6870                 3.5566
 Frc consts  --      0.0194                 0.0350                 0.0363
 IR Inten    --      4.0102                 0.1155                 0.3382

                      7                      8                      9
                      A                      A                      A
 Frequencies --    163.1773               184.0928               205.7104
 Red. masses --      2.8866                 1.3828                 3.1517
 Frc consts  --      0.0453                 0.0276                 0.0786
 IR Inten    --      3.6705                 4.0635                 0.9129

                     10                     11                     12
                      A                      A                      A
 Frequencies --    231.2103               235.8113               248.5862
 Red. masses --      1.1834                 4.1888                 2.6756
 Frc consts  --      0.0373                 0.1372                 0.0974
 IR Inten    --      5.8762                 2.6165                11.7132

                     13                     14                     15
                      A                      A                      A
 Frequencies --    259.3409               265.8198               293.3980
 Red. masses --      1.5460                 1.9720                 2.3664
 Frc consts  --      0.0613                 0.0821                 0.1200
 IR Inten    --     17.2105                26.7677                 4.4282

                     16                     17                     18
                      A                      A                      A
 Frequencies --    304.8693               324.4142               334.5554
 Red. masses --      2.9765                 1.3479                 2.5822
 Frc consts  --      0.1630                 0.0836                 0.1703
 IR Inten    --     13.0293                76.9258                 4.9306

                     19                     20                     21
                      A                      A                      A
 Frequencies --    356.7957               386.5118               407.4919
 Red. masses --      2.5059                 2.7800                 3.7904
 Frc consts  --      0.1880                 0.2447                 0.3708
 IR Inten    --      2.3894                 9.6616                 2.5523

                     22                     23                     24
                      A                      A                      A
 Frequencies --    425.3403               448.6543               473.0020
 Red. masses --      2.3593                 1.9396                 3.4143
 Frc consts  --      0.2515                 0.2300                 0.4501
 IR Inten    --     35.8473                50.8677                 4.6755

                     25                     26                     27
                      A                      A                      A
 Frequencies --    530.4500               568.1711               573.7916
 Red. masses --      3.0007                 4.0847                 3.4932
 Frc consts  --      0.4975                 0.7769                 0.6776
 IR Inten    --      1.0862                 3.9717                 5.4113

                     28                     29                     30
                      A                      A                      A
 Frequencies --    601.1907               622.6273               648.5671
 Red. masses --      3.1780                 4.7086                 5.0364
 Frc consts  --      0.6767                 1.0755                 1.2482
 IR Inten    --      1.0058                14.6034                 4.8891

                     31                     32                     33
                      A                      A                      A
 Frequencies --    691.1744               697.0200               718.3805
 Red. masses --      1.6938                 3.6014                 2.0708
 Frc consts  --      0.4768                 1.0309                 0.6296
 IR Inten    --     40.1509                 3.3809                16.2965

                     34                     35                     36
                      A                      A                      A
 Frequencies --    745.2547               782.7627               796.6653
 Red. masses --      6.5689                 4.7803                 3.5358
 Frc consts  --      2.1496                 1.7257                 1.3222
 IR Inten    --      2.7707                 6.6595                15.4588

                     37                     38                     39
                      A                      A                      A
 Frequencies --    810.1671               872.7427               910.7446
 Red. masses --      1.9964                 2.4639                 1.4273
 Frc consts  --      0.7720                 1.1057                 0.6975
 IR Inten    --      9.6057                19.1402                 6.6373

                     40                     41                     42
                      A                      A                      A
 Frequencies --    913.0474               920.4972               955.1992
 Red. masses --      1.4305                 1.8428                 1.4707
 Frc consts  --      0.7026                 0.9200                 0.7906
 IR Inten    --      1.7677                 5.3821                 1.6640

                     43                     44                     45
                      A                      A                      A
 Frequencies --    972.7601               994.8506              1016.3207
 Red. masses --      1.2790                 1.6524                 2.1013
 Frc consts  --      0.7131                 0.9636                 1.2788
 IR Inten    --      0.0941                14.9468                 9.1524

                     46                     47                     48
                      A                      A                      A
 Frequencies --   1027.5867              1044.3342              1052.9718
 Red. masses --      5.3110                 1.3391                 2.5315
 Frc consts  --      3.3042                 0.8605                 1.6537
 IR Inten    --      1.4120                 0.9394                11.9231

                     49                     50                     51
                      A                      A                      A
 Frequencies --   1078.9439              1086.5703              1090.1405
 Red. masses --      2.4894                 2.5751                 1.8347
 Frc consts  --      1.7075                 1.7913                 1.2846
 IR Inten    --     18.4680                55.1613                23.0919

                     52                     53                     54
                      A                      A                      A
 Frequencies --   1108.3511              1123.5188              1149.2496
 Red. masses --      1.7888                 1.7582                 1.5533
 Frc consts  --      1.2947                 1.3076                 1.2088
 IR Inten    --     34.8036                 1.5740                10.2521

                     55                     56                     57
                      A                      A                      A
 Frequencies --   1164.8017              1193.9024              1212.9271
 Red. masses --      2.0834                 2.9806                 1.1526
 Frc consts  --      1.6654                 2.5032                 0.9990
 IR Inten    --      1.8770                25.1698                 0.2804

                     58                     59                     60
                      A                      A                      A
 Frequencies --   1222.3484              1263.3997              1303.5478
 Red. masses --      1.9289                 2.1258                 2.5947
 Frc consts  --      1.6980                 1.9992                 2.5977
 IR Inten    --      5.1103                 8.9175                 3.1529

                     61                     62                     63
                      A                      A                      A
 Frequencies --   1317.6409              1339.3734              1349.6205
 Red. masses --      3.3184                 2.9674                 2.8059
 Frc consts  --      3.3945                 3.1364                 3.0112
 IR Inten    --     35.3348                 7.2316                 2.4751

                     64                     65                     66
                      A                      A                      A
 Frequencies --   1373.9551              1400.2508              1410.9896
 Red. masses --      1.8316                 1.2229                 2.3561
 Frc consts  --      2.0372                 1.4127                 2.7637
 IR Inten    --      0.4655                 5.2865                46.1015

                     67                     68                     69
                      A                      A                      A
 Frequencies --   1425.5972              1429.8145              1434.8412
 Red. masses --      1.2275                 1.7286                 1.9330
 Frc consts  --      1.4699                 2.0821                 2.3447
 IR Inten    --      3.3159                77.7860               156.9174

                     70                     71                     72
                      A                      A                      A
 Frequencies --   1454.8841              1462.1637              1491.7801
 Red. masses --      1.2312                 1.2889                 3.5898
 Frc consts  --      1.5355                 1.6236                 4.7068
 IR Inten    --     15.7473                21.9366                42.0935

                     73                     74                     75
                      A                      A                      A
 Frequencies --   1512.0608              1516.1387              1522.9286
 Red. masses --      1.0593                 1.0552                 1.0504
 Frc consts  --      1.4269                 1.4290                 1.4354
 IR Inten    --     10.3787                 0.3772                 4.2008

                     76                     77                     78
                      A                      A                      A
 Frequencies --   1530.0158              1531.4276              1532.7594
 Red. masses --      1.0892                 1.1373                 1.0591
 Frc consts  --      1.5023                 1.5716                 1.4660
 IR Inten    --     10.4724                12.5705                 8.9756

                     79                     80                     81
                      A                      A                      A
 Frequencies --   1544.7111              1553.1061              1645.1765
 Red. masses --      1.2659                 1.6196                 5.5643
 Frc consts  --      1.7797                 2.3017                 8.8733
 IR Inten    --     17.3309                43.1054                34.6238

                     82                     83                     84
                      A                      A                      A
 Frequencies --   1668.2369              1704.0315              1831.3572
 Red. masses --      5.6273                 6.1477                10.7574
 Frc consts  --      9.2271                10.5176                21.2571
 IR Inten    --     58.1002                 3.4675               474.6484

                     85                     86                     87
                      A                      A                      A
 Frequencies --   3007.0184              3039.9882              3050.2095
 Red. masses --      1.0710                 1.0381                 1.0386
 Frc consts  --      5.7059                 5.6525                 5.6933
 IR Inten    --     63.1261                29.7335                21.4232

                     88                     89                     90
                      A                      A                      A
 Frequencies --   3050.5912              3104.3278              3106.3251
 Red. masses --      1.0378                 1.1015                 1.0945
 Frc consts  --      5.6902                 6.2544                 6.2227
 IR Inten    --     40.5066                36.6690                 9.6224

                     91                     92                     93
                      A                      A                      A
 Frequencies --   3108.4982              3115.9464              3129.3808
 Red. masses --      1.0984                 1.1003                 1.0990
 Frc consts  --      6.2533                 6.2943                 6.3409
 IR Inten    --      9.4215                52.6630                12.5427

                     94                     95                     96
                      A                      A                      A
 Frequencies --   3133.0921              3135.2353              3186.6839
 Red. masses --      1.1021                 1.1005                 1.0863
 Frc consts  --      6.3739                 6.3736                 6.4993
 IR Inten    --     19.2237                26.9881                 8.7542

                     97                     98                     99
                      A                      A                      A
 Frequencies --   3203.7825              3245.3958              3275.9819
 Red. masses --      1.0935                 1.0934                 1.0895
 Frc consts  --      6.6130                 6.7855                 6.8893
 IR Inten    --     28.6750                 1.9011                 1.7250

                    100                    101                    102
                      A                      A                      A
 Frequencies --   3298.2666              3691.4233              3759.8490
 Red. masses --      1.0986                 1.0805                 1.0658
 Frc consts  --      7.0412                 8.6745                 8.8771
 IR Inten    --      2.0295                87.6857                15.9066

 - Thermochemistry -
 -------------------
 Temperature   298.150 Kelvin.  Pressure   1.00000 Atm.
 Atom     1 has atomic number  6 and mass  12.00000

 Molecular mass:   246.13683 amu.
 Principal axes and moments of inertia in atomic units:
                           1         2         3
     Eigenvalues --  2445.145716542.323077972.83132
           X            0.99991  -0.01198   0.00664
           Y            0.01201   0.99991  -0.00511
           Z           -0.00658   0.00519   0.99996
 This molecule is an asymmetric top.
 Rotational symmetry number  1.
 Warning -- assumption of classical behavior for rotation
           may cause significant error
 Rotational temperatures (Kelvin)      0.03542     0.01324     0.01086
 Rotational constants (GHZ):           0.73809     0.27586     0.22636
 Zero-point vibrational energy     796274.2 (Joules/Mol)
                                  190.31409 (Kcal/Mol)
 Warning -- explicit consideration of  28 degrees of freedom as
           vibrations may cause significant error
 Vibrational temperatures:     45.71    61.25    97.68   125.49   182.75
          (Kelvin)            189.27   234.78   264.87   295.97   332.66
                              339.28   357.66   373.13   382.46   422.13
                              438.64   466.76   481.35   513.35   556.10
                              586.29   611.97   645.51   680.54   763.20
                              817.47   825.56   864.98   895.82   933.14
                              994.45  1002.86  1033.59  1072.26  1126.22
                             1146.22  1165.65  1255.68  1310.36  1313.67
                             1324.39  1374.32  1399.58  1431.37  1462.26
                             1478.47  1502.56  1514.99  1552.36  1563.33
                             1568.47  1594.67  1616.49  1653.51  1675.89
                             1717.76  1745.13  1758.69  1817.75  1875.51
                             1895.79  1927.06  1941.80  1976.81  2014.65
                             2030.10  2051.12  2057.18  2064.42  2093.25
                             2103.73  2146.34  2175.52  2181.39  2191.15
                             2201.35  2203.38  2205.30  2222.49  2234.57
                             2367.04  2400.22  2451.72  2634.91  4326.43
                             4373.86  4388.57  4389.12  4466.44  4469.31
                             4472.44  4483.15  4502.48  4507.82  4510.90
                             4584.93  4609.53  4669.40  4713.41  4745.47
                             5311.13  5409.58

 Zero-point correction=                           0.303285 (Hartree/Particle)
 Thermal correction to Energy=                    0.320852
 Thermal correction to Enthalpy=                  0.321796
 Thermal correction to Gibbs Free Energy=         0.258363
 Sum of electronic and zero-point Energies=           -804.058854
 Sum of electronic and thermal Energies=              -804.041287
 Sum of electronic and thermal Enthalpies=            -804.040342
 Sum of electronic and thermal Free Energies=         -804.103776

                     E (Thermal)             CV                S
                      KCal/Mol        Cal/Mol-Kelvin    Cal/Mol-Kelvin
 Total                  201.338             68.093            133.506
 Electronic               0.000              0.000              0.000
 Translational            0.889              2.981             42.403
 Rotational               0.889              2.981             33.211
 Vibrational            199.560             62.131             57.893
 Vibration     1          0.594              1.983              5.716
 Vibration     2          0.595              1.980              5.136
 Vibration     3          0.598              1.970              4.214
 Vibration     4          0.601              1.958              3.721
 Vibration     5          0.611              1.926              2.991
 Vibration     6          0.612              1.922              2.923
 Vibration     7          0.623              1.888              2.513
 Vibration     8          0.631              1.862              2.287
 Vibration     9          0.640              1.832              2.081
 Vibration    10          0.653              1.793              1.870
 Vibration    11          0.655              1.786              1.834
 Vibration    12          0.662              1.765              1.741
 Vibration    13          0.668              1.747              1.666
 Vibration    14          0.672              1.736              1.623
 Vibration    15          0.688              1.686              1.454
 Vibration    16          0.696              1.664              1.390
 Vibration    17          0.709              1.627              1.288
 Vibration    18          0.716              1.606              1.238
 Vibration    19          0.732              1.561              1.136
 Vibration    20          0.755              1.499              1.014
 Vibration    21          0.772              1.454              0.936
 Vibration    22          0.787              1.415              0.874
 Vibration    23          0.808              1.364              0.800
 Vibration    24          0.830              1.310              0.729
 Vibration    25          0.885              1.183              0.586
 Vibration    26          0.924              1.100              0.508
 Vibration    27          0.930              1.088              0.497
 Vibration    28          0.959              1.029              0.448

 Optimization completed.
    -- Stationary point found.
 Normal termination of Gaussian 16 at Mon Dec 14 19:11:28 2020.

 ----------------------------------------------------------------------
 # B3LYP/6-311++G(d,p) empiricaldispersion=gd3bj scf=xqc pop=npa geom=c
 heck
 ----------------------------------------------------------------------

 ---------------------------------------
 CID_117368131_JID_8510_Energie_neutraal
 ---------------------------------------
 Structure from the checkpoint file:  "JID_8510.chk"
 Charge =  0 Multiplicity = 1

 SCF Done:  E(RB3LYP) =  -804.593339101     A.U. after   15 cycles
 Normal termination of Gaussian 16 at Mon Dec 14 19:19:39 2020.

 ----------------------------------------------------------------------
 # B3LYP/6-311++G(d,p) empiricaldispersion=gd3bj scf=xqc pop=npa geom=c
 heck
 ----------------------------------------------------------------------

 -------------------------------------
 CID_117368131_JID_8510_Energie_kation
 -------------------------------------
 Structure from the checkpoint file:  "JID_8510.chk"
 Charge =  1 Multiplicity = 2

 SCF Done:  E(UB3LYP) =  -804.329157032     A.U. after   24 cycles
 Normal termination of Gaussian 16 at Mon Dec 14 19:38:14 2020.
 Gaussian 16:  ES64L-G16RevA.03 25-Dec-2016

 ----------------------------------------------------------------------
 # B3LYP/6-311++G(d,p) empiricaldispersion=gd3bj scf=xqc pop=npa geom=c
 heck
 ----------------------------------------------------------------------

 ------------------------------------
 CID_117368131_JID_8510_Energie_anion
 ------------------------------------
 Structure from the checkpoint file:  "JID_8510.chk"
 Charge = -1 Multiplicity = 2

                         Standard orientation:
 ---------------------------------------------------------------------
 Center     Atomic      Atomic             Coordinates (Angstroms)
 Number     Number       Type             X           Y           Z
 ---------------------------------------------------------------------
      1          6           0       -1.440964    2.180670   -1.185498
      2          6           0       -2.351458    1.295401   -0.401921
      3          6           0       -3.622117    1.520123    0.001836
      4          7           0       -4.098545    0.353020    0.601455
      5          6           0       -3.145430   -0.649339    0.573859
      6          8           0       -3.237056   -1.793966    0.994184
      7          7           0       -2.041841   -0.037168   -0.048106
      8          6           0       -0.794860   -0.690170   -0.218461
      9          6           0       -0.745617   -1.982621   -0.743271
     10          6           0        0.497694   -2.584840   -0.921929
     11          6           0        1.671662   -1.906545   -0.599049
     12          6           0        1.632683   -0.614301   -0.054254
     13          6           0        0.380681   -0.028126    0.146692
     14          6           0        2.937989    0.106041    0.304770
     15          6           0        3.740334   -0.738033    1.317345
     16          6           0        3.777120    0.309424   -0.974693
     17          6           0        2.704652    1.478952    0.971940
     18          8           0        2.041510    2.449053    0.167199
     19          1           0       -0.549762    2.495113   -0.632675
     20          1           0       -1.989925    3.078238   -1.485657
     21          1           0       -1.092073    1.675235   -2.094445
     22          1           0       -4.234981    2.399481   -0.116949
     23          1           0       -5.013247    0.199222    0.993249
     24          1           0       -1.664476   -2.498974   -0.991119
     25          1           0        0.551589   -3.591149   -1.327565
     26          1           0        2.625972   -2.397400   -0.765856
     27          1           0        0.303661    0.957127    0.580249
     28          1           0        3.980852   -1.724681    0.911899
     29          1           0        4.684628   -0.242881    1.574004
     30          1           0        3.167858   -0.887910    2.239233
     31          1           0        3.217359    0.873132   -1.730015
     32          1           0        4.708146    0.845561   -0.749977
     33          1           0        4.045686   -0.648865   -1.428345
     34          1           0        2.080732    1.360757    1.862908
     35          1           0        3.679968    1.865179    1.306398
     36          1           0        2.590867    2.611340   -0.614028
 ---------------------------------------------------------------------

 SCF Done:  E(UB3LYP) =  -804.583905796     A.U. after   33 cycles
 SCF Done:  E(UB3LYP) =  -804.583905796     a.u. after    1 cycles

 The electronic state is 2-A.
 Alpha  occ. eigenvalues --  -19.03533 -18.99132 -14.27241 -14.26401 -10.20246
 Alpha  occ. eigenvalues --  -10.13050 -10.12738 -10.12293 -10.11109 -10.10566
 Alpha  occ. eigenvalues --  -10.09700 -10.09062 -10.08685 -10.08586 -10.08472
 Alpha  occ. eigenvalues --  -10.08408 -10.07753 -10.07252  -0.96794  -0.93689
 Alpha  occ. eigenvalues --   -0.89532  -0.83353  -0.77331  -0.72955  -0.69276
 Alpha  occ. eigenvalues --   -0.66391  -0.65103  -0.60887  -0.60582  -0.59229
 Alpha  occ. eigenvalues --   -0.56343  -0.53902  -0.51451  -0.49629  -0.46341
 Alpha  occ. eigenvalues --   -0.44309  -0.43683  -0.40616  -0.39479  -0.39425
 Alpha  occ. eigenvalues --   -0.37564  -0.36873  -0.36646  -0.35545  -0.34281
 Alpha  occ. eigenvalues --   -0.34022  -0.33148  -0.32617  -0.32312  -0.31855
 Alpha  occ. eigenvalues --   -0.30637  -0.30178  -0.29612  -0.29031  -0.28241
 Alpha  occ. eigenvalues --   -0.26988  -0.25807  -0.25437  -0.23955  -0.23470
 Alpha  occ. eigenvalues --   -0.22121  -0.18986  -0.18254  -0.16388  -0.15754
 Alpha  occ. eigenvalues --   -0.10933   0.03727
 Alpha virt. eigenvalues --    0.04949   0.06512   0.06723   0.06953   0.07301
 Alpha virt. eigenvalues --    0.07610   0.08251   0.08810   0.09287   0.09946
 Alpha virt. eigenvalues --    0.10279   0.10705   0.11303   0.11402   0.11993

  Beta  occ. eigenvalues --  -19.03504 -18.99131 -14.27235 -14.26381 -10.20246
  Beta  occ. eigenvalues --  -10.13050 -10.12719 -10.12294 -10.11086 -10.10564
  Beta  occ. eigenvalues --  -10.09698 -10.09057 -10.08683 -10.08577 -10.08455
  Beta  occ. eigenvalues --  -10.08400 -10.07736 -10.07199  -0.96785  -0.93629
  Beta  occ. eigenvalues --   -0.89524  -0.83331  -0.77317  -0.72934  -0.69258
  Beta  occ. eigenvalues --   -0.66373  -0.65084  -0.60845  -0.60509  -0.59175
  Beta  occ. eigenvalues --   -0.56315  -0.53876  -0.51417  -0.49606  -0.46294
  Beta  occ. eigenvalues --   -0.44272  -0.43641  -0.40574  -0.39449  -0.39405
  Beta  occ. eigenvalues --   -0.37534  -0.36835  -0.36610  -0.35516  -0.34259
  Beta  occ. eigenvalues --   -0.34000  -0.33119  -0.32602  -0.32295  -0.31822
  Beta  occ. eigenvalues --   -0.30615  -0.30149  -0.29591  -0.28991  -0.28223
  Beta  occ. eigenvalues --   -0.26971  -0.25774  -0.25411  -0.23943  -0.23437
  Beta  occ. eigenvalues --   -0.22108  -0.18957  -0.18246  -0.16370  -0.15747
  Beta  occ. eigenvalues --   -0.10920
  Beta virt. eigenvalues --    0.05917   0.06359   0.06661   0.07161   0.07279
  Beta virt. eigenvalues --    0.07496   0.08247   0.08596   0.09291   0.09446
  Beta virt. eigenvalues --    0.10262   0.10658   0.10873   0.11523   0.11632

 Mulliken charges and spin densities:
               1          2
     1  C    0.516983  -1.313928
     2  C   -0.544378   0.799147
     3  C    0.669653  -0.960740
     4  N   -0.199141  -0.059709
     5  C    0.515525  -0.296746
     6  O   -0.413983   0.013132
     7  N    0.283906  -0.053059
     8  C    0.368046  -0.698591
     9  C    0.211616   0.099366
    10  C   -0.040221  -0.321631
    11  C   -0.134817  -0.493881
    12  C    0.205367   0.381203
    13  C   -0.294368  -0.093234
    14  C   -1.750697   2.390321
    15  C    0.180247  -0.879598
    16  C    1.224767  -1.852811
    17  C   -0.275643  -0.282495
    18  O   -0.183755  -0.010162
    19  H    0.105583   0.079837
    20  H   -0.092100   0.244685
    21  H    0.032574   0.150344
    22  H   -0.985216   1.167064
    23  H   -0.036397   0.387278
    24  H    0.177258   0.014066
    25  H    0.023178   0.143751
    26  H    0.126989  -0.001385
    27  H    0.565509  -0.310020
    28  H   -0.078170   0.226853
    29  H   -0.107343   0.265956
    30  H    0.107384   0.031345
    31  H   -0.001953   0.117074
    32  H   -0.582619   0.759605
    33  H   -0.338006   0.503272
    34  H   -0.022099   0.194218
    35  H   -0.224427   0.398184
    36  H   -0.009254   0.261293
 Sum of Mulliken charges =  -1.00000   1.00000

 Dipole moment (field-independent basis, Debye):
    X=             -0.3494    Y=             -3.2203    Z=             -0.0077  Tot=              3.2392
 Quadrupole moment (field-independent basis, Debye-Ang):
   XX=           -216.1755   YY=           -157.4805   ZZ=           -137.8412
   XY=             -3.1771   XZ=              9.4660   YZ=              6.0337

 Summary of Natural Population Analysis:

                                       Natural Population
                Natural  -----------------------------------------------
    Atom  No    Charge         Core      Valence    Rydberg      Total
 -----------------------------------------------------------------------
      C    1   -0.30533      0.99963     2.30054    0.00516     3.30533
      C    2    0.07085      0.99952     1.91882    0.01081     2.92915
      C    3   -0.03100      0.99947     2.01963    0.01190     3.03100
      N    4   -0.30379      0.99968     2.79455    0.00956     3.80379
      C    5    0.39328      0.99969     1.58333    0.02369     2.60672
      O    6   -0.33753      0.99988     3.33254    0.00512     4.33753
      N    7   -0.24278      0.99958     2.73273    0.01047     3.74278
      C    8    0.08118      0.99949     1.90786    0.01148     2.91882
      C    9   -0.10045      0.99952     2.09260    0.00833     3.10045
      C   10   -0.09647      0.99957     2.08791    0.00898     3.09647
      C   11   -0.10451      0.99951     2.09553    0.00947     3.10451
      C   12   -0.00725      0.99949     1.99479    0.01297     3.00725
      C   13   -0.09627      0.99947     2.09065    0.00616     3.09627
      C   14   -0.06422      0.99954     2.05122    0.01346     3.06422
      C   15   -0.28052      0.99963     2.27423    0.00666     3.28052
      C   16   -0.28746      0.99963     2.27952    0.00831     3.28746
      C   17   -0.00750      0.99953     1.99381    0.01416     3.00750
      O   18   -0.37214      0.99990     3.36538    0.00686     4.37214
      H   19    0.11587      0.00000     0.38272    0.00140     0.38413
      H   20    0.10870      0.00000     0.39051    0.00079     0.39130
      H   21    0.10734      0.00000     0.39152    0.00114     0.39266
      H   22    0.10846      0.00000     0.38869    0.00285     0.39154
      H   23    0.20641      0.00000     0.29088    0.00271     0.29359
      H   24    0.11202      0.00000     0.38703    0.00095     0.38798
      H   25    0.09975      0.00000     0.39951    0.00074     0.40025
      H   26    0.10076      0.00000     0.39786    0.00138     0.39924
      H   27    0.11239      0.00000     0.38516    0.00245     0.38761
      H   28    0.10208      0.00000     0.39703    0.00089     0.39792
      H   29    0.10175      0.00000     0.39726    0.00099     0.39825
      H   30    0.10118      0.00000     0.39802    0.00080     0.39882
      H   31    0.10147      0.00000     0.39695    0.00158     0.39853
      H   32    0.10363      0.00000     0.39415    0.00221     0.39637
      H   33    0.10433      0.00000     0.39429    0.00139     0.39567
      H   34    0.08892      0.00000     0.40988    0.00120     0.41108
      H   35    0.08397      0.00000     0.41465    0.00138     0.41603
      H   36    0.23289      0.00000     0.26275    0.00435     0.26711
 =======================================================================
   * Total *    0.00003     17.99271    47.79450    0.21275    65.99997

 Normal termination of Gaussian 16 at Mon Dec 14 20:03:52 2020.
