 Gaussian 16, Revision A.03,

 -----------------------------------------------------------
 # opt freq B3LYP/6-31G(d) empiricaldispersion=gd3bj scf=xqc
 -----------------------------------------------------------

 -------------------------------
 CID_148076704_JID_2376_neutraal
 -------------------------------
 Symbolic Z-matrix:
 Charge =  0 Multiplicity = 1

 SCF Done:  E(RB3LYP) =  -515.048745801     A.U. after   14 cycles
 SCF Done:  E(RB3LYP) =  -515.054507131     A.U. after   13 cycles
 SCF Done:  E(RB3LYP) =  -515.056797994     A.U. after   12 cycles
 SCF Done:  E(RB3LYP) =  -515.057816317     A.U. after   12 cycles
 SCF Done:  E(RB3LYP) =  -515.057969650     A.U. after   12 cycles
 SCF Done:  E(RB3LYP) =  -515.057998653     A.U. after   11 cycles
 SCF Done:  E(RB3LYP) =  -515.058085337     A.U. after   10 cycles
 SCF Done:  E(RB3LYP) =  -515.058091279     A.U. after   10 cycles
 SCF Done:  E(RB3LYP) =  -515.058092418     A.U. after    8 cycles
 SCF Done:  E(RB3LYP) =  -515.058092853     A.U. after    8 cycles
 SCF Done:  E(RB3LYP) =  -515.058092932     A.U. after    7 cycles
 Optimization completed.
    -- Stationary point found.

 1\1\GINC-NODE321\FOpt\RB3LYP\6-31G(d)\C9H13N3\VSC10255\09-Dec-2020\0\\
 # opt freq B3LYP/6-31G(d) empiricaldispersion=gd3bj scf=xqc\\CID_14807
 6704_JID_2376_neutraal\\0,1\C,1.1982656994,0.1475584029,0.4180681826\N
 ,0.2597719445,1.0823911752,1.0289595353\C,-1.1551658096,0.7430490988,0
 .8217944532\C,-1.6165216307,-0.520164218,1.5020578715\C,-2.5278852065,
 -0.5265147439,2.4915760823\C,-3.0703074665,-1.6586371835,3.2466456012\
 C,-2.4181488092,-2.9133819212,3.4226855736\N,-2.9653361763,-3.93380524
 56,4.0973906688\C,-4.1763950798,-3.7683678542,4.6364581857\C,-4.892796

 Normal termination of Gaussian 16 at Wed Dec  9 17:12:57 2020.

 --------------------------------------------------------------------
 #N Geom=AllCheck Guess=TCheck SCRF=Check GenChk RB3LYP/6-31G(d) Freq
 --------------------------------------------------------------------

 Structure from the checkpoint file:  "JID_2376.chk"
 -------------------------------
 CID_148076704_JID_2376_neutraal
 -------------------------------
 Charge =  0 Multiplicity = 1

 SCF Done:  E(RB3LYP) =  -515.058092932     A.U. after    1 cycles

  Exact polarizability: 188.351   8.255 116.249   4.893   3.054  59.555
 Approx polarizability: 270.148  15.390 194.303  11.172   9.812  91.623

                      1                      2                      3
                      A                      A                      A
 Frequencies --     32.0105                59.3366                83.0802
 Red. masses --      3.3411                 3.7698                 2.9288
 Frc consts  --      0.0020                 0.0078                 0.0119
 IR Inten    --      0.1329                 0.6057                 1.8701

                      4                      5                      6
                      A                      A                      A
 Frequencies --    132.0520               165.3839               206.5511
 Red. masses --      2.3447                 3.0674                 3.6931
 Frc consts  --      0.0241                 0.0494                 0.0928
 IR Inten    --      0.6462                 2.3955                 1.8304

                      7                      8                      9
                      A                      A                      A
 Frequencies --    235.5730               276.1836               314.1203
 Red. masses --      1.3192                 2.4651                 3.5316
 Frc consts  --      0.0431                 0.1108                 0.2053
 IR Inten    --      2.3783                 5.4129                 3.8300

                     10                     11                     12
                      A                      A                      A
 Frequencies --    346.1368               405.3721               442.6089
 Red. masses --      3.5135                 2.4955                 3.0197
 Frc consts  --      0.2480                 0.2416                 0.3485
 IR Inten    --      1.2766                 5.0212                 7.9969

                     13                     14                     15
                      A                      A                      A
 Frequencies --    457.3542               504.7338               525.4981
 Red. masses --      1.7988                 1.5397                 2.9086
 Frc consts  --      0.2217                 0.2311                 0.4732
 IR Inten    --     10.2309                26.0517                 7.8475

                     16                     17                     18
                      A                      A                      A
 Frequencies --    566.8524               589.8548               647.1244
 Red. masses --      3.4448                 6.2610                 4.4413
 Frc consts  --      0.6522                 1.2835                 1.0958
 IR Inten    --     23.8323                 5.1246                 8.4949

                     19                     20                     21
                      A                      A                      A
 Frequencies --    673.6349               774.2704               778.2548
 Red. masses --      1.5550                 2.5297                 1.8597
 Frc consts  --      0.4158                 0.8935                 0.6636
 IR Inten    --    175.0548                 7.5868               164.3621

                     22                     23                     24
                      A                      A                      A
 Frequencies --    787.6986               801.3247               878.2044
 Red. masses --      2.4384                 1.7246                 1.7989
 Frc consts  --      0.8914                 0.6525                 0.8174
 IR Inten    --     54.6373                16.7070                 6.2316

                     25                     26                     27
                      A                      A                      A
 Frequencies --    905.9432               941.7640               962.0601
 Red. masses --      3.2689                 3.0466                 1.4151
 Frc consts  --      1.5807                 1.5920                 0.7717
 IR Inten    --      4.8600                 5.1296                 0.9159

                     28                     29                     30
                      A                      A                      A
 Frequencies --    969.7911               988.0681              1036.4478
 Red. masses --      1.3309                 1.6399                 1.1115
 Frc consts  --      0.7375                 0.9433                 0.7035
 IR Inten    --      1.3664                 9.9922                30.8826

                     31                     32                     33
                      A                      A                      A
 Frequencies --   1060.8134              1078.1168              1117.8234
 Red. masses --      1.9708                 2.3426                 1.9945
 Frc consts  --      1.3067                 1.6043                 1.4683
 IR Inten    --      6.4632                23.3904                13.9063

                     34                     35                     36
                      A                      A                      A
 Frequencies --   1140.4999              1165.1732              1176.0349
 Red. masses --      2.8862                 1.3805                 1.2797
 Frc consts  --      2.2119                 1.1043                 1.0428
 IR Inten    --     14.3745                 6.4757                 2.6200

                     37                     38                     39
                      A                      A                      A
 Frequencies --   1188.6316              1253.4615              1284.9628
 Red. masses --      1.6804                 2.1604                 2.4624
 Frc consts  --      1.3988                 1.9999                 2.3954
 IR Inten    --     22.8242                 1.6560                11.6841

                     40                     41                     42
                      A                      A                      A
 Frequencies --   1323.6272              1338.5929              1351.6812
 Red. masses --      1.5742                 1.3397                 3.4447
 Frc consts  --      1.6249                 1.4143                 3.7081
 IR Inten    --      4.3172                11.3957                 9.2010

                     43                     44                     45
                      A                      A                      A
 Frequencies --   1360.3478              1374.3271              1399.2122
 Red. masses --      1.6965                 1.3557                 1.3290
 Frc consts  --      1.8498                 1.5087                 1.5330
 IR Inten    --      8.6554                14.6772                25.2123

                     46                     47                     48
                      A                      A                      A
 Frequencies --   1480.1654              1497.3262              1500.5737
 Red. masses --      1.1573                 2.2535                 1.2334
 Frc consts  --      1.4939                 2.9768                 1.6363
 IR Inten    --      0.6701                79.7403                16.8109

                     49                     50                     51
                      A                      A                      A
 Frequencies --   1506.8361              1511.8105              1521.2709
 Red. masses --      2.2491                 1.2417                 1.0612
 Frc consts  --      3.0088                 1.6721                 1.4470
 IR Inten    --      2.4623                21.2215                 9.9484

                     52                     53                     54
                      A                      A                      A
 Frequencies --   1548.5665              1623.0806              1642.3363
 Red. masses --      1.0462                 5.2422                 2.8041
 Frc consts  --      1.4782                 8.1366                 4.4562
 IR Inten    --      6.5909                51.1998                13.3469

                     55                     56                     57
                      A                      A                      A
 Frequencies --   1668.8913              1713.0222              2960.5603
 Red. masses --      1.5926                 5.5340                 1.0602
 Frc consts  --      2.6134                 9.5679                 5.4751
 IR Inten    --    154.1611                13.1823                76.2510

                     58                     59                     60
                      A                      A                      A
 Frequencies --   3031.9283              3073.6912              3077.7082
 Red. masses --      1.0605                 1.0728                 1.1035
 Frc consts  --      5.7436                 5.9717                 6.1584
 IR Inten    --     44.5084                55.9188                26.5492

                     61                     62                     63
                      A                      A                      A
 Frequencies --   3119.3850              3120.0835              3171.6304
 Red. masses --      1.1027                 1.0872                 1.0891
 Frc consts  --      6.3221                 6.2358                 6.4546
 IR Inten    --     32.4462                22.2532                24.7356

                     64                     65                     66
                      A                      A                      A
 Frequencies --   3182.7199              3196.6855              3219.9494
 Red. masses --      1.0896                 1.0883                 1.0956
 Frc consts  --      6.5029                 6.5525                 6.6927
 IR Inten    --     16.8855                 6.1987                23.0740

                     67                     68                     69
                      A                      A                      A
 Frequencies --   3486.1426              3535.7378              3647.8471
 Red. masses --      1.0739                 1.0466                 1.0997
 Frc consts  --      7.6893                 7.7090                 8.6220
 IR Inten    --      1.3561                10.1528                26.0023

 - Thermochemistry -
 -------------------
 Temperature   298.150 Kelvin.  Pressure   1.00000 Atm.
 Atom     1 has atomic number  6 and mass  12.00000

 Molecular mass:   163.11095 amu.
 Principal axes and moments of inertia in atomic units:
                           1         2         3
     Eigenvalues --   761.271744201.343704860.01585
           X            0.99991   0.01314   0.00202
           Y           -0.01314   0.99991  -0.00193
           Z           -0.00204   0.00191   1.00000
 This molecule is an asymmetric top.
 Rotational symmetry number  1.
 Warning -- assumption of classical behavior for rotation
           may cause significant error
 Rotational temperatures (Kelvin)      0.11378     0.02062     0.01782
 Rotational constants (GHZ):           2.37069     0.42956     0.37134
 Zero-point vibrational energy     563073.5 (Joules/Mol)
                                  134.57780 (Kcal/Mol)
 Warning -- explicit consideration of  17 degrees of freedom as
           vibrations may cause significant error
 Vibrational temperatures:     46.06    85.37   119.53   189.99   237.95
          (Kelvin)            297.18   338.94   397.37   451.95   498.01
                              583.24   636.82   658.03   726.20   756.07
                              815.57   848.67   931.07   969.21  1114.00
                             1119.74  1133.32  1152.93  1263.54  1303.45
                             1354.99  1384.19  1395.31  1421.61  1491.22
                             1526.27  1551.17  1608.30  1640.92  1676.42
                             1692.05  1710.18  1803.45  1848.77  1904.40
                             1925.94  1944.77  1957.24  1977.35  2013.15
                             2129.63  2154.32  2158.99  2168.00  2175.16
                             2188.77  2228.04  2335.25  2362.96  2401.16
                             2464.66  4259.59  4362.27  4422.36  4428.14
                             4488.10  4489.10  4563.27  4579.22  4599.32
                             4632.79  5015.78  5087.14  5248.44

 Zero-point correction=                           0.214463 (Hartree/Particle)
 Thermal correction to Energy=                    0.226105
 Thermal correction to Enthalpy=                  0.227049
 Thermal correction to Gibbs Free Energy=         0.175962
 Sum of electronic and zero-point Energies=           -514.843630
 Sum of electronic and thermal Energies=              -514.831988
 Sum of electronic and thermal Enthalpies=            -514.831044
 Sum of electronic and thermal Free Energies=         -514.882131

                     E (Thermal)             CV                S
                      KCal/Mol        Cal/Mol-Kelvin    Cal/Mol-Kelvin
 Total                  141.883             44.095            107.521
 Electronic               0.000              0.000              0.000
 Translational            0.889              2.981             41.176
 Rotational               0.889              2.981             31.120
 Vibrational            140.105             38.133             35.225
 Vibration     1          0.594              1.983              5.701
 Vibration     2          0.597              1.974              4.479
 Vibration     3          0.600              1.961              3.817
 Vibration     4          0.612              1.921              2.916
 Vibration     5          0.624              1.885              2.487
 Vibration     6          0.641              1.831              2.074
 Vibration     7          0.655              1.786              1.836
 Vibration     8          0.678              1.717              1.557
 Vibration     9          0.702              1.647              1.341
 Vibration    10          0.724              1.583              1.184
 Vibration    11          0.770              1.459              0.943
 Vibration    12          0.802              1.377              0.818
 Vibration    13          0.815              1.345              0.774
 Vibration    14          0.860              1.240              0.646
 Vibration    15          0.880              1.194              0.597
 Vibration    16          0.923              1.103              0.510
 Vibration    17          0.947              1.053              0.467

 Optimization completed.
    -- Stationary point found.

 1\1\GINC-NODE321\Freq\RB3LYP\6-31G(d)\C9H13N3\VSC10255\09-Dec-2020\0\\
 #N Geom=AllCheck Guess=TCheck SCRF=Check GenChk RB3LYP/6-31G(d) Freq\\
 CID_148076704_JID_2376_neutraal\\0,1\C,1.1982656994,0.1475584029,0.418
 0681826\N,0.2597719445,1.0823911752,1.0289595353\C,-1.1551658096,0.743
 0490988,0.8217944532\C,-1.6165216307,-0.520164218,1.5020578715\C,-2.52
 78852065,-0.5265147439,2.4915760823\C,-3.0703074665,-1.6586371835,3.24
 66456012\C,-2.4181488092,-2.9133819212,3.4226855736\N,-2.9653361763,-3
 .9338052456,4.0973906688\C,-4.1763950798,-3.7683678542,4.6364581857\C,

 Normal termination of Gaussian 16 at Wed Dec  9 17:17:40 2020.

 ----------------------------------------------------------------------
 # B3LYP/6-311++G(d,p) empiricaldispersion=gd3bj scf=xqc pop=npa geom=c
 heck
 ----------------------------------------------------------------------

 ---------------------------------------
 CID_148076704_JID_2376_Energie_neutraal
 ---------------------------------------
 Structure from the checkpoint file:  "JID_2376.chk"
 Charge =  0 Multiplicity = 1

 SCF Done:  E(RB3LYP) =  -515.207498696     A.U. after   15 cycles
 Normal termination of Gaussian 16 at Wed Dec  9 17:20:13 2020.

 ----------------------------------------------------------------------
 # B3LYP/6-311++G(d,p) empiricaldispersion=gd3bj scf=xqc pop=npa geom=c
 heck
 ----------------------------------------------------------------------

 -------------------------------------
 CID_148076704_JID_2376_Energie_kation
 -------------------------------------
 Structure from the checkpoint file:  "JID_2376.chk"
 Charge =  1 Multiplicity = 2

 SCF Done:  E(UB3LYP) =  -514.928828567     A.U. after   23 cycles
 Normal termination of Gaussian 16 at Wed Dec  9 17:24:47 2020.
 Gaussian 16:  ES64L-G16RevA.03 25-Dec-2016

 ------------------------------------
 CID_148076704_JID_2376_Energie_anion
 ------------------------------------
 Structure from the checkpoint file:  "JID_2376.chk"
 Charge = -1 Multiplicity = 2

                         Standard orientation:
 ---------------------------------------------------------------------
 Center     Atomic      Atomic             Coordinates (Angstroms)
 Number     Number       Type             X           Y           Z
 ---------------------------------------------------------------------
      1          6           0        4.188082    0.949134   -0.034529
      2          7           0        3.781631   -0.369691   -0.507149
      3          6           0        2.811966   -1.052377    0.361073
      4          6           0        1.451960   -0.406980    0.432919
      5          6           0        0.336068   -1.000214   -0.028197
      6          6           0       -1.043114   -0.506373   -0.033909
      7          6           0       -1.421452    0.866839    0.008898
      8          7           0       -2.698204    1.273368    0.032213
      9          6           0       -3.664077    0.350790    0.008431
     10          6           0       -3.420022   -1.017083   -0.076654
     11          6           0       -2.091125   -1.430874   -0.108038
     12          7           0       -0.479644    1.882613    0.044533
     13          1           0        4.675610    0.842916    0.941676
     14          1           0        3.371821    1.685190    0.080850
     15          1           0        4.922714    1.369150   -0.729350
     16          1           0        3.375777   -0.284488   -1.437786
     17          1           0        2.710520   -2.085053    0.004875
     18          1           0        3.261407   -1.101752    1.362649
     19          1           0        1.399217    0.572972    0.899340
     20          1           0        0.441215   -2.014782   -0.419236
     21          1           0       -4.682874    0.732907    0.043205
     22          1           0       -4.237204   -1.729072   -0.119703
     23          1           0       -1.848107   -2.488974   -0.172112
     24          1           0       -0.890612    2.783791   -0.171118
     25          1           0        0.384322    1.695995   -0.450435
 ---------------------------------------------------------------------

 SCF Done:  E(UB3LYP) =  -515.202172072     A.U. after   32 cycles

 The electronic state is 2-A.
 Alpha  occ. eigenvalues --  -14.19337 -14.17920 -14.16296 -10.10952 -10.07279
 Alpha  occ. eigenvalues --  -10.07071 -10.05725 -10.04164 -10.04037 -10.03876
 Alpha  occ. eigenvalues --  -10.03681 -10.02492  -0.83178  -0.78386  -0.75903
 Alpha  occ. eigenvalues --   -0.68396  -0.64329  -0.61105  -0.56983  -0.52226
 Alpha  occ. eigenvalues --   -0.49215  -0.48601  -0.44104  -0.39451  -0.38490
 Alpha  occ. eigenvalues --   -0.37892  -0.34699  -0.33290  -0.32708  -0.31226
 Alpha  occ. eigenvalues --   -0.31050  -0.28260  -0.27752  -0.26110  -0.25495
 Alpha  occ. eigenvalues --   -0.25270  -0.23453  -0.22998  -0.19376  -0.18072
 Alpha  occ. eigenvalues --   -0.13155  -0.13042  -0.10874  -0.08258   0.05040
 Alpha virt. eigenvalues --    0.07403   0.08444   0.09119   0.09424   0.09899
 Alpha virt. eigenvalues --    0.10538   0.11316   0.11805   0.12550   0.12877
 Alpha virt. eigenvalues --    0.13293   0.13678   0.14821   0.15625   0.15977

  Beta  occ. eigenvalues --  -14.19318 -14.17877 -14.16207 -10.10952 -10.07291
  Beta  occ. eigenvalues --  -10.07025 -10.05442 -10.04062 -10.03973 -10.03794
  Beta  occ. eigenvalues --  -10.03585 -10.02273  -0.83010  -0.78289  -0.75729
  Beta  occ. eigenvalues --   -0.68008  -0.64029  -0.60859  -0.56786  -0.51941
  Beta  occ. eigenvalues --   -0.48994  -0.48424  -0.43823  -0.39311  -0.38312
  Beta  occ. eigenvalues --   -0.37783  -0.34589  -0.33170  -0.32579  -0.31082
  Beta  occ. eigenvalues --   -0.30919  -0.27777  -0.27603  -0.25959  -0.25389
  Beta  occ. eigenvalues --   -0.25166  -0.23271  -0.22860  -0.18892  -0.16958
  Beta  occ. eigenvalues --   -0.13005  -0.12232  -0.10680  -0.07481
  Beta virt. eigenvalues --    0.07734   0.08370   0.09167   0.09610   0.10033
  Beta virt. eigenvalues --    0.10148   0.10567   0.11711   0.11882   0.12707
  Beta virt. eigenvalues --    0.12946   0.13376   0.13869   0.14897   0.15708

 Mulliken charges and spin densities:
               1          2
     1  C    0.730098  -1.132124
     2  N   -0.230566   0.202415
     3  C   -0.026548  -0.750761
     4  C   -0.584681   0.667426
     5  C   -0.202229  -0.456551
     6  C    1.566091   0.181511
     7  C   -1.441840   0.350956
     8  N   -0.141008   0.021206
     9  C   -0.337486   0.158806
    10  C   -0.117108  -0.025794
    11  C   -0.230414   0.112007
    12  N   -0.217242  -0.040346
    13  H   -0.148337   0.286707
    14  H   -0.215000   0.319822
    15  H   -0.465817   0.592132
    16  H    0.021686   0.180320
    17  H    0.087242   0.074596
    18  H    0.012853   0.116599
    19  H    0.235939  -0.085032
    20  H    0.068723   0.020538
    21  H    0.127613  -0.014535
    22  H    0.112665   0.015740
    23  H    0.055067   0.037731
    24  H    0.161202   0.093407
    25  H    0.179096   0.073224
 Sum of Mulliken charges =  -1.00000   1.00000

 Dipole moment (field-independent basis, Debye):
    X=             -3.2189    Y=             -1.6890    Z=              0.2369  Tot=              3.6428
 Quadrupole moment (field-independent basis, Debye-Ang):
   XX=           -146.5977   YY=            -92.5678   ZZ=            -89.2972
   XY=              0.7681   XZ=              5.1807   YZ=             -0.1237

 Summary of Natural Population Analysis:

                                       Natural Population
                Natural  -----------------------------------------------
    Atom  No    Charge         Core      Valence    Rydberg      Total
 -----------------------------------------------------------------------
      C    1   -0.18037      0.99966     2.17179    0.00893     3.18037
      N    2   -0.33562      0.99976     2.82251    0.01334     3.83562
      C    3   -0.10236      0.99961     2.08841    0.01434     3.10236
      C    4   -0.07445      0.99953     2.06650    0.00842     3.07445
      C    5   -0.08642      0.99953     2.07800    0.00890     3.08642
      C    6   -0.06356      0.99946     2.05394    0.01015     3.06356
      C    7    0.20410      0.99952     1.77997    0.01641     2.79590
      N    8   -0.26059      0.99968     2.75000    0.01091     3.76059
      C    9    0.07611      0.99961     1.90994    0.01435     2.92389
      C   10   -0.16833      0.99956     2.15972    0.00904     3.16833
      C   11   -0.02870      0.99955     2.02052    0.00863     3.02870
      N   12   -0.40181      0.99971     2.89137    0.01074     3.90181
      H   13    0.08804      0.00000     0.41067    0.00128     0.41196
      H   14    0.07989      0.00000     0.41813    0.00198     0.42011
      H   15    0.09274      0.00000     0.40594    0.00132     0.40726
      H   16    0.16927      0.00000     0.32741    0.00333     0.33073
      H   17    0.09017      0.00000     0.40868    0.00115     0.40983
      H   18    0.09007      0.00000     0.40881    0.00112     0.40993
      H   19    0.09271      0.00000     0.40579    0.00150     0.40729
      H   20    0.08372      0.00000     0.41389    0.00239     0.41628
      H   21    0.07651      0.00000     0.42223    0.00126     0.42349
      H   22    0.09432      0.00000     0.40462    0.00106     0.40568
      H   23    0.08956      0.00000     0.40926    0.00118     0.41044
      H   24    0.18500      0.00000     0.31206    0.00294     0.31500
      H   25    0.19000      0.00000     0.30800    0.00200     0.31000
 =======================================================================
   * Total *   -0.00000     11.99517    31.84816    0.15666    44.00000

 Normal termination of Gaussian 16 at Wed Dec  9 17:31:43 2020.
