 Gaussian 16, Revision A.03,

 -----------------------------------------------------------
 # opt freq B3LYP/6-31G(d) empiricaldispersion=gd3bj scf=xqc
 -----------------------------------------------------------

 ------------------------------
 CID_83699571_JID_4358_neutraal
 ------------------------------
 Symbolic Z-matrix:
 Charge =  0 Multiplicity = 1

 SCF Done:  E(RB3LYP) =  -617.224736042     A.U. after   14 cycles
 SCF Done:  E(RB3LYP) =  -617.228011936     A.U. after   12 cycles
 SCF Done:  E(RB3LYP) =  -617.228474207     A.U. after   11 cycles
 SCF Done:  E(RB3LYP) =  -617.228436344     A.U. after   12 cycles
 SCF Done:  E(RB3LYP) =  -617.228659369     A.U. after   11 cycles
 SCF Done:  E(RB3LYP) =  -617.228713223     A.U. after   10 cycles
 SCF Done:  E(RB3LYP) =  -617.228750717     A.U. after   10 cycles
 SCF Done:  E(RB3LYP) =  -617.228767767     A.U. after    9 cycles
 SCF Done:  E(RB3LYP) =  -617.228791650     A.U. after   10 cycles
 SCF Done:  E(RB3LYP) =  -617.228876780     A.U. after   12 cycles
 SCF Done:  E(RB3LYP) =  -617.229150663     A.U. after   10 cycles
 SCF Done:  E(RB3LYP) =  -617.228816063     A.U. after   11 cycles
 SCF Done:  E(RB3LYP) =  -617.229162570     A.U. after   11 cycles
 SCF Done:  E(RB3LYP) =  -617.229165031     A.U. after    8 cycles
 SCF Done:  E(RB3LYP) =  -617.229165374     A.U. after    7 cycles
 SCF Done:  E(RB3LYP) =  -617.229165500     A.U. after    7 cycles
 Optimization completed.
    -- Stationary point found.
 Normal termination of Gaussian 16 at Thu Dec 10 09:42:37 2020.

 --------------------------------------------------------------------
 #N Geom=AllCheck Guess=TCheck SCRF=Check GenChk RB3LYP/6-31G(d) Freq
 --------------------------------------------------------------------

 Structure from the checkpoint file:  "JID_4358.chk"
 ------------------------------
 CID_83699571_JID_4358_neutraal
 ------------------------------
 Charge =  0 Multiplicity = 1

 SCF Done:  E(RB3LYP) =  -617.229165500     A.U. after    1 cycles

  Exact polarizability: 164.386  -5.752 112.842  -3.728   0.598 113.610
 Approx polarizability: 191.036 -10.082 162.858  -7.400   5.995 182.589

                      1                      2                      3
                      A                      A                      A
 Frequencies --     27.9293                52.3038                67.8038
 Red. masses --      3.8111                 3.4851                 2.7422
 Frc consts  --      0.0018                 0.0056                 0.0074
 IR Inten    --      0.7195                 1.2000                 0.6279

                      4                      5                      6
                      A                      A                      A
 Frequencies --     75.4482                93.8870               131.2384
 Red. masses --      4.8856                 2.3620                 3.5026
 Frc consts  --      0.0164                 0.0123                 0.0355
 IR Inten    --      0.8457                 1.0225                 0.3060

                      7                      8                      9
                      A                      A                      A
 Frequencies --    172.4143               188.3855               226.1639
 Red. masses --      2.2027                 2.9687                 1.5507
 Frc consts  --      0.0386                 0.0621                 0.0467
 IR Inten    --      0.6228                 0.8776                 0.4521

                     10                     11                     12
                      A                      A                      A
 Frequencies --    236.4930               256.1744               269.0130
 Red. masses --      1.0248                 1.3353                 1.8563
 Frc consts  --      0.0338                 0.0516                 0.0791
 IR Inten    --      0.0313                 0.3597                 5.6989

                     13                     14                     15
                      A                      A                      A
 Frequencies --    287.8886               321.7618               332.4774
 Red. masses --      2.1224                 2.1607                 2.2150
 Frc consts  --      0.1036                 0.1318                 0.1443
 IR Inten    --      2.5263                 1.8187                 1.0884

                     16                     17                     18
                      A                      A                      A
 Frequencies --    365.0168               394.6763               438.7309
 Red. masses --      3.3194                 2.7961                 3.0486
 Frc consts  --      0.2606                 0.2566                 0.3457
 IR Inten    --      0.7110                 1.5455                 2.6936

                     19                     20                     21
                      A                      A                      A
 Frequencies --    455.1523               463.0686               483.9154
 Red. masses --      2.4003                 2.4124                 3.0549
 Frc consts  --      0.2930                 0.3048                 0.4215
 IR Inten    --      3.1525                 1.1668                 3.8447

                     22                     23                     24
                      A                      A                      A
 Frequencies --    535.0245               552.2604               598.6894
 Red. masses --      3.5406                 2.7946                 1.3084
 Frc consts  --      0.5971                 0.5022                 0.2763
 IR Inten    --     20.9036                 1.1976                60.3556

                     25                     26                     27
                      A                      A                      A
 Frequencies --    682.0929               733.0409               762.8561
 Red. masses --      2.9138                 4.1270                 1.7465
 Frc consts  --      0.7987                 1.3066                 0.5988
 IR Inten    --     12.8166                14.0413                78.6703

                     28                     29                     30
                      A                      A                      A
 Frequencies --    795.9472               816.0406               858.3141
 Red. masses --      1.5217                 2.0605                 2.6976
 Frc consts  --      0.5680                 0.8084                 1.1709
 IR Inten    --      3.3672                10.6057                24.5772

                     31                     32                     33
                      A                      A                      A
 Frequencies --    878.2790               909.5136               930.9499
 Red. masses --      2.3991                 2.3985                 2.2217
 Frc consts  --      1.0903                 1.1690                 1.1345
 IR Inten    --      3.0807                 4.2866                 3.1098

                     34                     35                     36
                      A                      A                      A
 Frequencies --    943.3757               961.8892               964.1258
 Red. masses --      1.2660                 1.4164                 1.4764
 Frc consts  --      0.6638                 0.7721                 0.8086
 IR Inten    --      0.3579                 4.6246                 1.5366

                     37                     38                     39
                      A                      A                      A
 Frequencies --    969.2023              1004.8284              1043.7734
 Red. masses --      1.8808                 1.8026                 1.8835
 Frc consts  --      1.0409                 1.0723                 1.2090
 IR Inten    --      2.4025                21.4503                 8.5780

                     40                     41                     42
                      A                      A                      A
 Frequencies --   1057.1331              1099.3079              1106.4781
 Red. masses --      2.0261                 1.8341                 1.8834
 Frc consts  --      1.3340                 1.3059                 1.3585
 IR Inten    --      0.7473                 2.8407                 0.7363

                     43                     44                     45
                      A                      A                      A
 Frequencies --   1114.4114              1149.7880              1158.1602
 Red. masses --      1.6004                 2.0834                 2.1061
 Frc consts  --      1.1711                 1.6227                 1.6644
 IR Inten    --      2.9622                31.6511                 9.6409

                     46                     47                     48
                      A                      A                      A
 Frequencies --   1171.4659              1176.8926              1197.5718
 Red. masses --      1.6446                 1.7095                 1.8305
 Frc consts  --      1.3298                 1.3950                 1.5468
 IR Inten    --     36.6172                12.4162                 9.1780

                     49                     50                     51
                      A                      A                      A
 Frequencies --   1207.2198              1217.1218              1226.8654
 Red. masses --      1.7841                 2.4817                 1.3762
 Frc consts  --      1.5320                 2.1661                 1.2205
 IR Inten    --      2.7807                42.4334                 2.7437

                     52                     53                     54
                      A                      A                      A
 Frequencies --   1278.0031              1304.0143              1314.1630
 Red. masses --      1.5250                 1.4173                 1.5795
 Frc consts  --      1.4675                 1.4200                 1.6072
 IR Inten    --     19.7288                43.2448                97.0625

                     55                     56                     57
                      A                      A                      A
 Frequencies --   1335.3445              1351.4135              1359.9857
 Red. masses --      1.5036                 1.3164                 1.2736
 Frc consts  --      1.5797                 1.4165                 1.3879
 IR Inten    --     15.8664                 1.4241                13.6791

                     58                     59                     60
                      A                      A                      A
 Frequencies --   1366.5793              1378.1829              1394.4147
 Red. masses --      1.3407                 1.3057                 1.4103
 Frc consts  --      1.4752                 1.4612                 1.6156
 IR Inten    --      5.2675                 5.9378                30.8915

                     61                     62                     63
                      A                      A                      A
 Frequencies --   1398.6967              1401.3956              1421.5918
 Red. masses --      1.3901                 1.5911                 1.4811
 Frc consts  --      1.6023                 1.8411                 1.7636
 IR Inten    --      6.5418                33.4527                12.8846

                     64                     65                     66
                      A                      A                      A
 Frequencies --   1428.6970              1446.4606              1450.3704
 Red. masses --      1.2702                 1.4077                 1.4743
 Frc consts  --      1.5275                 1.7353                 1.8272
 IR Inten    --      8.7120                 3.2508                36.1059

                     67                     68                     69
                      A                      A                      A
 Frequencies --   1481.5533              1490.0559              1507.0389
 Red. masses --      1.1650                 1.5414                 1.0948
 Frc consts  --      1.5067                 2.0164                 1.4650
 IR Inten    --      1.1395                63.3094                 0.8592

                     70                     71                     72
                      A                      A                      A
 Frequencies --   1512.8224              1514.3459              1516.0058
 Red. masses --      1.2059                 1.0433                 1.0943
 Frc consts  --      1.6260                 1.4097                 1.4817
 IR Inten    --     17.1654                 0.4693                 4.8212

                     73                     74                     75
                      A                      A                      A
 Frequencies --   1517.9580              1521.5315              1522.8245
 Red. masses --      1.0584                 1.0653                 1.1010
 Frc consts  --      1.4369                 1.4530                 1.5043
 IR Inten    --      5.4360                11.5606                 5.2844

                     76                     77                     78
                      A                      A                      A
 Frequencies --   1531.9455              1532.9464              1538.1282
 Red. masses --      1.0997                 1.0732                 1.0808
 Frc consts  --      1.5205                 1.4859                 1.5065
 IR Inten    --      4.1767                 9.7115                 3.7236

                     79                     80                     81
                      A                      A                      A
 Frequencies --   1551.3221              1768.1267              2974.4639
 Red. masses --      1.0479                 7.6809                 1.0575
 Frc consts  --      1.4859                14.1479                 5.5125
 IR Inten    --     12.5016               311.5395                72.5328

                     82                     83                     84
                      A                      A                      A
 Frequencies --   2996.6584              3026.9832              3031.4245
 Red. masses --      1.0827                 1.0683                 1.0667
 Frc consts  --      5.7285                 5.7671                 5.7756
 IR Inten    --     21.9255                24.5821                18.1485

                     85                     86                     87
                      A                      A                      A
 Frequencies --   3041.2353              3045.4966              3049.9284
 Red. masses --      1.0637                 1.0367                 1.0386
 Frc consts  --      5.7967                 5.6650                 5.6921
 IR Inten    --     22.1447                15.3952                17.9350

                     88                     89                     90
                      A                      A                      A
 Frequencies --   3054.9565              3057.9942              3069.1793
 Red. masses --      1.0769                 1.0676                 1.0765
 Frc consts  --      5.9214                 5.8821                 5.9744
 IR Inten    --    103.3927                32.0703                44.0133

                     91                     92                     93
                      A                      A                      A
 Frequencies --   3079.8331              3087.6757              3093.0149
 Red. masses --      1.0985                 1.0953                 1.0857
 Frc consts  --      6.1390                 6.1526                 6.1196
 IR Inten    --     51.6444                35.1177                 0.2529

                     94                     95                     96
                      A                      A                      A
 Frequencies --   3097.0431              3112.0231              3112.6483
 Red. masses --      1.0994                 1.1024                 1.1007
 Frc consts  --      6.2132                 6.2905                 6.2832
 IR Inten    --     34.7036                34.8189                 2.3350

                     97                     98                     99
                      A                      A                      A
 Frequencies --   3116.9241              3124.1197              3126.1698
 Red. masses --      1.0994                 1.1004                 1.1004
 Frc consts  --      6.2929                 6.3276                 6.3363
 IR Inten    --     23.8778                50.8525                42.8479

                    100                    101                    102
                      A                      A                      A
 Frequencies --   3137.3465              3473.5610              3564.3044
 Red. masses --      1.1036                 1.0733                 1.0751
 Frc consts  --      6.4002                 7.6301                 8.0474
 IR Inten    --     28.8103                 1.2531                12.4806

 - Thermochemistry -
 -------------------
 Temperature   298.150 Kelvin.  Pressure   1.00000 Atm.
 Atom     1 has atomic number  6 and mass  12.00000

 Molecular mass:   198.17321 amu.
 Principal axes and moments of inertia in atomic units:
                           1         2         3
     Eigenvalues --  1098.361805835.076346036.02713
           X            0.99997  -0.00733  -0.00324
           Y            0.00702   0.99617  -0.08712
           Z            0.00386   0.08710   0.99619
 This molecule is an asymmetric top.
 Rotational symmetry number  1.
 Warning -- assumption of classical behavior for rotation
           may cause significant error
 Rotational temperatures (Kelvin)      0.07886     0.01484     0.01435
 Rotational constants (GHZ):           1.64312     0.30929     0.29899
 Zero-point vibrational energy     865925.7 (Joules/Mol)
                                  206.96120 (Kcal/Mol)
 Warning -- explicit consideration of  24 degrees of freedom as
           vibrations may cause significant error
 Vibrational temperatures:     40.18    75.25    97.55   108.55   135.08
          (Kelvin)            188.82   248.07   271.04   325.40   340.26
                              368.58   387.05   414.21   462.94   478.36
                              525.18   567.85   631.24   654.86   666.25
                              696.25   769.78   794.58   861.38   981.38
                             1054.68  1097.58  1145.19  1174.10  1234.92
                             1263.65  1308.59  1339.43  1357.31  1383.94
                             1387.16  1394.47  1445.72  1501.76  1520.98
                             1581.66  1591.98  1603.39  1654.29  1666.33
                             1685.48  1693.29  1723.04  1736.92  1751.17
                             1765.19  1838.76  1876.19  1890.79  1921.26
                             1944.38  1956.72  1966.20  1982.90  2006.25
                             2012.41  2016.30  2045.35  2055.58  2081.13
                             2086.76  2131.62  2143.86  2168.29  2176.61
                             2178.81  2181.19  2184.00  2189.14  2191.00
                             2204.13  2205.57  2213.02  2232.01  2543.94
                             4279.59  4311.52  4355.15  4361.54  4375.66
                             4381.79  4388.17  4395.40  4399.77  4415.86
                             4431.19  4442.48  4450.16  4455.95  4477.51
                             4478.41  4484.56  4494.91  4497.86  4513.94
                             4997.68  5128.24

 Zero-point correction=                           0.329814 (Hartree/Particle)
 Thermal correction to Energy=                    0.345307
 Thermal correction to Enthalpy=                  0.346251
 Thermal correction to Gibbs Free Energy=         0.286798
 Sum of electronic and zero-point Energies=           -616.899352
 Sum of electronic and thermal Energies=              -616.883858
 Sum of electronic and thermal Enthalpies=            -616.882914
 Sum of electronic and thermal Free Energies=         -616.942367

                     E (Thermal)             CV                S
                      KCal/Mol        Cal/Mol-Kelvin    Cal/Mol-Kelvin
 Total                  216.683             58.800            125.129
 Electronic               0.000              0.000              0.000
 Translational            0.889              2.981             41.757
 Rotational               0.889              2.981             32.026
 Vibrational            214.906             52.838             51.347
 Vibration     1          0.593              1.984              5.971
 Vibration     2          0.596              1.977              4.728
 Vibration     3          0.598              1.970              4.216
 Vibration     4          0.599              1.965              4.006
 Vibration     5          0.603              1.954              3.577
 Vibration     6          0.612              1.922              2.928
 Vibration     7          0.626              1.876              2.409
 Vibration     8          0.633              1.856              2.244
 Vibration     9          0.650              1.801              1.909
 Vibration    10          0.655              1.785              1.829
 Vibration    11          0.666              1.752              1.688
 Vibration    12          0.673              1.730              1.603
 Vibration    13          0.685              1.696              1.486
 Vibration    14          0.707              1.632              1.301
 Vibration    15          0.714              1.611              1.248
 Vibration    16          0.738              1.544              1.101
 Vibration    17          0.762              1.482              0.982
 Vibration    18          0.799              1.386              0.831
 Vibration    19          0.813              1.349              0.780
 Vibration    20          0.821              1.332              0.757
 Vibration    21          0.840              1.286              0.700
 Vibration    22          0.890              1.173              0.576
 Vibration    23          0.908              1.135              0.540
 Vibration    24          0.957              1.035              0.452

                           ! Non-Optimized Parameters !
 Normal termination of Gaussian 16 at Thu Dec 10 09:54:34 2020.

 ----------------------------------------------------------------------
 # B3LYP/6-311++G(d,p) empiricaldispersion=gd3bj scf=xqc pop=npa geom=c
 heck
 ----------------------------------------------------------------------

 --------------------------------------
 CID_83699571_JID_4358_Energie_neutraal
 --------------------------------------
 Structure from the checkpoint file:  "JID_4358.chk"
 Charge =  0 Multiplicity = 1

 SCF Done:  E(RB3LYP) =  -617.409826063     A.U. after   14 cycles
 Normal termination of Gaussian 16 at Thu Dec 10 10:00:34 2020.

 ----------------------------------------------------------------------
 # B3LYP/6-311++G(d,p) empiricaldispersion=gd3bj scf=xqc pop=npa geom=c
 heck
 ----------------------------------------------------------------------

 ------------------------------------
 CID_83699571_JID_4358_Energie_kation
 ------------------------------------
 Structure from the checkpoint file:  "JID_4358.chk"
 Charge =  1 Multiplicity = 2

 SCF Done:  E(UB3LYP) =  -617.117897423     A.U. after   29 cycles
 Normal termination of Gaussian 16 at Thu Dec 10 10:18:12 2020.
 Gaussian 16:  ES64L-G16RevA.03 25-Dec-2016

 ----------------------------------------------------------------------
 # B3LYP/6-311++G(d,p) empiricaldispersion=gd3bj scf=xqc pop=npa geom=c
 heck
 ----------------------------------------------------------------------

 -----------------------------------
 CID_83699571_JID_4358_Energie_anion
 -----------------------------------
 Structure from the checkpoint file:  "JID_4358.chk"
 Charge = -1 Multiplicity = 2

                         Standard orientation:
 ---------------------------------------------------------------------
 Center     Atomic      Atomic             Coordinates (Angstroms)
 Number     Number       Type             X           Y           Z
 ---------------------------------------------------------------------
      1          6           0       -4.172887    1.409716   -0.279543
      2          6           0       -3.232373    0.312510    0.224336
      3          6           0       -4.001925   -0.937683    0.671332
      4          7           0       -2.261762    0.003228   -0.826007
      5          6           0       -0.996711   -0.516709   -0.709344
      6          8           0       -0.414026   -0.939072   -1.705118
      7          6           0       -0.350500   -0.466030    0.675830
      8          6           0        0.806476   -1.472577    0.814835
      9          6           0        2.074113   -1.074886    0.043818
     10          6           0        2.528858    0.362814    0.356228
     11          6           0        1.369996    1.341911    0.134628
     12          6           0        0.146962    0.968828    0.978237
     13          7           0        3.692051    0.821196   -0.408676
     14          6           0        4.929830    0.099663   -0.137314
     15          1           0       -4.738667    1.064451   -1.154350
     16          1           0       -3.609916    2.303160   -0.566443
     17          1           0       -4.895552    1.684038    0.495601
     18          1           0       -2.676601    0.710524    1.077813
     19          1           0       -4.571394   -1.356629   -0.166696
     20          1           0       -3.315695   -1.711054    1.031735
     21          1           0       -4.705628   -0.697881    1.476718
     22          1           0       -2.630891   -0.096272   -1.766038
     23          1           0       -1.113477   -0.726140    1.419384
     24          1           0        1.044676   -1.549518    1.885249
     25          1           0        0.472930   -2.464993    0.492071
     26          1           0        1.871300   -1.152628   -1.028786
     27          1           0        2.874176   -1.785392    0.283888
     28          1           0        2.817896    0.417224    1.418271
     29          1           0        1.097731    1.336465   -0.930042
     30          1           0        1.707569    2.355688    0.375310
     31          1           0       -0.658455    1.695482    0.818908
     32          1           0        0.413422    1.019307    2.043005
     33          1           0        3.471811    0.750736   -1.401857
     34          1           0        4.904361   -0.983982   -0.346277
     35          1           0        5.738445    0.537672   -0.732323
     36          1           0        5.191118    0.226007    0.920320
 ---------------------------------------------------------------------

 SCF Done:  E(UB3LYP) =  -617.398065540     A.U. after   32 cycles

 The electronic state is 2-A.
 Alpha  occ. eigenvalues --  -18.98671 -14.23232 -14.20623 -10.17025 -10.11779
 Alpha  occ. eigenvalues --  -10.10051 -10.09853 -10.08292 -10.07353 -10.06889
 Alpha  occ. eigenvalues --  -10.06707 -10.06520 -10.06233 -10.05949  -0.93760
 Alpha  occ. eigenvalues --   -0.82429  -0.81594  -0.73065  -0.68033  -0.65118
 Alpha  occ. eigenvalues --   -0.64562  -0.59583  -0.57786  -0.53158  -0.51737
 Alpha  occ. eigenvalues --   -0.51268  -0.48756  -0.45014  -0.40248  -0.39042
 Alpha  occ. eigenvalues --   -0.38231  -0.36555  -0.36282  -0.35097  -0.34758
 Alpha  occ. eigenvalues --   -0.33707  -0.32603  -0.32356  -0.31084  -0.29690
 Alpha  occ. eigenvalues --   -0.29256  -0.28828  -0.28228  -0.27671  -0.27168
 Alpha  occ. eigenvalues --   -0.26262  -0.25596  -0.24875  -0.24592  -0.23037
 Alpha  occ. eigenvalues --   -0.22078  -0.21167  -0.15908  -0.14989  -0.13404
 Alpha  occ. eigenvalues --    0.04270
 Alpha virt. eigenvalues --    0.05895   0.06917   0.07704   0.08268   0.08505
 Alpha virt. eigenvalues --    0.08784   0.09864   0.09927   0.10145   0.10833
 Alpha virt. eigenvalues --    0.11328   0.11637   0.11709   0.12221   0.12578

  Beta  occ. eigenvalues --  -18.98666 -14.23225 -14.20619 -10.17017 -10.11763
  Beta  occ. eigenvalues --  -10.10038 -10.09847 -10.08282 -10.07330 -10.06874
  Beta  occ. eigenvalues --  -10.06661 -10.06517 -10.06184 -10.05946  -0.93746
  Beta  occ. eigenvalues --   -0.82409  -0.81585  -0.73040  -0.67989  -0.65096
  Beta  occ. eigenvalues --   -0.64536  -0.59496  -0.57756  -0.53118  -0.51688
  Beta  occ. eigenvalues --   -0.51204  -0.48730  -0.44975  -0.40227  -0.39002
  Beta  occ. eigenvalues --   -0.38196  -0.36511  -0.36258  -0.35056  -0.34730
  Beta  occ. eigenvalues --   -0.33679  -0.32583  -0.32320  -0.31050  -0.29650
  Beta  occ. eigenvalues --   -0.29214  -0.28788  -0.28204  -0.27639  -0.27145
  Beta  occ. eigenvalues --   -0.26228  -0.25550  -0.24823  -0.24555  -0.23015
  Beta  occ. eigenvalues --   -0.22050  -0.21146  -0.15890  -0.14976  -0.13392
  Beta virt. eigenvalues --    0.06068   0.06859   0.07507   0.08212   0.08676
  Beta virt. eigenvalues --    0.08816   0.09238   0.10150   0.10328   0.10476
  Beta virt. eigenvalues --    0.11063   0.11609   0.11867   0.11954   0.12581

 Mulliken charges and spin densities:
               1          2
     1  C    0.743574  -1.183593
     2  C   -1.425145   1.377512
     3  C    1.637906  -2.181656
     4  N   -0.113743   0.040458
     5  C    0.123544  -0.629278
     6  O   -0.303622   0.005671
     7  C   -0.449404   1.126865
     8  C    0.702339  -1.328604
     9  C    0.095006  -0.165278
    10  C   -0.838380  -0.294801
    11  C   -0.058098   0.114663
    12  C    0.069226  -0.560071
    13  N   -0.007273   0.069348
    14  C    0.079848  -0.393709
    15  H   -0.234505   0.365075
    16  H   -0.256384   0.408160
    17  H   -0.362940   0.527216
    18  H   -0.109994   0.271152
    19  H   -0.066139   0.212370
    20  H   -0.272153   0.409812
    21  H   -0.459665   0.609785
    22  H    0.336946  -0.062314
    23  H   -0.088786   0.373306
    24  H   -0.274084   0.435072
    25  H    0.061232   0.122364
    26  H    0.194621   0.019040
    27  H    0.136446   0.000947
    28  H    0.206495  -0.052983
    29  H    0.125936   0.047572
    30  H    0.064491   0.131672
    31  H    0.047418   0.129352
    32  H   -0.434664   0.596226
    33  H    0.213387   0.001782
    34  H   -0.007730   0.128445
    35  H    0.028614   0.093774
    36  H   -0.104322   0.234647
 Sum of Mulliken charges =  -1.00000   1.00000

 Dipole moment (field-independent basis, Debye):
    X=              6.0068    Y=             -0.6334    Z=             -3.9389  Tot=              7.2109
 Quadrupole moment (field-independent basis, Debye-Ang):
   XX=           -180.8175   YY=           -127.4024   ZZ=           -129.8732
   XY=              2.6584   XZ=              7.8510   YZ=             -1.9394

 Summary of Natural Population Analysis:

                                       Natural Population
                Natural  -----------------------------------------------
    Atom  No    Charge         Core      Valence    Rydberg      Total
 -----------------------------------------------------------------------
      C    1   -0.28491      0.99965     2.27910    0.00617     3.28491
      C    2   -0.01777      0.99961     2.00680    0.01136     3.01777
      C    3   -0.28743      0.99964     2.28208    0.00571     3.28743
      N    4   -0.32015      0.99966     2.81017    0.01032     3.82015
      C    5    0.35349      0.99964     1.62265    0.02422     2.64651
      O    6   -0.33298      0.99988     3.32785    0.00525     4.33298
      C    7   -0.15273      0.99954     2.14197    0.01122     3.15273
      C    8   -0.18530      0.99962     2.17487    0.01080     3.18530
      C    9   -0.20365      0.99960     2.19479    0.00926     3.20365
      C   10   -0.00741      0.99958     1.99549    0.01235     3.00741
      C   11   -0.19370      0.99960     2.18354    0.01055     3.19370
      C   12   -0.18499      0.99961     2.17589    0.00950     3.18499
      N   13   -0.33777      0.99974     2.82681    0.01122     3.83777
      C   14   -0.17780      0.99966     2.17132    0.00681     3.17780
      H   15    0.09539      0.00000     0.40335    0.00126     0.40461
      H   16    0.10294      0.00000     0.39583    0.00123     0.39706
      H   17    0.10687      0.00000     0.39150    0.00164     0.39313
      H   18    0.09970      0.00000     0.39705    0.00326     0.40030
      H   19    0.09682      0.00000     0.40196    0.00122     0.40318
      H   20    0.10154      0.00000     0.39700    0.00146     0.39846
      H   21    0.10506      0.00000     0.39301    0.00193     0.39494
      H   22    0.18992      0.00000     0.30783    0.00225     0.31008
      H   23    0.11157      0.00000     0.38591    0.00253     0.38843
      H   24    0.09731      0.00000     0.40149    0.00121     0.40269
      H   25    0.10369      0.00000     0.39537    0.00094     0.39631
      H   26    0.10856      0.00000     0.39015    0.00129     0.39144
      H   27    0.09553      0.00000     0.40341    0.00106     0.40447
      H   28    0.08652      0.00000     0.41136    0.00211     0.41348
      H   29    0.09744      0.00000     0.40126    0.00130     0.40256
      H   30    0.10326      0.00000     0.39538    0.00136     0.39674
      H   31    0.10281      0.00000     0.39583    0.00136     0.39719
      H   32    0.09944      0.00000     0.39897    0.00158     0.40056
      H   33    0.16789      0.00000     0.32944    0.00268     0.33211
      H   34    0.07849      0.00000     0.41976    0.00175     0.42151
      H   35    0.09098      0.00000     0.40812    0.00090     0.40902
      H   36    0.09138      0.00000     0.40739    0.00123     0.40862
 =======================================================================
   * Total *   -0.00000     13.99503    40.82468    0.18028    55.00000

 Normal termination of Gaussian 16 at Thu Dec 10 10:37:34 2020.
