 Gaussian 16, Revision A.03,

 -----------------------------------------------------------
 # opt freq B3LYP/6-31G(d) empiricaldispersion=gd3bj scf=xqc
 -----------------------------------------------------------

 -------------------------------
 CID_103847541_JID_1428_neutraal
 -------------------------------
 Symbolic Z-matrix:
 Charge =  0 Multiplicity = 1

 SCF Done:  E(RB3LYP) =  -827.264118136     A.U. after   14 cycles
 SCF Done:  E(RB3LYP) =  -827.266816288     A.U. after   12 cycles
 SCF Done:  E(RB3LYP) =  -827.262821079     A.U. after   14 cycles
 SCF Done:  E(RB3LYP) =  -827.266169917     A.U. after   13 cycles
 SCF Done:  E(RB3LYP) =  -827.267641397     A.U. after   10 cycles
 SCF Done:  E(RB3LYP) =  -827.268375876     A.U. after   14 cycles
 SCF Done:  E(RB3LYP) =  -827.268910751     A.U. after   13 cycles
 SCF Done:  E(RB3LYP) =  -827.269106067     A.U. after   12 cycles
 SCF Done:  E(RB3LYP) =  -827.269521853     A.U. after   12 cycles
 SCF Done:  E(RB3LYP) =  -827.269598557     A.U. after   12 cycles
 SCF Done:  E(RB3LYP) =  -827.270168852     A.U. after    8 cycles
 SCF Done:  E(RB3LYP) =  -827.270169406     A.U. after    8 cycles
 SCF Done:  E(RB3LYP) =  -827.270169610     A.U. after    7 cycles
 SCF Done:  E(RB3LYP) =  -827.270169745     A.U. after    7 cycles
 SCF Done:  E(RB3LYP) =  -827.270169757     A.U. after    6 cycles
 Optimization completed.
    -- Stationary point found.
 Normal termination of Gaussian 16 at Tue Dec  8 20:14:05 2020.

 --------------------------------------------------------------------
 #N Geom=AllCheck Guess=TCheck SCRF=Check GenChk RB3LYP/6-31G(d) Freq
 --------------------------------------------------------------------

 Structure from the checkpoint file:  "JID_1428.chk"
 -------------------------------
 CID_103847541_JID_1428_neutraal
 -------------------------------
 Charge =  0 Multiplicity = 1

 SCF Done:  E(RB3LYP) =  -827.270169757     A.U. after    1 cycles

  Exact polarizability: 135.234   8.056 108.238   0.845  -2.285  98.739
 Approx polarizability: 164.704  18.242 161.019   0.384   2.894 152.984

                      1                      2                      3
                      A                      A                      A
 Frequencies --     26.0992                37.8228                58.1250
 Red. masses --      4.1449                 3.4049                 3.9986
 Frc consts  --      0.0017                 0.0029                 0.0080
 IR Inten    --      1.4340                 2.0464                 2.9068

                      4                      5                      6
                      A                      A                      A
 Frequencies --     67.4482               103.5232               114.9652
 Red. masses --      2.8452                 2.0201                 3.3055
 Frc consts  --      0.0076                 0.0128                 0.0257
 IR Inten    --      0.9968                 0.4079                 3.3700

                      7                      8                      9
                      A                      A                      A
 Frequencies --    142.7544               182.3588               204.9776
 Red. masses --      1.1587                 3.3270                 2.9081
 Frc consts  --      0.0139                 0.0652                 0.0720
 IR Inten    --      0.0782                 2.5248                 2.3954

                     10                     11                     12
                      A                      A                      A
 Frequencies --    215.5266               238.6622               268.4706
 Red. masses --      1.0405                 1.7198                 2.2209
 Frc consts  --      0.0285                 0.0577                 0.0943
 IR Inten    --      0.0708                 0.5127                 0.4346

                     13                     14                     15
                      A                      A                      A
 Frequencies --    307.1051               317.5229               365.0671
 Red. masses --      1.7368                 2.4145                 2.5982
 Frc consts  --      0.0965                 0.1434                 0.2040
 IR Inten    --      0.1521                 3.3163                 0.2643

                     16                     17                     18
                      A                      A                      A
 Frequencies --    422.0199               425.5325               471.1781
 Red. masses --      2.4920                 2.5158                 2.8050
 Frc consts  --      0.2615                 0.2684                 0.3669
 IR Inten    --      6.4332                 5.4930                 1.2851

                     19                     20                     21
                      A                      A                      A
 Frequencies --    474.9777               594.6140               656.9699
 Red. masses --      2.1053                 3.2873                 4.2804
 Frc consts  --      0.2798                 0.6848                 1.0885
 IR Inten    --      1.3325                 5.4918                 1.2760

                     22                     23                     24
                      A                      A                      A
 Frequencies --    724.6340               743.6869               786.0975
 Red. masses --      3.6388                 2.5291                 2.1400
 Frc consts  --      1.1258                 0.8241                 0.7791
 IR Inten    --      6.6909                 5.3020                 2.4461

                     25                     26                     27
                      A                      A                      A
 Frequencies --    808.4459               846.5505               883.8625
 Red. masses --      1.3083                 1.6214                 1.5051
 Frc consts  --      0.5038                 0.6846                 0.6927
 IR Inten    --      1.2015                 2.1680                 1.9929

                     28                     29                     30
                      A                      A                      A
 Frequencies --    931.9211               950.5561               979.3667
 Red. masses --      1.6652                 1.7035                 2.2947
 Frc consts  --      0.8521                 0.9069                 1.2968
 IR Inten    --     13.0533                 3.2070                 8.2589

                     31                     32                     33
                      A                      A                      A
 Frequencies --    988.7851              1001.5659              1034.8505
 Red. masses --      1.2743                 1.6934                 1.6851
 Frc consts  --      0.7341                 1.0008                 1.0633
 IR Inten    --      3.5343                 3.9237                 8.5628

                     34                     35                     36
                      A                      A                      A
 Frequencies --   1058.2838              1073.5056              1126.4862
 Red. masses --      2.8210                 1.9949                 1.5221
 Frc consts  --      1.8615                 1.3545                 1.1380
 IR Inten    --      0.3596                 1.4837                 4.7483

                     37                     38                     39
                      A                      A                      A
 Frequencies --   1149.8645              1185.4909              1194.0836
 Red. masses --      1.9650                 1.5881                 1.7395
 Frc consts  --      1.5307                 1.3150                 1.4613
 IR Inten    --      0.1305                16.2181                17.1612

                     40                     41                     42
                      A                      A                      A
 Frequencies --   1216.1081              1246.6041              1257.2445
 Red. masses --      1.5290                 1.4035                 1.3402
 Frc consts  --      1.3323                 1.2850                 1.2481
 IR Inten    --     39.2902                16.3810                 4.8553

                     43                     44                     45
                      A                      A                      A
 Frequencies --   1300.6647              1321.6260              1335.4394
 Red. masses --      1.1954                 1.2369                 1.2263
 Frc consts  --      1.1915                 1.2729                 1.2885
 IR Inten    --     14.9054                 6.1614                 8.6318

                     46                     47                     48
                      A                      A                      A
 Frequencies --   1357.4569              1382.2044              1401.5573
 Red. masses --      1.2540                 1.3424                 1.3559
 Frc consts  --      1.3614                 1.5110                 1.5693
 IR Inten    --      2.4602                 0.8840                12.4757

                     49                     50                     51
                      A                      A                      A
 Frequencies --   1412.8965              1417.8189              1436.9110
 Red. masses --      1.5064                 1.5884                 1.2656
 Frc consts  --      1.7717                 1.8812                 1.5396
 IR Inten    --      1.4088                44.0961                 3.7775

                     52                     53                     54
                      A                      A                      A
 Frequencies --   1442.5376              1478.4386              1484.1595
 Red. masses --      1.2212                 1.0801                 1.0895
 Frc consts  --      1.4972                 1.3910                 1.4140
 IR Inten    --      1.1642                13.5556                 8.8400

                     55                     56                     57
                      A                      A                      A
 Frequencies --   1494.2341              1503.8529              1504.8308
 Red. masses --      1.0548                 1.0711                 1.0680
 Frc consts  --      1.3875                 1.4272                 1.4249
 IR Inten    --     11.6574                 7.1653                 6.2615

                     58                     59                     60
                      A                      A                      A
 Frequencies --   1517.1797              1526.9883              1531.0126
 Red. masses --      1.0626                 1.0459                 1.0520
 Frc consts  --      1.4411                 1.4369                 1.4529
 IR Inten    --      1.6621                 6.8153                 2.9063

                     61                     62                     63
                      A                      A                      A
 Frequencies --   1536.2195              1544.5562              1813.1415
 Red. masses --      1.0657                 1.0496                10.0348
 Frc consts  --      1.4819                 1.4753                19.4368
 IR Inten    --      6.8053                 1.5710               124.9069

                     64                     65                     66
                      A                      A                      A
 Frequencies --   3004.7822              3015.9029              3027.2200
 Red. masses --      1.0705                 1.0745                 1.0742
 Frc consts  --      5.6945                 5.7585                 5.8000
 IR Inten    --     27.7692                 3.4484                39.9946

                     67                     68                     69
                      A                      A                      A
 Frequencies --   3043.2775              3046.7986              3049.1240
 Red. masses --      1.0376                 1.0372                 1.0386
 Frc consts  --      5.6618                 5.6729                 5.6889
 IR Inten    --     25.4071                34.5885                 2.4665

                     70                     71                     72
                      A                      A                      A
 Frequencies --   3072.8076              3077.9182              3086.6632
 Red. masses --      1.0627                 1.0950                 1.0881
 Frc consts  --      5.9121                 6.1117                 6.1081
 IR Inten    --     18.2924                 8.5102                 8.6304

                     73                     74                     75
                      A                      A                      A
 Frequencies --   3092.5094              3104.8614              3108.3970
 Red. masses --      1.0649                 1.1013                 1.0987
 Frc consts  --      6.0003                 6.2550                 6.2548
 IR Inten    --     19.7162                26.2636                 8.6875

                     76                     77                     78
                      A                      A                      A
 Frequencies --   3109.1171              3117.7848              3127.0401
 Red. masses --      1.1016                 1.1019                 1.0998
 Frc consts  --      6.2740                 6.3107                 6.3360
 IR Inten    --     48.5760                47.1114                38.0421

                     79                     80                     81
                      A                      A                      A
 Frequencies --   3137.0040              3157.8939              3167.5167
 Red. masses --      1.1024                 1.1018                 1.1023
 Frc consts  --      6.3919                 6.4737                 6.5159
 IR Inten    --      5.5253                 3.0073                10.0576

 - Thermochemistry -
 -------------------
 Temperature   298.150 Kelvin.  Pressure   1.00000 Atm.
 Atom     1 has atomic number  6 and mass  12.00000

 Molecular mass:   174.10784 amu.
 Principal axes and moments of inertia in atomic units:
                           1         2         3
     Eigenvalues --  1156.396674105.064224335.13243
           X            0.99993   0.00805   0.00871
           Y           -0.00650   0.98612  -0.16589
           Z           -0.00992   0.16582   0.98611
 This molecule is an asymmetric top.
 Rotational symmetry number  1.
 Warning -- assumption of classical behavior for rotation
           may cause significant error
 Rotational temperatures (Kelvin)      0.07490     0.02110     0.01998
 Rotational constants (GHZ):           1.56066     0.43964     0.41631
 Zero-point vibrational energy     676931.2 (Joules/Mol)
                                  161.79044 (Kcal/Mol)
 Warning -- explicit consideration of  20 degrees of freedom as
           vibrations may cause significant error
 Vibrational temperatures:     37.55    54.42    83.63    97.04   148.95
          (Kelvin)            165.41   205.39   262.37   294.92   310.09
                              343.38   386.27   441.86   456.84   525.25
                              607.19   612.25   677.92   683.39   855.52
                              945.23  1042.59  1070.00  1131.02  1163.17
                             1218.00  1271.68  1340.83  1367.64  1409.09
                             1422.64  1441.03  1488.92  1522.63  1544.54
                             1620.76  1654.40  1705.66  1718.02  1749.71
                             1793.59  1808.89  1871.37  1901.53  1921.40
                             1953.08  1988.68  2016.53  2032.84  2039.93
                             2067.39  2075.49  2127.14  2135.37  2149.87
                             2163.71  2165.12  2182.88  2197.00  2202.79
                             2210.28  2222.27  2608.71  4323.21  4339.21
                             4355.49  4378.60  4383.66  4387.01  4421.08
                             4428.44  4441.02  4449.43  4467.20  4472.29
                             4473.33  4485.80  4499.11  4513.45  4543.50
                             4557.35

 Zero-point correction=                           0.257829 (Hartree/Particle)
 Thermal correction to Energy=                    0.272300
 Thermal correction to Enthalpy=                  0.273244
 Thermal correction to Gibbs Free Energy=         0.214984
 Sum of electronic and zero-point Energies=           -827.012340
 Sum of electronic and thermal Energies=              -826.997870
 Sum of electronic and thermal Enthalpies=            -826.996926
 Sum of electronic and thermal Free Energies=         -827.055186

                     E (Thermal)             CV                S
                      KCal/Mol        Cal/Mol-Kelvin    Cal/Mol-Kelvin
 Total                  170.871             51.263            122.618
 Electronic               0.000              0.000              0.000
 Translational            0.889              2.981             41.371
 Rotational               0.889              2.981             31.399
 Vibrational            169.093             45.301             49.848
 Vibration     1          0.593              1.985              6.106
 Vibration     2          0.594              1.982              5.370
 Vibration     3          0.596              1.974              4.520
 Vibration     4          0.598              1.970              4.226
 Vibration     5          0.605              1.946              3.387
 Vibration     6          0.608              1.937              3.183
 Vibration     7          0.616              1.910              2.767
 Vibration     8          0.630              1.864              2.304
 Vibration     9          0.640              1.833              2.088
 Vibration    10          0.645              1.817              1.996
 Vibration    11          0.657              1.781              1.813
 Vibration    12          0.673              1.731              1.606
 Vibration    13          0.697              1.660              1.378
 Vibration    14          0.704              1.640              1.323
 Vibration    15          0.738              1.544              1.100
 Vibration    16          0.784              1.422              0.885
 Vibration    17          0.787              1.415              0.873
 Vibration    18          0.828              1.314              0.734
 Vibration    19          0.832              1.306              0.724
 Vibration    20          0.952              1.043              0.459

 Optimization completed.
    -- Stationary point found.
 Normal termination of Gaussian 16 at Tue Dec  8 20:20:44 2020.

 ----------------------------------------------------------------------
 # B3LYP/6-311++G(d,p) empiricaldispersion=gd3bj scf=xqc pop=npa geom=c
 heck
 ----------------------------------------------------------------------

 ---------------------------------------
 CID_103847541_JID_1428_Energie_neutraal
 ---------------------------------------
 Structure from the checkpoint file:  "JID_1428.chk"
 Charge =  0 Multiplicity = 1

 SCF Done:  E(RB3LYP) =  -827.422648120     A.U. after   13 cycles
 Normal termination of Gaussian 16 at Tue Dec  8 20:23:58 2020.

 ----------------------------------------------------------------------
 # B3LYP/6-311++G(d,p) empiricaldispersion=gd3bj scf=xqc pop=npa geom=c
 heck
 ----------------------------------------------------------------------

 -------------------------------------
 CID_103847541_JID_1428_Energie_kation
 -------------------------------------
 Structure from the checkpoint file:  "JID_1428.chk"
 Charge =  1 Multiplicity = 2

 SCF Done:  E(UB3LYP) =  -827.122886954     A.U. after   21 cycles
 Normal termination of Gaussian 16 at Tue Dec  8 20:31:07 2020.
 Gaussian 16:  ES64L-G16RevA.03 25-Dec-2016

 ----------------------------------------------------------------------
 # B3LYP/6-311++G(d,p) empiricaldispersion=gd3bj scf=xqc pop=npa geom=c
 heck
 ----------------------------------------------------------------------

 ------------------------------------
 CID_103847541_JID_1428_Energie_anion
 ------------------------------------
 Structure from the checkpoint file:  "JID_1428.chk"
 Charge = -1 Multiplicity = 2

                         Standard orientation:
 ---------------------------------------------------------------------
 Center     Atomic      Atomic             Coordinates (Angstroms)
 Number     Number       Type             X           Y           Z
 ---------------------------------------------------------------------
      1          6           0       -3.834915    0.746508   -1.121377
      2          6           0       -2.377081    0.448404   -0.759865
      3          6           0       -2.200740   -0.428629    0.489333
      4          6           0       -2.850884   -1.810529    0.324711
      5          6           0       -0.721617   -0.626568    0.856270
      6         16           0        0.198027    0.903895    1.309348
      7          6           0        0.978746    1.402086   -0.284322
      8          6           0        2.463869    1.057133   -0.347367
      9          6           0        2.741142   -0.430673   -0.529093
     10          8           0        1.909290   -1.188841   -0.993655
     11          6           0        4.118340   -0.910479   -0.121771
     12          1           0       -4.380176   -0.157233   -1.413342
     13          1           0       -3.893604    1.450191   -1.959211
     14          1           0       -4.364701    1.195848   -0.272271
     15          1           0       -1.877251   -0.037857   -1.610998
     16          1           0       -1.856800    1.398171   -0.589506
     17          1           0       -2.688463    0.085285    1.330694
     18          1           0       -2.415260   -2.346099   -0.528505
     19          1           0       -2.699288   -2.427184    1.218249
     20          1           0       -3.929418   -1.732281    0.156494
     21          1           0       -0.646219   -1.271395    1.738310
     22          1           0       -0.170932   -1.115919    0.048360
     23          1           0        0.443552    0.916639   -1.101937
     24          1           0        0.839566    2.482283   -0.382350
     25          1           0        2.930883    1.565979   -1.207433
     26          1           0        2.990138    1.424806    0.541153
     27          1           0        4.899568   -0.238907   -0.496998
     28          1           0        4.187468   -0.901134    0.973878
     29          1           0        4.287025   -1.926301   -0.484039
 ---------------------------------------------------------------------

 SCF Done:  E(UB3LYP) =  -827.409951710     A.U. after   33 cycles
 SCF Done:  E(UB3LYP) =  -827.409951709     a.u. after    1 cycles

 The electronic state is 2-A.
 Alpha  occ. eigenvalues --  -88.72914 -18.99541 -10.14067 -10.09030 -10.08824
 Alpha  occ. eigenvalues --  -10.07854 -10.06901 -10.06703 -10.06463 -10.06457
 Alpha  occ. eigenvalues --  -10.06248  -7.81528  -5.77920  -5.77553  -5.76910
 Alpha  occ. eigenvalues --   -0.93002  -0.72698  -0.69531  -0.65469  -0.63676
 Alpha  occ. eigenvalues --   -0.61366  -0.56164  -0.53610  -0.48922  -0.45947
 Alpha  occ. eigenvalues --   -0.41566  -0.37648  -0.37168  -0.35852  -0.34851
 Alpha  occ. eigenvalues --   -0.34275  -0.33449  -0.32066  -0.31259  -0.30228
 Alpha  occ. eigenvalues --   -0.29308  -0.29073  -0.27166  -0.26639  -0.26540
 Alpha  occ. eigenvalues --   -0.25088  -0.24350  -0.23531  -0.22847  -0.21827
 Alpha  occ. eigenvalues --   -0.19508  -0.14191  -0.11916   0.04583
 Alpha virt. eigenvalues --    0.06125   0.07328   0.07806   0.08399   0.08798
 Alpha virt. eigenvalues --    0.09273   0.10331   0.10513   0.11074   0.11378
 Alpha virt. eigenvalues --    0.11925   0.11984   0.12292   0.13169   0.13483

  Beta  occ. eigenvalues --  -88.72911 -18.99433 -10.13905 -10.09008 -10.08824
  Beta  occ. eigenvalues --  -10.07851 -10.06884 -10.06689 -10.06447 -10.06446
  Beta  occ. eigenvalues --  -10.06222  -7.81525  -5.77919  -5.77545  -5.76908
  Beta  occ. eigenvalues --   -0.92765  -0.72682  -0.69464  -0.65368  -0.63603
  Beta  occ. eigenvalues --   -0.61323  -0.56104  -0.53548  -0.48844  -0.45920
  Beta  occ. eigenvalues --   -0.41312  -0.37601  -0.37078  -0.35607  -0.34795
  Beta  occ. eigenvalues --   -0.34224  -0.33376  -0.31978  -0.31207  -0.30168
  Beta  occ. eigenvalues --   -0.29255  -0.29047  -0.27082  -0.26602  -0.26488
  Beta  occ. eigenvalues --   -0.24856  -0.24188  -0.23359  -0.22815  -0.21764
  Beta  occ. eigenvalues --   -0.19475  -0.14093  -0.11890
  Beta virt. eigenvalues --    0.06507   0.07465   0.07746   0.08621   0.08713
  Beta virt. eigenvalues --    0.09326   0.09681   0.10769   0.11089   0.11279
  Beta virt. eigenvalues --    0.11798   0.12084   0.12156   0.12460   0.13479

 Mulliken charges and spin densities:
               1          2
     1  C    1.106375  -1.836054
     2  C   -1.251035   0.885965
     3  C    0.087411   0.442783
     4  C    0.023339  -0.699552
     5  C   -0.442689  -0.180812
     6  S    0.276220  -0.124832
     7  C    0.276114  -0.218749
     8  C    0.842149  -1.548569
     9  C   -1.117924   1.551628
    10  O   -0.276220   0.032752
    11  C    0.868901  -1.558947
    12  H   -0.045557   0.180096
    13  H   -0.224963   0.365102
    14  H   -0.160286   0.302220
    15  H   -0.020973   0.176115
    16  H    0.142758  -0.024243
    17  H    0.064604   0.065171
    18  H    0.079756   0.076904
    19  H    0.029653   0.087669
    20  H   -0.109745   0.242639
    21  H    0.164402   0.050113
    22  H    0.174251   0.038661
    23  H    0.071569   0.064406
    24  H   -0.413109   0.665448
    25  H   -0.669297   0.866835
    26  H    0.057488   0.092488
    27  H   -0.544912   0.717823
    28  H    0.131067   0.018575
    29  H   -0.119347   0.268366
 Sum of Mulliken charges =  -1.00000   1.00000

 Dipole moment (field-independent basis, Debye):
    X=             -3.5109    Y=             -3.0168    Z=              4.3857  Tot=              6.3767
 Quadrupole moment (field-independent basis, Debye-Ang):
   XX=           -164.3405   YY=           -115.9340   ZZ=           -108.7183
   XY=             -3.7193   XZ=              7.9761   YZ=              3.2642

 Summary of Natural Population Analysis:

                                       Natural Population
                Natural  -----------------------------------------------
    Atom  No    Charge         Core      Valence    Rydberg      Total
 -----------------------------------------------------------------------
      C    1   -0.28536      0.99967     2.28078    0.00491     3.28536
      C    2   -0.19520      0.99962     2.18596    0.00963     3.19520
      C    3   -0.11757      0.99959     2.10671    0.01127     3.11757
      C    4   -0.28576      0.99965     2.28099    0.00512     3.28576
      C    5   -0.24823      0.99955     2.23935    0.00934     3.24823
      S    6    0.07262      4.99962     2.91091    0.01684     7.92738
      C    7   -0.24991      0.99959     2.23811    0.01222     3.24991
      C    8   -0.24396      0.99957     2.23348    0.01092     3.24396
      C    9    0.31451      0.99969     1.66425    0.02155     2.68549
      O   10   -0.29153      0.99987     3.28501    0.00665     4.29153
      C   11   -0.33373      0.99962     2.32865    0.00545     3.33373
      H   12    0.09477      0.00000     0.40421    0.00102     0.40523
      H   13    0.10011      0.00000     0.39901    0.00088     0.39989
      H   14    0.09506      0.00000     0.40379    0.00116     0.40494
      H   15    0.09436      0.00000     0.40435    0.00130     0.40564
      H   16    0.10301      0.00000     0.39522    0.00177     0.39699
      H   17    0.09178      0.00000     0.40636    0.00186     0.40822
      H   18    0.09827      0.00000     0.40081    0.00092     0.40173
      H   19    0.09662      0.00000     0.40237    0.00100     0.40338
      H   20    0.10019      0.00000     0.39889    0.00092     0.39981
      H   21    0.10074      0.00000     0.39834    0.00093     0.39926
      H   22    0.11977      0.00000     0.37858    0.00165     0.38023
      H   23    0.11233      0.00000     0.38587    0.00181     0.38767
      H   24    0.10607      0.00000     0.39238    0.00155     0.39393
      H   25    0.12061      0.00000     0.37097    0.00842     0.37939
      H   26    0.10397      0.00000     0.39459    0.00144     0.39603
      H   27    0.11233      0.00000     0.38417    0.00350     0.38767
      H   28    0.10736      0.00000     0.39154    0.00110     0.39264
      H   29    0.10677      0.00000     0.39222    0.00102     0.39323
 =======================================================================
   * Total *    0.00000     14.99602    32.85784    0.14613    48.00000

 Normal termination of Gaussian 16 at Tue Dec  8 20:42:46 2020.
