 Gaussian 16, Revision A.03,

 -----------------------------------------------------------
 # opt freq B3LYP/6-31G(d) empiricaldispersion=gd3bj scf=xqc
 -----------------------------------------------------------

 ------------------------------
 CID_66322465_JID_7772_neutraal
 ------------------------------
 Symbolic Z-matrix:
 Charge =  0 Multiplicity = 1

 SCF Done:  E(RB3LYP) =  -790.909660882     A.U. after   14 cycles
 SCF Done:  E(RB3LYP) =  -790.918305683     A.U. after   12 cycles
 SCF Done:  E(RB3LYP) =  -790.918634772     A.U. after   12 cycles
 SCF Done:  E(RB3LYP) =  -790.919563400     A.U. after   12 cycles
 SCF Done:  E(RB3LYP) =  -790.917663132     A.U. after   13 cycles
 SCF Done:  E(RB3LYP) =  -790.919750983     A.U. after   12 cycles
 SCF Done:  E(RB3LYP) =  -790.920425822     A.U. after   12 cycles
 SCF Done:  E(RB3LYP) =  -790.920474811     A.U. after   11 cycles
 SCF Done:  E(RB3LYP) =  -790.920542686     A.U. after   10 cycles
 SCF Done:  E(RB3LYP) =  -790.920555615     A.U. after   11 cycles
 SCF Done:  E(RB3LYP) =  -790.920573805     A.U. after    9 cycles
 SCF Done:  E(RB3LYP) =  -790.920574290     A.U. after    8 cycles
 SCF Done:  E(RB3LYP) =  -790.920574715     A.U. after    8 cycles
 SCF Done:  E(RB3LYP) =  -790.920574790     A.U. after    7 cycles
 SCF Done:  E(RB3LYP) =  -790.920574820     A.U. after    6 cycles
 Optimization completed.
    -- Stationary point found.
 Normal termination of Gaussian 16 at Mon Dec 14 16:59:04 2020.

 --------------------------------------------------------------------
 #N Geom=AllCheck Guess=TCheck SCRF=Check GenChk RB3LYP/6-31G(d) Freq
 --------------------------------------------------------------------

 Structure from the checkpoint file:  "JID_7772.chk"
 ------------------------------
 CID_66322465_JID_7772_neutraal
 ------------------------------
 Charge =  0 Multiplicity = 1

 SCF Done:  E(RB3LYP) =  -790.920574820     A.U. after    1 cycles

  Exact polarizability: 165.475  -6.467 146.528   3.936   0.762 137.095
 Approx polarizability: 201.145  -6.078 202.440   5.087  -3.677 210.157

                      1                      2                      3
                      A                      A                      A
 Frequencies --     24.8350                32.9448                40.7044
 Red. masses --      3.1395                 2.3363                 3.7992
 Frc consts  --      0.0011                 0.0015                 0.0037
 IR Inten    --      0.2307                 0.0050                 0.1862

                      4                      5                      6
                      A                      A                      A
 Frequencies --     56.9445                58.7989                63.1281
 Red. masses --      2.6978                 2.3207                 4.3165
 Frc consts  --      0.0052                 0.0047                 0.0101
 IR Inten    --      0.6497                 2.1396                 2.0735

                      7                      8                      9
                      A                      A                      A
 Frequencies --     98.3882               113.0302               128.7892
 Red. masses --      3.2949                 3.1614                 1.7735
 Frc consts  --      0.0188                 0.0238                 0.0173
 IR Inten    --      0.7030                 0.1785                 0.9929

                     10                     11                     12
                      A                      A                      A
 Frequencies --    147.3427               171.0948               198.4728
 Red. masses --      1.4587                 3.2514                 3.3551
 Frc consts  --      0.0187                 0.0561                 0.0779
 IR Inten    --      0.3911                 2.4779                 0.9661

                     13                     14                     15
                      A                      A                      A
 Frequencies --    210.5461               222.2007               227.0909
 Red. masses --      2.4800                 1.4605                 2.2520
 Frc consts  --      0.0648                 0.0425                 0.0684
 IR Inten    --      1.7052                 0.1085                 3.2763

                     16                     17                     18
                      A                      A                      A
 Frequencies --    249.1623               268.7584               282.7096
 Red. masses --      1.9283                 1.3428                 2.4418
 Frc consts  --      0.0705                 0.0571                 0.1150
 IR Inten    --      6.3400                 3.1676                 1.9728

                     19                     20                     21
                      A                      A                      A
 Frequencies --    319.8605               328.7367               360.3469
 Red. masses --      2.9118                 2.7245                 3.4285
 Frc consts  --      0.1755                 0.1735                 0.2623
 IR Inten    --      5.5830                 5.6293                 8.7156

                     22                     23                     24
                      A                      A                      A
 Frequencies --    376.7197               394.7242               410.0287
 Red. masses --      3.4542                 3.5978                 2.6752
 Frc consts  --      0.2888                 0.3303                 0.2650
 IR Inten    --      0.4627                 1.6078                 1.1590

                     25                     26                     27
                      A                      A                      A
 Frequencies --    439.1901               514.0921               570.5940
 Red. masses --      2.2958                 3.2359                 2.1687
 Frc consts  --      0.2609                 0.5039                 0.4160
 IR Inten    --      5.0728                 4.9293                12.7407

                     28                     29                     30
                      A                      A                      A
 Frequencies --    576.0957               609.1217               634.3920
 Red. masses --      3.3063                 3.2929                 3.1351
 Frc consts  --      0.6465                 0.7198                 0.7434
 IR Inten    --     22.7343                 5.2055                 4.8925

                     31                     32                     33
                      A                      A                      A
 Frequencies --    731.7557               774.4249               783.2071
 Red. masses --      1.5848                 5.9696                 1.3673
 Frc consts  --      0.5000                 2.1094                 0.4942
 IR Inten    --    100.3647                 2.6305                 1.7043

                     34                     35                     36
                      A                      A                      A
 Frequencies --    824.7089               834.3588               838.6015
 Red. masses --      1.8230                 2.0428                 1.8195
 Frc consts  --      0.7305                 0.8379                 0.7539
 IR Inten    --      7.0407                 0.6719                 5.1947

                     37                     38                     39
                      A                      A                      A
 Frequencies --    884.1426               896.0014               907.5927
 Red. masses --      2.1730                 2.1436                 2.0687
 Frc consts  --      1.0008                 1.0139                 1.0040
 IR Inten    --      0.7939                 2.9042                18.2542

                     40                     41                     42
                      A                      A                      A
 Frequencies --    914.3397               919.3473               951.8195
 Red. masses --      1.8709                 2.1655                 2.1171
 Frc consts  --      0.9215                 1.0784                 1.1300
 IR Inten    --      7.4247                 1.6192                18.4162

                     43                     44                     45
                      A                      A                      A
 Frequencies --    977.2292               987.4706               995.0105
 Red. masses --      1.8234                 1.9622                 1.7367
 Frc consts  --      1.0259                 1.1273                 1.0130
 IR Inten    --      2.9393                 2.1017                 1.7344

                     46                     47                     48
                      A                      A                      A
 Frequencies --   1020.4836              1025.3954              1032.0613
 Red. masses --      2.0134                 3.5016                 1.4004
 Frc consts  --      1.2353                 2.1692                 0.8788
 IR Inten    --      5.0202                11.6862                 0.5043

                     49                     50                     51
                      A                      A                      A
 Frequencies --   1041.5769              1086.9101              1098.3926
 Red. masses --      2.0837                 2.8889                 2.2075
 Frc consts  --      1.3319                 2.0108                 1.5692
 IR Inten    --      1.2969                27.6929                 4.9469

                     52                     53                     54
                      A                      A                      A
 Frequencies --   1118.1100              1132.2699              1147.0814
 Red. masses --      2.5526                 2.8694                 3.0052
 Frc consts  --      1.8802                 2.1674                 2.3298
 IR Inten    --     59.0962                12.5023               162.0216

                     55                     56                     57
                      A                      A                      A
 Frequencies --   1147.6229              1168.8008              1185.6413
 Red. masses --      2.3434                 2.4173                 1.2804
 Frc consts  --      1.8185                 1.9456                 1.0605
 IR Inten    --     75.8856                16.0931                 0.8685

                     58                     59                     60
                      A                      A                      A
 Frequencies --   1206.5520              1215.0685              1222.1122
 Red. masses --      1.4341                 1.9323                 2.1879
 Frc consts  --      1.2300                 1.6809                 1.9253
 IR Inten    --      1.7913                62.9218                70.3464

                     61                     62                     63
                      A                      A                      A
 Frequencies --   1228.3718              1239.5566              1247.3401
 Red. masses --      2.0244                 2.5684                 1.4874
 Frc consts  --      1.7997                 2.3251                 1.3634
 IR Inten    --     90.2867                68.1103                 4.2963

                     64                     65                     66
                      A                      A                      A
 Frequencies --   1282.5906              1287.3147              1310.7166
 Red. masses --      1.8289                 1.2472                 1.2747
 Frc consts  --      1.7726                 1.2177                 1.2903
 IR Inten    --    103.0947                 1.3132                 2.0377

                     67                     68                     69
                      A                      A                      A
 Frequencies --   1319.8632              1326.0111              1345.0193
 Red. masses --      1.3513                 1.1853                 1.3307
 Frc consts  --      1.3869                 1.2280                 1.4184
 IR Inten    --      6.6732                 7.1039                 0.9709

                     70                     71                     72
                      A                      A                      A
 Frequencies --   1346.5700              1363.5354              1369.8223
 Red. masses --      1.1981                 1.3738                 1.4594
 Frc consts  --      1.2800                 1.5049                 1.6134
 IR Inten    --      2.7655                 1.9750                 4.3216

                     73                     74                     75
                      A                      A                      A
 Frequencies --   1372.1654              1403.9634              1409.4471
 Red. masses --      1.3979                 1.3012                 1.3885
 Frc consts  --      1.5508                 1.5112                 1.6251
 IR Inten    --      1.6637                 5.3312                 0.9989

                     76                     77                     78
                      A                      A                      A
 Frequencies --   1416.0156              1433.3068              1440.9761
 Red. masses --      1.2267                 1.2263                 1.2931
 Frc consts  --      1.4492                 1.4844                 1.5820
 IR Inten    --      3.6513                 8.8883                 7.7566

                     79                     80                     81
                      A                      A                      A
 Frequencies --   1449.8922              1491.0079              1502.9902
 Red. masses --      1.2848                 1.2035                 1.1349
 Frc consts  --      1.5913                 1.5764                 1.5105
 IR Inten    --      9.9635                 5.0264                 7.8231

                     82                     83                     84
                      A                      A                      A
 Frequencies --   1512.6814              1515.5599              1517.7722
 Red. masses --      1.0480                 1.0721                 1.0752
 Frc consts  --      1.4129                 1.4509                 1.4593
 IR Inten    --      5.6597                 6.0953                 0.6042

                     85                     86                     87
                      A                      A                      A
 Frequencies --   1520.0642              1523.2009              1524.2534
 Red. masses --      1.0699                 1.0665                 1.0497
 Frc consts  --      1.4565                 1.4579                 1.4369
 IR Inten    --      4.5230                 8.5085                10.5937

                     88                     89                     90
                      A                      A                      A
 Frequencies --   1524.6828              1526.3753              1529.1292
 Red. masses --      1.0850                 1.0848                 1.0434
 Frc consts  --      1.4861                 1.4891                 1.4374
 IR Inten    --      1.5731                 1.9943                 5.5147

                     91                     92                     93
                      A                      A                      A
 Frequencies --   1531.9925              1545.4605              1548.3947
 Red. masses --      1.0707                 1.1223                 1.1027
 Frc consts  --      1.4806                 1.5793                 1.5576
 IR Inten    --      3.7868                10.5230                 1.2495

                     94                     95                     96
                      A                      A                      A
 Frequencies --   1552.8188              1826.1251              2964.0681
 Red. masses --      1.1146                11.3975                 1.0735
 Frc consts  --      1.5835                22.3935                 5.5568
 IR Inten    --      9.0478               175.2434                85.0077

                     97                     98                     99
                      A                      A                      A
 Frequencies --   3026.3530              3033.8478              3039.9586
 Red. masses --      1.0669                 1.0815                 1.0702
 Frc consts  --      5.7573                 5.8648                 5.8271
 IR Inten    --     34.0241                13.2725                25.9787

                    100                    101                    102
                      A                      A                      A
 Frequencies --   3043.2827              3045.5714              3048.2143
 Red. masses --      1.0400                 1.0638                 1.0638
 Frc consts  --      5.6749                 5.8137                 5.8238
 IR Inten    --     27.0862                55.9668                12.2259

                    103                    104                    105
                      A                      A                      A
 Frequencies --   3055.3235              3060.3998              3067.4053
 Red. masses --      1.0418                 1.0646                 1.0620
 Frc consts  --      5.7301                 5.8749                 5.8871
 IR Inten    --     32.8221                26.8264                54.6433

                    106                    107                    108
                      A                      A                      A
 Frequencies --   3077.0331              3088.3557              3095.7782
 Red. masses --      1.0292                 1.0977                 1.0972
 Frc consts  --      5.7416                 6.1686                 6.1955
 IR Inten    --     35.2051                20.8306                22.3981

                    109                    110                    111
                      A                      A                      A
 Frequencies --   3099.6922              3103.5768              3111.9861
 Red. masses --      1.1021                 1.0947                 1.1044
 Frc consts  --      6.2388                 6.2127                 6.3018
 IR Inten    --     44.0054                20.7777                82.6783

                    112                    113                    114
                      A                      A                      A
 Frequencies --   3121.1720              3125.9097              3126.0512
 Red. masses --      1.0955                 1.1050                 1.0960
 Frc consts  --      6.2879                 6.3618                 6.3106
 IR Inten    --     15.4336                17.1387                23.9578

                    115                    116                    117
                      A                      A                      A
 Frequencies --   3131.7937              3136.9265              3153.0050
 Red. masses --      1.0935                 1.0989                 1.1076
 Frc consts  --      6.3191                 6.3714                 6.4874
 IR Inten    --     27.9316                25.6538                19.8804

                    118                    119                    120
                      A                      A                      A
 Frequencies --   3157.0314              3182.9528              3487.7058
 Red. masses --      1.1017                 1.1073                 1.0736
 Frc consts  --      6.4693                 6.6098                 7.6944
 IR Inten    --     21.3894                18.0948                 1.1254

 - Thermochemistry -
 -------------------
 Temperature   298.150 Kelvin.  Pressure   1.00000 Atm.
 Atom     1 has atomic number  6 and mass  12.00000

 Molecular mass:   243.18344 amu.
 Principal axes and moments of inertia in atomic units:
                           1         2         3
     Eigenvalues --  2769.536546399.941697473.37090
           X            0.99999   0.00054   0.00517
           Y           -0.00059   0.99996   0.00914
           Z           -0.00516  -0.00914   0.99994
 This molecule is an asymmetric top.
 Rotational symmetry number  1.
 Warning -- assumption of classical behavior for rotation
           may cause significant error
 Rotational temperatures (Kelvin)      0.03127     0.01353     0.01159
 Rotational constants (GHZ):           0.65164     0.28199     0.24149
 Zero-point vibrational energy     993291.2 (Joules/Mol)
                                  237.40229 (Kcal/Mol)
 Warning -- explicit consideration of  29 degrees of freedom as
           vibrations may cause significant error
 Vibrational temperatures:     35.73    47.40    58.56    81.93    84.60
          (Kelvin)             90.83   141.56   162.63   185.30   211.99
                              246.17   285.56   302.93   319.70   326.73
                              358.49   386.68   406.76   460.21   472.98
                              518.46   542.02   567.92   589.94   631.90
                              739.66   820.96   828.87   876.39   912.75
                             1052.83  1114.22  1126.86  1186.57  1200.46
                             1206.56  1272.08  1289.15  1305.82  1315.53
                             1322.74  1369.46  1406.01  1420.75  1431.60
                             1468.25  1475.32  1484.91  1498.60  1563.82
                             1580.34  1608.71  1629.08  1650.39  1651.17
                             1681.64  1705.87  1735.96  1748.21  1758.35
                             1767.35  1783.45  1794.64  1845.36  1852.16
                             1885.83  1898.99  1907.83  1935.18  1937.41
                             1961.82  1970.87  1974.24  2019.99  2027.88
                             2037.33  2062.21  2073.24  2086.07  2145.23
                             2162.47  2176.41  2180.55  2183.74  2187.03
                             2191.55  2193.06  2193.68  2196.11  2200.08
                             2204.20  2223.57  2227.79  2234.16  2627.39
                             4264.63  4354.25  4365.03  4373.82  4378.60
                             4381.90  4385.70  4395.93  4403.23  4413.31
                             4427.16  4443.46  4454.13  4459.77  4465.35
                             4477.45  4490.67  4497.49  4497.69  4505.95
                             4513.34  4536.47  4542.26  4579.56  5018.03

 Zero-point correction=                           0.378325 (Hartree/Particle)
 Thermal correction to Energy=                    0.397866
 Thermal correction to Enthalpy=                  0.398810
 Thermal correction to Gibbs Free Energy=         0.328692
 Sum of electronic and zero-point Energies=           -790.542250
 Sum of electronic and thermal Energies=              -790.522709
 Sum of electronic and thermal Enthalpies=            -790.521764
 Sum of electronic and thermal Free Energies=         -790.591883

                     E (Thermal)             CV                S
                      KCal/Mol        Cal/Mol-Kelvin    Cal/Mol-Kelvin
 Total                  249.665             71.439            147.576
 Electronic               0.000              0.000              0.000
 Translational            0.889              2.981             42.367
 Rotational               0.889              2.981             33.249
 Vibrational            247.887             65.478             71.961
 Vibration     1          0.593              1.985              6.204
 Vibration     2          0.594              1.983              5.644
 Vibration     3          0.594              1.981              5.225
 Vibration     4          0.596              1.975              4.560
 Vibration     5          0.596              1.974              4.497
 Vibration     6          0.597              1.972              4.357
 Vibration     7          0.604              1.950              3.486
 Vibration     8          0.607              1.939              3.216
 Vibration     9          0.611              1.924              2.964
 Vibration    10          0.617              1.906              2.706
 Vibration    11          0.626              1.878              2.423
 Vibration    12          0.637              1.842              2.147
 Vibration    13          0.643              1.825              2.039
 Vibration    14          0.648              1.807              1.941
 Vibration    15          0.651              1.800              1.902
 Vibration    16          0.662              1.764              1.736
 Vibration    17          0.673              1.731              1.604
 Vibration    18          0.682              1.706              1.517
 Vibration    19          0.706              1.636              1.311
 Vibration    20          0.712              1.618              1.266
 Vibration    21          0.735              1.554              1.121
 Vibration    22          0.747              1.520              1.052
 Vibration    23          0.762              1.481              0.982
 Vibration    24          0.774              1.448              0.927
 Vibration    25          0.799              1.385              0.829
 Vibration    26          0.869              1.219              0.624
 Vibration    27          0.927              1.095              0.503
 Vibration    28          0.933              1.083              0.493
 Vibration    29          0.968              1.013              0.434

 Optimization completed.
    -- Stationary point found.
 Normal termination of Gaussian 16 at Mon Dec 14 17:20:55 2020.

 ----------------------------------------------------------------------
 # B3LYP/6-311++G(d,p) empiricaldispersion=gd3bj scf=xqc pop=npa geom=c
 heck
 ----------------------------------------------------------------------

 --------------------------------------
 CID_66322465_JID_7772_Energie_neutraal
 --------------------------------------
 Structure from the checkpoint file:  "JID_7772.chk"
 Charge =  0 Multiplicity = 1

 SCF Done:  E(RB3LYP) =  -791.149504963     A.U. after   15 cycles
 Normal termination of Gaussian 16 at Mon Dec 14 17:31:37 2020.

 ----------------------------------------------------------------------
 # B3LYP/6-311++G(d,p) empiricaldispersion=gd3bj scf=xqc pop=npa geom=c
 heck
 ----------------------------------------------------------------------

 ------------------------------------
 CID_66322465_JID_7772_Energie_kation
 ------------------------------------
 Structure from the checkpoint file:  "JID_7772.chk"
 Charge =  1 Multiplicity = 2

 SCF Done:  E(UB3LYP) =  -790.854858337     A.U. after   22 cycles
 Normal termination of Gaussian 16 at Mon Dec 14 17:52:42 2020.
 Gaussian 16:  ES64L-G16RevA.03 25-Dec-2016

 ----------------------------------------------------------------------
 # B3LYP/6-311++G(d,p) empiricaldispersion=gd3bj scf=xqc pop=npa geom=c
 heck
 ----------------------------------------------------------------------

 -----------------------------------
 CID_66322465_JID_7772_Energie_anion
 -----------------------------------
 Structure from the checkpoint file:  "JID_7772.chk"
 Charge = -1 Multiplicity = 2

                         Standard orientation:
 ---------------------------------------------------------------------
 Center     Atomic      Atomic             Coordinates (Angstroms)
 Number     Number       Type             X           Y           Z
 ---------------------------------------------------------------------
      1          6           0        0.214056    3.506427   -0.996109
      2          6           0        1.277737    2.586222   -0.404433
      3          7           0        0.631166    1.421922    0.204104
      4          6           0        1.484394    0.363474    0.752873
      5          6           0        2.464485    0.864825    1.837467
      6          6           0        0.564853   -0.724542    1.379615
      7          8           0        0.030339   -1.663900    0.472822
      8          6           0       -0.927850   -1.215619   -0.497084
      9          6           0       -2.362678   -1.148321    0.021866
     10          6           0       -2.703138    0.020672    0.969704
     11          6           0       -4.226167    0.156029    0.843719
     12          6           0       -4.473999   -0.009918   -0.667125
     13          6           0       -3.367285   -0.982615   -1.157326
     14          6           0        2.237817   -0.330081   -0.389435
     15          8           0        2.072350   -0.144204   -1.573905
     16          8           0        3.115002   -1.230376    0.103425
     17          6           0        3.776961   -2.035864   -0.882764
     18          1           0       -0.377052    2.969951   -1.744631
     19          1           0        0.673778    4.380795   -1.469389
     20          1           0       -0.471244    3.870677   -0.219498
     21          1           0        1.932700    2.222824   -1.199266
     22          1           0        1.903443    3.156907    0.304259
     23          1           0        0.012916    1.737374    0.949558
     24          1           0        1.895452    1.288465    2.674203
     25          1           0        3.090317    0.054019    2.215823
     26          1           0        3.121251    1.647570    1.447587
     27          1           0        1.162698   -1.321444    2.072706
     28          1           0       -0.216067   -0.213771    1.961696
     29          1           0       -0.625121   -0.253223   -0.919354
     30          1           0       -0.871049   -1.969761   -1.289452
     31          1           0       -2.575466   -2.089465    0.546225
     32          1           0       -2.376931   -0.153090    2.000592
     33          1           0       -2.214580    0.937242    0.611497
     34          1           0       -4.614541    1.100059    1.241507
     35          1           0       -4.712246   -0.657389    1.398677
     36          1           0       -4.367336    0.961019   -1.165168
     37          1           0       -5.482615   -0.372459   -0.890219
     38          1           0       -2.857507   -0.573253   -2.038039
     39          1           0       -3.775784   -1.953211   -1.456760
     40          1           0        3.042526   -2.608583   -1.454603
     41          1           0        4.353512   -1.408955   -1.567722
     42          1           0        4.434125   -2.702030   -0.323501
 ---------------------------------------------------------------------

 SCF Done:  E(UB3LYP) =  -791.135877786     A.U. after   33 cycles
 SCF Done:  E(UB3LYP) =  -791.135877786     a.u. after    1 cycles

 The electronic state is 2-A.
 Alpha  occ. eigenvalues --  -19.07887 -19.02811 -19.02157 -14.20372 -10.20857
 Alpha  occ. eigenvalues --  -10.13571 -10.12977 -10.12703 -10.10817 -10.09232
 Alpha  occ. eigenvalues --  -10.07483 -10.07385 -10.07290 -10.07027 -10.06996
 Alpha  occ. eigenvalues --  -10.06668 -10.06298  -1.02024  -0.93805  -0.93139
 Alpha  occ. eigenvalues --   -0.82045  -0.74541  -0.70267  -0.65212  -0.64409
 Alpha  occ. eigenvalues --   -0.62125  -0.61629  -0.59815  -0.55266  -0.52678
 Alpha  occ. eigenvalues --   -0.50939  -0.47915  -0.47141  -0.46314  -0.42148
 Alpha  occ. eigenvalues --   -0.40750  -0.40355  -0.39104  -0.38181  -0.37923
 Alpha  occ. eigenvalues --   -0.37579  -0.36711  -0.35693  -0.34530  -0.32951
 Alpha  occ. eigenvalues --   -0.32564  -0.32217  -0.31232  -0.30300  -0.29716
 Alpha  occ. eigenvalues --   -0.29099  -0.28318  -0.27542  -0.26946  -0.26799
 Alpha  occ. eigenvalues --   -0.26215  -0.24971  -0.24824  -0.24399  -0.23531
 Alpha  occ. eigenvalues --   -0.23136  -0.22384  -0.21892  -0.20756  -0.18714
 Alpha  occ. eigenvalues --   -0.16793  -0.13088   0.04152
 Alpha virt. eigenvalues --    0.05701   0.06356   0.07202   0.07642   0.08205
 Alpha virt. eigenvalues --    0.08379   0.08724   0.09224   0.09414   0.09951
 Alpha virt. eigenvalues --    0.10212   0.10721   0.10862   0.11159   0.11744

  Beta  occ. eigenvalues --  -19.07883 -19.02807 -19.02152 -14.20359 -10.20855
  Beta  occ. eigenvalues --  -10.13544 -10.12974 -10.12692 -10.10814 -10.09217
  Beta  occ. eigenvalues --  -10.07480 -10.07378 -10.07277 -10.06994 -10.06978
  Beta  occ. eigenvalues --  -10.06652 -10.06273  -1.02015  -0.93795  -0.93130
  Beta  occ. eigenvalues --   -0.82022  -0.74524  -0.70247  -0.65193  -0.64373
  Beta  occ. eigenvalues --   -0.62081  -0.61599  -0.59779  -0.55227  -0.52642
  Beta  occ. eigenvalues --   -0.50887  -0.47863  -0.47119  -0.46291  -0.42128
  Beta  occ. eigenvalues --   -0.40734  -0.40327  -0.39074  -0.38161  -0.37904
  Beta  occ. eigenvalues --   -0.37546  -0.36689  -0.35662  -0.34500  -0.32925
  Beta  occ. eigenvalues --   -0.32542  -0.32186  -0.31205  -0.30273  -0.29688
  Beta  occ. eigenvalues --   -0.29074  -0.28294  -0.27512  -0.26924  -0.26767
  Beta  occ. eigenvalues --   -0.26185  -0.24945  -0.24799  -0.24368  -0.23508
  Beta  occ. eigenvalues --   -0.23114  -0.22366  -0.21877  -0.20741  -0.18700
  Beta  occ. eigenvalues --   -0.16782  -0.13070
  Beta virt. eigenvalues --    0.06081   0.06406   0.07029   0.07643   0.08097
  Beta virt. eigenvalues --    0.08368   0.08585   0.09050   0.09443   0.09770
  Beta virt. eigenvalues --    0.10250   0.10443   0.10895   0.11106   0.11404

 Mulliken charges and spin densities:
               1          2
     1  C    0.513220  -1.080319
     2  C   -0.028716  -0.130807
     3  N    0.267162  -0.019247
     4  C   -1.212304   0.632961
     5  C    0.527165  -1.163801
     6  C   -0.491795   0.263460
     7  O    0.072790   0.000423
     8  C    0.032889  -0.563335
     9  C   -0.006636   0.589693
    10  C   -0.217319  -0.090779
    11  C    0.030672  -0.471151
    12  C    0.223103  -0.680048
    13  C   -0.545359   0.094976
    14  C   -0.127205  -0.313891
    15  O   -0.108782   0.005150
    16  O    0.028359   0.044278
    17  C    0.504641  -0.639191
    18  H    0.048510   0.099275
    19  H   -0.125153   0.258058
    20  H   -0.313288   0.455131
    21  H    0.123158   0.049477
    22  H   -0.189518   0.314074
    23  H    0.104984   0.129154
    24  H   -0.378795   0.546851
    25  H   -0.014887   0.183535
    26  H   -0.189111   0.359889
    27  H   -0.055268   0.242869
    28  H    0.286762  -0.108602
    29  H    0.326604  -0.064743
    30  H    0.106092   0.045751
    31  H    0.138381   0.068883
    32  H   -0.397526   0.539921
    33  H    0.661063  -0.542076
    34  H   -0.481748   0.649768
    35  H    0.106909   0.028422
    36  H    0.076147   0.053316
    37  H   -0.072334   0.217854
    38  H    0.045050   0.109603
    39  H    0.040121   0.091155
    40  H    0.046017   0.123191
    41  H   -0.077637   0.246241
    42  H   -0.276419   0.424633
 Sum of Mulliken charges =  -1.00000   1.00000

 Dipole moment (field-independent basis, Debye):
    X=             -0.3284    Y=             -3.4654    Z=             -2.6967  Tot=              4.4033
 Quadrupole moment (field-independent basis, Debye-Ang):
   XX=           -184.3578   YY=           -160.6924   ZZ=           -149.0694
   XY=              7.0338   XZ=              0.9350   YZ=             -5.1673

 Summary of Natural Population Analysis:

                                       Natural Population
                Natural  -----------------------------------------------
    Atom  No    Charge         Core      Valence    Rydberg      Total
 -----------------------------------------------------------------------
      C    1   -0.28557      0.99967     2.28047    0.00543     3.28557
      C    2   -0.09041      0.99963     2.08036    0.01043     3.09041
      N    3   -0.34681      0.99972     2.83400    0.01310     3.84681
      C    4    0.00837      0.99953     1.97742    0.01468     2.99163
      C    5   -0.29296      0.99963     2.28625    0.00708     3.29296
      C    6   -0.00115      0.99951     1.98714    0.01449     3.00115
      O    7   -0.30280      0.99989     3.29393    0.00898     4.30280
      C    8   -0.01292      0.99951     2.00145    0.01196     3.01292
      C    9   -0.12352      0.99959     2.11362    0.01031     3.12352
      C   10   -0.19541      0.99962     2.18630    0.00949     3.19541
      C   11   -0.18939      0.99964     2.18170    0.00805     3.18939
      C   12   -0.19182      0.99964     2.18535    0.00683     3.19182
      C   13   -0.18978      0.99963     2.18331    0.00684     3.18978
      C   14    0.41852      0.99962     1.55372    0.02814     2.58148
      O   15   -0.30239      0.99987     3.29716    0.00537     4.30239
      O   16   -0.28003      0.99986     3.27069    0.00948     4.28003
      C   17   -0.10485      0.99959     2.09596    0.00929     3.10485
      H   18    0.09989      0.00000     0.39900    0.00111     0.40011
      H   19    0.09752      0.00000     0.40168    0.00080     0.40248
      H   20    0.09714      0.00000     0.40161    0.00125     0.40286
      H   21    0.09948      0.00000     0.39895    0.00156     0.40052
      H   22    0.07916      0.00000     0.41921    0.00164     0.42084
      H   23    0.17529      0.00000     0.32098    0.00373     0.32471
      H   24    0.10326      0.00000     0.39505    0.00170     0.39674
      H   25    0.10859      0.00000     0.38987    0.00154     0.39141
      H   26    0.10426      0.00000     0.39439    0.00135     0.39574
      H   27    0.09567      0.00000     0.40270    0.00163     0.40433
      H   28    0.08445      0.00000     0.41368    0.00186     0.41555
      H   29    0.10225      0.00000     0.39602    0.00173     0.39775
      H   30    0.08662      0.00000     0.41229    0.00109     0.41338
      H   31    0.09512      0.00000     0.40344    0.00144     0.40488
      H   32    0.10072      0.00000     0.39792    0.00136     0.39928
      H   33    0.09774      0.00000     0.40020    0.00206     0.40226
      H   34    0.10125      0.00000     0.39756    0.00119     0.39875
      H   35    0.09151      0.00000     0.40725    0.00123     0.40849
      H   36    0.09561      0.00000     0.40297    0.00142     0.40439
      H   37    0.09662      0.00000     0.40224    0.00114     0.40338
      H   38    0.09751      0.00000     0.40127    0.00121     0.40249
      H   39    0.09697      0.00000     0.40204    0.00099     0.40303
      H   40    0.09234      0.00000     0.40669    0.00097     0.40766
      H   41    0.09132      0.00000     0.40751    0.00118     0.40868
      H   42    0.09263      0.00000     0.40624    0.00114     0.40737
 =======================================================================
   * Total *   -0.00000     16.99413    49.78959    0.21629    67.00000

 Normal termination of Gaussian 16 at Mon Dec 14 18:24:06 2020.
