 Gaussian 16, Revision A.03,

 -----------------------------------------------------------
 # opt freq B3LYP/6-31G(d) empiricaldispersion=gd3bj scf=xqc
 -----------------------------------------------------------

 ------------------------------
 CID_62016791_JID_8020_neutraal
 ------------------------------
 Symbolic Z-matrix:
 Charge =  0 Multiplicity = 1

 SCF Done:  E(RB3LYP) =  -853.611823560     A.U. after   15 cycles
 SCF Done:  E(RB3LYP) =  -853.623944456     A.U. after   13 cycles
 SCF Done:  E(RB3LYP) =  -853.617124535     A.U. after   15 cycles
 SCF Done:  E(RB3LYP) =  -853.626099198     A.U. after   13 cycles
 SCF Done:  E(RB3LYP) =  -853.627920969     A.U. after   13 cycles
 SCF Done:  E(RB3LYP) =  -853.628535461     A.U. after   13 cycles
 SCF Done:  E(RB3LYP) =  -853.629928031     A.U. after   12 cycles
 SCF Done:  E(RB3LYP) =  -853.630517203     A.U. after   12 cycles
 SCF Done:  E(RB3LYP) =  -853.630783181     A.U. after   12 cycles
 SCF Done:  E(RB3LYP) =  -853.631093525     A.U. after   12 cycles
 SCF Done:  E(RB3LYP) =  -853.639098324     A.U. after   11 cycles
 SCF Done:  E(RB3LYP) =  -853.639095688     A.U. after   10 cycles
 SCF Done:  E(RB3LYP) =  -853.639098448     A.U. after    9 cycles
 SCF Done:  E(RB3LYP) =  -853.639097011     A.U. after    9 cycles
 SCF Done:  E(RB3LYP) =  -853.639098577     A.U. after    9 cycles
 Optimization completed.
    -- Stationary point found.
 Normal termination of Gaussian 16 at Fri Dec 11 19:31:23 2020.

 --------------------------------------------------------------------
 #N Geom=AllCheck Guess=TCheck SCRF=Check GenChk RB3LYP/6-31G(d) Freq
 --------------------------------------------------------------------

 Structure from the checkpoint file:  "JID_8020.chk"
 ------------------------------
 CID_62016791_JID_8020_neutraal
 ------------------------------
 Charge =  0 Multiplicity = 1

 SCF Done:  E(RB3LYP) =  -853.639098576     A.U. after    1 cycles

  Exact polarizability: 199.461  -8.813 154.043 -16.160 -14.076 111.707
 Approx polarizability: 280.052 -36.455 256.058 -31.395 -27.103 172.998

                      1                      2                      3
                      A                      A                      A
 Frequencies --     26.8334                34.0541                42.9018
 Red. masses --      5.6806                 3.4195                 4.3042
 Frc consts  --      0.0024                 0.0023                 0.0047
 IR Inten    --      0.2890                 0.5327                 0.7393

                      4                      5                      6
                      A                      A                      A
 Frequencies --     64.4150                88.3564               116.0941
 Red. masses --      3.3152                 4.9140                 2.9421
 Frc consts  --      0.0081                 0.0226                 0.0234
 IR Inten    --      2.1500                 0.5765                 1.8543

                      7                      8                      9
                      A                      A                      A
 Frequencies --    136.1231               150.0906               192.8780
 Red. masses --      9.7125                 3.9019                 1.3140
 Frc consts  --      0.1060                 0.0518                 0.0288
 IR Inten    --      0.2491                 6.4244                 1.4640

                     10                     11                     12
                      A                      A                      A
 Frequencies --    200.2759               205.1324               225.5920
 Red. masses --      5.7450                 2.7376                 3.5717
 Frc consts  --      0.1358                 0.0679                 0.1071
 IR Inten    --      2.8044                 3.6298                 7.0066

                     13                     14                     15
                      A                      A                      A
 Frequencies --    263.0374               268.8973               291.5338
 Red. masses --      3.8313                 1.7471                 6.8438
 Frc consts  --      0.1562                 0.0744                 0.3427
 IR Inten    --      9.3638                97.2995                11.0441

                     16                     17                     18
                      A                      A                      A
 Frequencies --    299.3936               333.2260               345.9555
 Red. masses --      2.0987                 2.4033                 2.7621
 Frc consts  --      0.1108                 0.1572                 0.1948
 IR Inten    --      6.8324                 6.1300                 8.6927

                     19                     20                     21
                      A                      A                      A
 Frequencies --    374.4881               428.5365               505.3016
 Red. masses --      3.5316                 2.0030                 5.6609
 Frc consts  --      0.2918                 0.2167                 0.8516
 IR Inten    --      4.5156                 0.9978                 8.6090

                     22                     23                     24
                      A                      A                      A
 Frequencies --    517.1910               537.7284               558.6242
 Red. masses --      2.5058                 2.5194                 5.3947
 Frc consts  --      0.3949                 0.4292                 0.9919
 IR Inten    --      6.9092                13.6860                 7.8615

                     25                     26                     27
                      A                      A                      A
 Frequencies --    608.4180               619.1768               662.4063
 Red. masses --      2.6976                 6.1218                 4.6511
 Frc consts  --      0.5883                 1.3828                 1.2024
 IR Inten    --      4.1442                 7.4906                 1.2691

                     28                     29                     30
                      A                      A                      A
 Frequencies --    703.3741               712.5679               720.1902
 Red. masses --      3.0808                 1.9744                 1.7228
 Frc consts  --      0.8980                 0.5907                 0.5265
 IR Inten    --      3.3993                20.0355                69.4592

                     31                     32                     33
                      A                      A                      A
 Frequencies --    751.3322               771.7452               810.5133
 Red. masses --      3.0106                 4.6829                 1.5843
 Frc consts  --      1.0013                 1.6433                 0.6132
 IR Inten    --      7.7221                 5.0374                 1.4311

                     34                     35                     36
                      A                      A                      A
 Frequencies --    840.6786               862.8924               871.0165
 Red. masses --      1.7918                 3.3283                 2.7641
 Frc consts  --      0.7461                 1.4601                 1.2355
 IR Inten    --     21.9138                14.4134                19.5308

                     37                     38                     39
                      A                      A                      A
 Frequencies --    894.3844               896.4602               925.1970
 Red. masses --      1.3625                 2.3237                 1.3192
 Frc consts  --      0.6422                 1.1003                 0.6653
 IR Inten    --     10.8601                 2.4116                 1.9984

                     40                     41                     42
                      A                      A                      A
 Frequencies --    948.7852               966.9984               996.1798
 Red. masses --      2.0115                 7.0465                 2.8065
 Frc consts  --      1.0669                 3.8822                 1.6409
 IR Inten    --      4.1267                 7.0696                10.8389

                     43                     44                     45
                      A                      A                      A
 Frequencies --   1016.7068              1047.4141              1083.6148
 Red. masses --      3.1046                 1.8347                 2.1681
 Frc consts  --      1.8908                 1.1859                 1.4999
 IR Inten    --     14.6402                17.9726                10.7632

                     46                     47                     48
                      A                      A                      A
 Frequencies --   1088.0581              1104.0344              1118.9562
 Red. masses --      1.5882                 2.8264                 2.7077
 Frc consts  --      1.1078                 2.0298                 1.9975
 IR Inten    --     33.1824                66.9696                29.0981

                     49                     50                     51
                      A                      A                      A
 Frequencies --   1131.3889              1153.9847              1173.5883
 Red. masses --      2.0758                 3.1136                 6.6701
 Frc consts  --      1.5655                 2.4429                 5.4127
 IR Inten    --     37.1210                37.1125                 2.8327

                     52                     53                     54
                      A                      A                      A
 Frequencies --   1194.8465              1216.9114              1228.4061
 Red. masses --      1.9890                 1.7202                 1.7818
 Frc consts  --      1.6730                 1.5009                 1.5841
 IR Inten    --     21.2659                 9.3847                52.6384

                     55                     56                     57
                      A                      A                      A
 Frequencies --   1243.0244              1266.5635              1295.6730
 Red. masses --      2.1389                 1.2504                 1.1819
 Frc consts  --      1.9472                 1.1818                 1.1690
 IR Inten    --     17.9505                 0.7386                 6.0861

                     58                     59                     60
                      A                      A                      A
 Frequencies --   1317.7423              1357.6736              1366.0601
 Red. masses --      1.1533                 2.9767                 2.1256
 Frc consts  --      1.1799                 3.2328                 2.3371
 IR Inten    --      1.7744                 7.9178                43.6117

                     61                     62                     63
                      A                      A                      A
 Frequencies --   1370.3654              1372.7331              1397.0211
 Red. masses --      4.3459                 1.5127                 1.2989
 Frc consts  --      4.8084                 1.6795                 1.4935
 IR Inten    --     39.6901                17.9603                13.2675

                     64                     65                     66
                      A                      A                      A
 Frequencies --   1410.9158              1417.0398              1427.6756
 Red. masses --      1.2972                 1.4461                 1.3333
 Frc consts  --      1.5215                 1.7109                 1.6011
 IR Inten    --      4.9981                38.2265                 4.4209

                     67                     68                     69
                      A                      A                      A
 Frequencies --   1436.5977              1447.8202              1465.1953
 Red. masses --      1.3514                 1.5352                 2.3921
 Frc consts  --      1.6433                 1.8961                 3.0257
 IR Inten    --      6.8604                41.8892                24.9957

                     70                     71                     72
                      A                      A                      A
 Frequencies --   1480.0936              1486.0390              1494.9106
 Red. masses --      2.7693                 1.1764                 1.1058
 Frc consts  --      3.5744                 1.5307                 1.4559
 IR Inten    --    103.5599                33.5274                 4.7082

                     73                     74                     75
                      A                      A                      A
 Frequencies --   1500.2114              1518.0466              1522.8826
 Red. masses --      1.1006                 1.0870                 1.0669
 Frc consts  --      1.4595                 1.4759                 1.4578
 IR Inten    --      4.7331                 1.7184                 3.6287

                     76                     77                     78
                      A                      A                      A
 Frequencies --   1523.7892              1527.6823              1538.1645
 Red. masses --      4.3679                 1.0707                 1.0801
 Frc consts  --      5.9755                 1.4722                 1.5057
 IR Inten    --     58.0827                 0.0755                11.1606

                     79                     80                     81
                      A                      A                      A
 Frequencies --   1541.8371              1566.4920              1636.4598
 Red. masses --      1.0915                 5.4647                11.4553
 Frc consts  --      1.5289                 7.9009                18.0746
 IR Inten    --      0.1959               168.3828               300.9698

                     82                     83                     84
                      A                      A                      A
 Frequencies --   1789.9579              2956.9919              2996.4911
 Red. masses --     11.4217                 1.0720                 1.0657
 Frc consts  --     21.5609                 5.5229                 5.6380
 IR Inten    --    702.5684                51.8899                69.5379

                     85                     86                     87
                      A                      A                      A
 Frequencies --   3002.3221              3035.4382              3045.7146
 Red. masses --      1.0708                 1.0635                 1.0624
 Frc consts  --      5.6871                 5.7735                 5.8068
 IR Inten    --     41.8445                31.0262                17.4377

                     88                     89                     90
                      A                      A                      A
 Frequencies --   3048.3010              3053.0727              3062.4762
 Red. masses --      1.0406                 1.0894                 1.0932
 Frc consts  --      5.6970                 5.9830                 6.0408
 IR Inten    --     24.7596                24.5237               108.9149

                     91                     92                     93
                      A                      A                      A
 Frequencies --   3074.8497              3084.4657              3102.8887
 Red. masses --      1.0986                 1.1027                 1.0917
 Frc consts  --      6.1197                 6.1814                 6.1927
 IR Inten    --     57.2868                32.5202                 9.2855

                     94                     95                     96
                      A                      A                      A
 Frequencies --   3110.7312              3132.9693              3240.4688
 Red. masses --      1.1010                 1.1012                 1.0911
 Frc consts  --      6.2773                 6.3683                 6.7503
 IR Inten    --     54.9973                35.2816                 0.7486

                     97                     98                     99
                      A                      A                      A
 Frequencies --   3284.3984              3548.4650              3632.0553
 Red. masses --      1.0994                 1.0664                 1.0823
 Frc consts  --      6.9877                 7.9113                 8.4120
 IR Inten    --      0.5897               671.8237               160.5057

 - Thermochemistry -
 -------------------
 Temperature   298.150 Kelvin.  Pressure   1.00000 Atm.
 Atom     1 has atomic number  6 and mass  12.00000

 Molecular mass:   251.13822 amu.
 Principal axes and moments of inertia in atomic units:
                           1         2         3
     Eigenvalues --  2692.329716783.521768168.53079
           X            0.99983   0.01786   0.00530
           Y           -0.01790   0.99981   0.00797
           Z           -0.00516  -0.00806   0.99995
 This molecule is an asymmetric top.
 Rotational symmetry number  1.
 Warning -- assumption of classical behavior for rotation
           may cause significant error
 Rotational temperatures (Kelvin)      0.03217     0.01277     0.01060
 Rotational constants (GHZ):           0.67033     0.26605     0.22094
 Zero-point vibrational energy     768347.4 (Joules/Mol)
                                  183.63944 (Kcal/Mol)
 Warning -- explicit consideration of  26 degrees of freedom as
           vibrations may cause significant error
 Vibrational temperatures:     38.61    49.00    61.73    92.68   127.13
          (Kelvin)            167.03   195.85   215.95   277.51   288.15
                              295.14   324.58   378.45   386.88   419.45
                              430.76   479.44   497.75   538.80   616.57
                              727.02   744.12   773.67   803.74   875.38
                              890.86   953.05  1012.00  1025.23  1036.19
                             1081.00  1110.37  1166.15  1209.55  1241.51
                             1253.20  1286.82  1289.81  1331.15  1365.09
                             1391.30  1433.28  1462.81  1507.00  1559.08
                             1565.47  1588.46  1609.93  1627.82  1660.33
                             1688.53  1719.12  1750.86  1767.40  1788.43
                             1822.30  1864.18  1895.94  1953.39  1965.46
                             1971.65  1975.06  2010.00  2029.99  2038.80
                             2054.11  2066.94  2083.09  2108.09  2129.52
                             2138.08  2150.84  2158.47  2184.13  2191.09
                             2192.39  2197.99  2213.08  2218.36  2253.83
                             2354.50  2575.35  4254.45  4311.28  4319.67
                             4367.32  4382.10  4385.83  4392.69  4406.22
                             4424.02  4437.86  4464.36  4475.65  4507.64
                             4662.31  4725.52  5105.45  5225.72

 Zero-point correction=                           0.292648 (Hartree/Particle)
 Thermal correction to Energy=                    0.309770
 Thermal correction to Enthalpy=                  0.310714
 Thermal correction to Gibbs Free Energy=         0.246299
 Sum of electronic and zero-point Energies=           -853.346451
 Sum of electronic and thermal Energies=              -853.329328
 Sum of electronic and thermal Enthalpies=            -853.328384
 Sum of electronic and thermal Free Energies=         -853.392800

                     E (Thermal)             CV                S
                      KCal/Mol        Cal/Mol-Kelvin    Cal/Mol-Kelvin
 Total                  194.384             64.147            135.574
 Electronic               0.000              0.000              0.000
 Translational            0.889              2.981             42.463
 Rotational               0.889              2.981             33.367
 Vibrational            192.606             58.186             59.745
 Vibration     1          0.593              1.984              6.051
 Vibration     2          0.594              1.983              5.578
 Vibration     3          0.595              1.980              5.120
 Vibration     4          0.597              1.971              4.317
 Vibration     5          0.601              1.957              3.696
 Vibration     6          0.608              1.936              3.164
 Vibration     7          0.614              1.917              2.858
 Vibration     8          0.618              1.903              2.671
 Vibration     9          0.635              1.850              2.200
 Vibration    10          0.638              1.839              2.131
 Vibration    11          0.640              1.833              2.087
 Vibration    12          0.650              1.802              1.914
 Vibration    13          0.670              1.741              1.642
 Vibration    14          0.673              1.730              1.603
 Vibration    15          0.687              1.689              1.465
 Vibration    16          0.692              1.675              1.420
 Vibration    17          0.715              1.609              1.244
 Vibration    18          0.724              1.583              1.185
 Vibration    19          0.746              1.524              1.061
 Vibration    20          0.790              1.408              0.863
 Vibration    21          0.861              1.238              0.645
 Vibration    22          0.872              1.212              0.617
 Vibration    23          0.893              1.167              0.570
 Vibration    24          0.914              1.121              0.527
 Vibration    25          0.967              1.014              0.435
 Vibration    26          0.979              0.991              0.418

                           ! Non-Optimized Parameters !
 Normal termination of Gaussian 16 at Fri Dec 11 19:46:26 2020.

 ----------------------------------------------------------------------
 # B3LYP/6-311++G(d,p) empiricaldispersion=gd3bj scf=xqc pop=npa geom=c
 heck
 ----------------------------------------------------------------------

 --------------------------------------
 CID_62016791_JID_8020_Energie_neutraal
 --------------------------------------
 Structure from the checkpoint file:  "JID_8020.chk"
 Charge =  0 Multiplicity = 1

 SCF Done:  E(RB3LYP) =  -853.886195531     A.U. after   16 cycles
 Normal termination of Gaussian 16 at Fri Dec 11 19:52:21 2020.

 ----------------------------------------------------------------------
 # B3LYP/6-311++G(d,p) empiricaldispersion=gd3bj scf=xqc pop=npa geom=c
 heck
 ----------------------------------------------------------------------

 ------------------------------------
 CID_62016791_JID_8020_Energie_kation
 ------------------------------------
 Structure from the checkpoint file:  "JID_8020.chk"
 Charge =  1 Multiplicity = 2

 SCF Done:  E(UB3LYP) =  -853.618126992     A.U. after   25 cycles
 Normal termination of Gaussian 16 at Fri Dec 11 20:05:14 2020.
 Gaussian 16:  ES64L-G16RevA.03 25-Dec-2016

 ----------------------------------------------------------------------
 # B3LYP/6-311++G(d,p) empiricaldispersion=gd3bj scf=xqc pop=npa geom=c
 heck
 ----------------------------------------------------------------------

 -----------------------------------
 CID_62016791_JID_8020_Energie_anion
 -----------------------------------
 Structure from the checkpoint file:  "JID_8020.chk"
 Charge = -1 Multiplicity = 2

                         Standard orientation:
 ---------------------------------------------------------------------
 Center     Atomic      Atomic             Coordinates (Angstroms)
 Number     Number       Type             X           Y           Z
 ---------------------------------------------------------------------
      1          6           0        4.270100    2.012609    0.746553
      2          6           0        3.347025    1.111764    1.568027
      3          6           0        2.034921    0.777970    0.847908
      4          7           0        2.224735    0.171430   -0.463346
      5          6           0        2.947090   -1.093641   -0.526471
      6          6           0        2.250665   -2.354354    0.003469
      7          8           0        1.209209   -2.800489   -0.840995
      8          6           0        1.170459    0.415501   -1.434079
      9          6           0       -0.252909    0.391503   -0.893166
     10          6           0       -1.048422    1.521684   -1.011851
     11          6           0       -2.388283    1.578311   -0.510059
     12          8           0       -3.246846    2.453760   -0.512535
     13          7           0       -2.686662    0.328403    0.100119
     14          6           0       -1.867557   -0.770191    0.200763
     15          7           0       -0.646820   -0.767098   -0.287716
     16          7           0       -2.545504   -1.770255    0.857550
     17          6           0       -3.726773   -1.262258    1.130192
     18          7           0       -3.868043    0.012953    0.695184
     19          1           0        4.538870    1.534630   -0.200215
     20          1           0        5.191393    2.243463    1.292623
     21          1           0        3.774783    2.961444    0.505718
     22          1           0        3.872900    0.189304    1.844731
     23          1           0        3.086272    1.600989    2.515756
     24          1           0        1.402082    0.161722    1.511606
     25          1           0        1.486319    1.715291    0.688654
     26          1           0        3.208081   -1.277059   -1.575995
     27          1           0        3.894970   -0.962617    0.011484
     28          1           0        2.996521   -3.158897    0.050809
     29          1           0        1.892851   -2.185119    1.032127
     30          1           0        0.429338   -2.248278   -0.625356
     31          1           0        1.317946    1.397795   -1.908285
     32          1           0        1.247506   -0.344001   -2.218653
     33          1           0       -0.666361    2.413547   -1.492966
     34          1           0       -4.527005   -1.774394    1.646805
     35          1           0       -4.607205    0.704597    0.709156
 ---------------------------------------------------------------------

 SCF Done:  E(UB3LYP) =  -853.891491073     A.U. after   33 cycles
 SCF Done:  E(UB3LYP) =  -853.892047492     a.u. after    9 cycles

 The electronic state is 2-A.
 Alpha  occ. eigenvalues --  -18.98847 -18.97510 -14.27572 -14.26740 -14.20232
 Alpha  occ. eigenvalues --  -14.18487 -14.18451 -10.16094 -10.13842 -10.11088
 Alpha  occ. eigenvalues --  -10.10476 -10.10292 -10.09635 -10.09591 -10.09487
 Alpha  occ. eigenvalues --  -10.08342 -10.07852 -10.04492  -0.98735  -0.91276
 Alpha  occ. eigenvalues --   -0.89672  -0.83931  -0.81910  -0.79185  -0.72639
 Alpha  occ. eigenvalues --   -0.69415  -0.66838  -0.63706  -0.60796  -0.56912
 Alpha  occ. eigenvalues --   -0.53796  -0.53498  -0.52235  -0.51474  -0.46008
 Alpha  occ. eigenvalues --   -0.44156  -0.42042  -0.41110  -0.39653  -0.38645
 Alpha  occ. eigenvalues --   -0.38341  -0.37422  -0.36606  -0.35111  -0.33783
 Alpha  occ. eigenvalues --   -0.32908  -0.31719  -0.31055  -0.30812  -0.30377
 Alpha  occ. eigenvalues --   -0.28953  -0.28083  -0.27607  -0.26918  -0.26756
 Alpha  occ. eigenvalues --   -0.25370  -0.24757  -0.24326  -0.22390  -0.19060
 Alpha  occ. eigenvalues --   -0.18931  -0.17082  -0.16311  -0.16020  -0.15022
 Alpha  occ. eigenvalues --   -0.10906  -0.10252   0.04606
 Alpha virt. eigenvalues --    0.06164   0.07293   0.07900   0.08248   0.08824
 Alpha virt. eigenvalues --    0.08917   0.09956   0.10446   0.10614   0.11223
 Alpha virt. eigenvalues --    0.11774   0.12208   0.13115   0.13557   0.14142

  Beta  occ. eigenvalues --  -18.98847 -18.97519 -14.27348 -14.26397 -14.20230
  Beta  occ. eigenvalues --  -14.18607 -14.18447 -10.16101 -10.13580 -10.10631
  Beta  occ. eigenvalues --  -10.10476 -10.10262 -10.09634 -10.09594 -10.09487
  Beta  occ. eigenvalues --  -10.08342 -10.07852 -10.04337  -0.98306  -0.91226
  Beta  occ. eigenvalues --   -0.89671  -0.83739  -0.81832  -0.78930  -0.72189
  Beta  occ. eigenvalues --   -0.69404  -0.66671  -0.63615  -0.60733  -0.56838
  Beta  occ. eigenvalues --   -0.53605  -0.52801  -0.52217  -0.51327  -0.45951
  Beta  occ. eigenvalues --   -0.44004  -0.41821  -0.41068  -0.39483  -0.38498
  Beta  occ. eigenvalues --   -0.37597  -0.37179  -0.36499  -0.34968  -0.33775
  Beta  occ. eigenvalues --   -0.32807  -0.31688  -0.30922  -0.30787  -0.30315
  Beta  occ. eigenvalues --   -0.28875  -0.27650  -0.27496  -0.26850  -0.26691
  Beta  occ. eigenvalues --   -0.25261  -0.24360  -0.24122  -0.22377  -0.18946
  Beta  occ. eigenvalues --   -0.18253  -0.17019  -0.16010  -0.15038  -0.14822
  Beta  occ. eigenvalues --   -0.10248  -0.10163
  Beta virt. eigenvalues --    0.06138   0.07876   0.08162   0.08279   0.08898
  Beta virt. eigenvalues --    0.09078   0.10174   0.10547   0.10676   0.10790
  Beta virt. eigenvalues --    0.11259   0.11756   0.12249   0.13068   0.13567

 Mulliken charges and spin densities:
               1          2
     1  C   -0.482022  -0.011242
     2  C   -0.314273   0.020676
     3  C   -0.338347  -0.020874
     4  N    0.259743   0.004816
     5  C   -0.235190  -0.003828
     6  C   -0.395081   0.003073
     7  O   -0.339399  -0.000008
     8  C   -0.619940  -0.010334
     9  C    0.427628  -0.080689
    10  C   -0.009775   0.087918
    11  C   -0.274937  -0.000555
    12  O   -0.426626  -0.002670
    13  N   -0.092494   0.271924
    14  C    0.181597  -0.193069
    15  N   -0.294315   0.006575
    16  N   -0.217916  -0.028133
    17  C    0.529739  -0.180818
    18  N    0.092891  -0.206903
    19  H    0.153455  -0.000625
    20  H    0.122517   0.000160
    21  H    0.117789   0.007665
    22  H    0.126067   0.002094
    23  H    0.139106  -0.000105
    24  H    0.157017  -0.002129
    25  H    0.163693   0.008888
    26  H    0.158561   0.001568
    27  H    0.075439   0.000121
    28  H    0.132531   0.000111
    29  H    0.132855  -0.000350
    30  H    0.416012  -0.005228
    31  H    0.172457   0.000613
    32  H    0.170170   0.001067
    33  H    0.161447  -0.007439
    34  H   -0.831266   0.973046
    35  H   -0.019131   0.364684
 Sum of Mulliken charges =  -1.00000   1.00000

 Dipole moment (field-independent basis, Debye):
    X=             10.0217    Y=              2.4377    Z=             -0.9321  Tot=             10.3559
 Quadrupole moment (field-independent basis, Debye-Ang):
   XX=           -171.3861   YY=           -150.0704   ZZ=           -128.3156
   XY=              2.9119   XZ=             13.7449   YZ=              5.0563

 Summary of Natural Population Analysis:

                                       Natural Population
                Natural  -----------------------------------------------
    Atom  No    Charge         Core      Valence    Rydberg      Total
 -----------------------------------------------------------------------
      C    1   -0.28830      0.99967     2.28379    0.00484     3.28830
      C    2   -0.19415      0.99964     2.18797    0.00653     3.19415
      C    3   -0.08536      0.99962     2.07607    0.00967     3.08536
      N    4   -0.28914      0.99971     2.77528    0.01415     3.78914
      C    5   -0.09089      0.99961     2.08148    0.00981     3.09089
      C    6   -0.01938      0.99960     2.00867    0.01111     3.01938
      O    7   -0.39157      0.99989     3.38418    0.00749     4.39157
      C    8   -0.09115      0.99957     2.08070    0.01087     3.09115
      C    9    0.11565      0.99953     1.86965    0.01517     2.88435
      C   10   -0.17288      0.99946     2.16390    0.00952     3.17288
      C   11    0.31101      0.99961     1.66604    0.02334     2.68899
      O   12   -0.34101      0.99988     3.33520    0.00593     4.34101
      N   13   -0.10573      0.99958     2.59554    0.01060     3.60573
      C   14    0.33165      0.99960     1.65046    0.01830     2.66835
      N   15   -0.31184      0.99961     2.79975    0.01248     3.81184
      N   16   -0.28913      0.99970     2.77967    0.00976     3.78913
      C   17    0.21051      0.99968     1.77207    0.01775     2.78949
      N   18   -0.14751      0.99969     2.63465    0.01317     3.64751
      H   19    0.10185      0.00000     0.39702    0.00112     0.39815
      H   20    0.09235      0.00000     0.40684    0.00082     0.40765
      H   21    0.09507      0.00000     0.40397    0.00096     0.40493
      H   22    0.09088      0.00000     0.40790    0.00122     0.40912
      H   23    0.09458      0.00000     0.40428    0.00114     0.40542
      H   24    0.09029      0.00000     0.40778    0.00194     0.40971
      H   25    0.09879      0.00000     0.40020    0.00101     0.40121
      H   26    0.09342      0.00000     0.40555    0.00103     0.40658
      H   27    0.08738      0.00000     0.41133    0.00129     0.41262
      H   28    0.07551      0.00000     0.42300    0.00149     0.42449
      H   29    0.07768      0.00000     0.42120    0.00111     0.42232
      H   30    0.24918      0.00000     0.24596    0.00486     0.25082
      H   31    0.08719      0.00000     0.41177    0.00104     0.41281
      H   32    0.10728      0.00000     0.39149    0.00122     0.39272
      H   33    0.10274      0.00000     0.39640    0.00085     0.39726
      H   34    0.09156      0.00000     0.40601    0.00243     0.40844
      H   35    0.21348      0.00000     0.28376    0.00277     0.28652
 =======================================================================
   * Total *   -0.00000     17.99367    48.76955    0.23678    67.00000

 Normal termination of Gaussian 16 at Fri Dec 11 22:17:30 2020.
