 Gaussian 16, Revision A.03,

 -----------------------------------------------------------
 # opt freq B3LYP/6-31G(d) empiricaldispersion=gd3bj scf=xqc
 -----------------------------------------------------------

 ------------------------------
 CID_66039517_JID_1480_neutraal
 ------------------------------
 Symbolic Z-matrix:
 Charge =  0 Multiplicity = 1

 SCF Done:  E(RB3LYP) =  -448.488414337     A.U. after   13 cycles
 SCF Done:  E(RB3LYP) =  -448.490804723     A.U. after   11 cycles
 SCF Done:  E(RB3LYP) =  -448.491019861     A.U. after   10 cycles
 SCF Done:  E(RB3LYP) =  -448.491150597     A.U. after   10 cycles
 SCF Done:  E(RB3LYP) =  -448.491103734     A.U. after   10 cycles
 SCF Done:  E(RB3LYP) =  -448.491153220     A.U. after   10 cycles
 SCF Done:  E(RB3LYP) =  -448.491212595     A.U. after   10 cycles
 SCF Done:  E(RB3LYP) =  -448.491213747     A.U. after   10 cycles
 SCF Done:  E(RB3LYP) =  -448.491221028     A.U. after    9 cycles
 SCF Done:  E(RB3LYP) =  -448.491221914     A.U. after    8 cycles
 SCF Done:  E(RB3LYP) =  -448.491222207     A.U. after    7 cycles
 SCF Done:  E(RB3LYP) =  -448.491222347     A.U. after    7 cycles
 SCF Done:  E(RB3LYP) =  -448.491222417     A.U. after    7 cycles
 Optimization completed.
    -- Stationary point found.
 Normal termination of Gaussian 16 at Tue Dec  8 20:09:15 2020.

 --------------------------------------------------------------------
 #N Geom=AllCheck Guess=TCheck SCRF=Check GenChk RB3LYP/6-31G(d) Freq
 --------------------------------------------------------------------

 Structure from the checkpoint file:  "JID_1480.chk"
 ------------------------------
 CID_66039517_JID_1480_neutraal
 ------------------------------
 Charge =  0 Multiplicity = 1

 SCF Done:  E(RB3LYP) =  -448.491222417     A.U. after    1 cycles

  Exact polarizability: 135.849   6.147 108.562  -1.807  -7.003  94.791
 Approx polarizability: 165.887  14.233 154.763  -2.253 -11.487 142.230

                      1                      2                      3
                      A                      A                      A
 Frequencies --     27.3340                46.7219                64.1497
 Red. masses --      3.3061                 2.8959                 3.1151
 Frc consts  --      0.0015                 0.0037                 0.0076
 IR Inten    --      0.0187                 0.1272                 0.0838

                      4                      5                      6
                      A                      A                      A
 Frequencies --     89.0422               130.0666               157.2099
 Red. masses --      2.8089                 2.0636                 2.2302
 Frc consts  --      0.0131                 0.0206                 0.0325
 IR Inten    --      0.1445                 0.1455                 0.3219

                      7                      8                      9
                      A                      A                      A
 Frequencies --    180.1662               222.9351               234.3522
 Red. masses --      2.4977                 1.3148                 1.4509
 Frc consts  --      0.0478                 0.0385                 0.0469
 IR Inten    --      0.2932                 0.1868                 0.4282

                     10                     11                     12
                      A                      A                      A
 Frequencies --    251.8076               275.6431               308.8899
 Red. masses --      2.4904                 1.7168                 1.8116
 Frc consts  --      0.0930                 0.0769                 0.1018
 IR Inten    --      0.4625                 1.1710                 3.3615

                     13                     14                     15
                      A                      A                      A
 Frequencies --    315.8834               336.2144               405.6559
 Red. masses --      1.5378                 1.5681                 2.1140
 Frc consts  --      0.0904                 0.1044                 0.2050
 IR Inten    --     11.6867                28.2042                 2.8921

                     16                     17                     18
                      A                      A                      A
 Frequencies --    447.4833               452.9688               461.2762
 Red. masses --      1.9223                 2.0449                 2.6640
 Frc consts  --      0.2268                 0.2472                 0.3340
 IR Inten    --      0.9928                 1.9439                 2.5064

                     19                     20                     21
                      A                      A                      A
 Frequencies --    559.9890               611.9629               715.9687
 Red. masses --      1.9266                 2.7327                 1.6172
 Frc consts  --      0.3560                 0.6030                 0.4884
 IR Inten    --      7.7499                 5.7038                 0.2279

                     22                     23                     24
                      A                      A                      A
 Frequencies --    736.9861               768.6175               807.7615
 Red. masses --      2.2693                 1.5368                 1.1912
 Frc consts  --      0.7262                 0.5349                 0.4580
 IR Inten    --      2.6978                 0.2137                 5.1834

                     25                     26                     27
                      A                      A                      A
 Frequencies --    821.5148               852.4099               873.8826
 Red. masses --      1.3165                 1.6060                 1.8973
 Frc consts  --      0.5235                 0.6875                 0.8537
 IR Inten    --      9.8203                10.8969                 3.8333

                     28                     29                     30
                      A                      A                      A
 Frequencies --    889.1761               916.3616               926.3385
 Red. masses --      1.7262                 1.5687                 1.3828
 Frc consts  --      0.8041                 0.7761                 0.6991
 IR Inten    --    159.7571                60.5811                29.2234

                     31                     32                     33
                      A                      A                      A
 Frequencies --    975.8847              1007.8416              1012.3670
 Red. masses --      1.9485                 1.6619                 1.9879
 Frc consts  --      1.0933                 0.9946                 1.2004
 IR Inten    --     15.9171                 5.4102                 2.2822

                     34                     35                     36
                      A                      A                      A
 Frequencies --   1032.7248              1056.3178              1069.0821
 Red. masses --      1.8722                 1.8577                 1.6075
 Frc consts  --      1.1764                 1.2213                 1.0825
 IR Inten    --      0.2271                 0.4560                 0.4858

                     37                     38                     39
                      A                      A                      A
 Frequencies --   1073.6892              1089.8099              1111.5633
 Red. masses --      2.1393                 1.7803                 1.5787
 Frc consts  --      1.4530                 1.2458                 1.1492
 IR Inten    --      2.2066                 3.4666                 2.6584

                     40                     41                     42
                      A                      A                      A
 Frequencies --   1132.1472              1154.9081              1212.1933
 Red. masses --      2.0428                 1.7800                 1.2237
 Frc consts  --      1.5427                 1.3988                 1.0594
 IR Inten    --     13.6911                 7.6504                 3.3244

                     43                     44                     45
                      A                      A                      A
 Frequencies --   1236.6221              1258.0258              1290.1894
 Red. masses --      1.4153                 1.5065                 1.4113
 Frc consts  --      1.2751                 1.4048                 1.3841
 IR Inten    --      4.6068                 1.9879                 0.9663

                     46                     47                     48
                      A                      A                      A
 Frequencies --   1306.6250              1315.4762              1341.1357
 Red. masses --      1.1824                 1.2399                 1.3473
 Frc consts  --      1.1894                 1.2641                 1.4278
 IR Inten    --      0.4392                 0.2644                 4.6200

                     49                     50                     51
                      A                      A                      A
 Frequencies --   1365.1651              1371.0039              1375.5097
 Red. masses --      1.4150                 1.3911                 1.5832
 Frc consts  --      1.5537                 1.5406                 1.7649
 IR Inten    --      0.7058                12.5261                 1.0785

                     52                     53                     54
                      A                      A                      A
 Frequencies --   1388.6272              1394.8931              1424.3224
 Red. masses --      1.3737                 1.3567                 1.3245
 Frc consts  --      1.5607                 1.5553                 1.5832
 IR Inten    --      3.6290                 2.7817                 4.8255

                     55                     56                     57
                      A                      A                      A
 Frequencies --   1434.5809              1440.3088              1444.6329
 Red. masses --      1.2326                 1.4289                 1.2766
 Frc consts  --      1.4946                 1.7465                 1.5697
 IR Inten    --      4.0264                 0.3217                 4.9220

                     58                     59                     60
                      A                      A                      A
 Frequencies --   1478.7201              1511.5525              1515.4336
 Red. masses --      1.1689                 1.0744                 1.0807
 Frc consts  --      1.5059                 1.4464                 1.4623
 IR Inten    --      0.6038                 4.8798                 1.0514

                     61                     62                     63
                      A                      A                      A
 Frequencies --   1517.6854              1521.7157              1530.2798
 Red. masses --      1.0801                 1.0720                 1.0498
 Frc consts  --      1.4658                 1.4625                 1.4485
 IR Inten    --      6.7279                10.7832                 1.8669

                     64                     65                     66
                      A                      A                      A
 Frequencies --   1531.8013              1537.0033              1540.0813
 Red. masses --      1.0526                 1.0648                 1.0754
 Frc consts  --      1.4552                 1.4820                 1.5028
 IR Inten    --      5.5748                 0.6502                 1.8777

                     67                     68                     69
                      A                      A                      A
 Frequencies --   1543.6499              1694.6752              1730.7162
 Red. masses --      1.0763                 1.0914                 5.0446
 Frc consts  --      1.5111                 1.8468                 8.9028
 IR Inten    --      6.2540                30.5634                15.1483

                     70                     71                     72
                      A                      A                      A
 Frequencies --   3010.0858              3030.2686              3037.7521
 Red. masses --      1.0817                 1.0693                 1.0636
 Frc consts  --      5.7743                 5.7853                 5.7828
 IR Inten    --     16.2978                31.5781                14.0600

                     73                     74                     75
                      A                      A                      A
 Frequencies --   3041.2933              3047.1575              3050.6651
 Red. masses --      1.0624                 1.0433                 1.0593
 Frc consts  --      5.7898                 5.7076                 5.8084
 IR Inten    --     30.1519                14.2428                53.2529

                     76                     77                     78
                      A                      A                      A
 Frequencies --   3052.8887              3058.3461              3077.8786
 Red. masses --      1.0393                 1.0593                 1.0975
 Frc consts  --      5.7072                 5.8377                 6.1256
 IR Inten    --     28.6936                 3.3742                39.8940

                     79                     80                     81
                      A                      A                      A
 Frequencies --   3079.2543              3084.1750              3086.1961
 Red. masses --      1.0985                 1.0947                 1.0971
 Frc consts  --      6.1369                 6.1349                 6.1568
 IR Inten    --     36.9796                26.4513                34.7199

                     82                     83                     84
                      A                      A                      A
 Frequencies --   3094.8230              3111.2289              3119.3406
 Red. masses --      1.1008                 1.1017                 1.1014
 Frc consts  --      6.2121                 6.2833                 6.3144
 IR Inten    --     44.2872                44.1875                52.0754

                     85                     86                     87
                      A                      A                      A
 Frequencies --   3121.5615              3124.0081              3153.7298
 Red. masses --      1.1016                 1.1026                 1.0600
 Frc consts  --      6.3242                 6.3403                 6.2116
 IR Inten    --     40.6633                45.0281                12.8203

                     88                     89                     90
                      A                      A                      A
 Frequencies --   3229.3478              3465.3806              3554.7020
 Red. masses --      1.1157                 1.0489                 1.0923
 Frc consts  --      6.8552                 7.4214                 8.1323
 IR Inten    --     22.5892                 5.6629                 0.9011

 - Thermochemistry -
 -------------------
 Temperature   298.150 Kelvin.  Pressure   1.00000 Atm.
 Atom     1 has atomic number  6 and mass  12.00000

 Molecular mass:   155.16740 amu.
 Principal axes and moments of inertia in atomic units:
                           1         2         3
     Eigenvalues --  1001.172873463.981973886.43675
           X            0.99986  -0.01665  -0.00228
           Y            0.01661   0.99970  -0.01799
           Z            0.00258   0.01795   0.99984
 This molecule is an asymmetric top.
 Rotational symmetry number  1.
 Warning -- assumption of classical behavior for rotation
           may cause significant error
 Rotational temperatures (Kelvin)      0.08651     0.02500     0.02229
 Rotational constants (GHZ):           1.80263     0.52100     0.46437
 Zero-point vibrational energy     786471.8 (Joules/Mol)
                                  187.97127 (Kcal/Mol)
 Warning -- explicit consideration of  20 degrees of freedom as
           vibrations may cause significant error
 Vibrational temperatures:     39.33    67.22    92.30   128.11   187.14
          (Kelvin)            226.19   259.22   320.75   337.18   362.30
                              396.59   444.42   454.49   483.74   583.65
                              643.83   651.72   663.67   805.70   880.48
                             1030.12  1060.36  1105.87  1162.19  1181.98
                             1226.43  1257.32  1279.33  1318.44  1332.79
                             1404.08  1450.06  1456.57  1485.86  1519.81
                             1538.17  1544.80  1567.99  1599.29  1628.91
                             1661.66  1744.08  1779.22  1810.02  1856.29
                             1879.94  1892.68  1929.60  1964.17  1972.57
                             1979.05  1997.92  2006.94  2049.28  2064.04
                             2072.28  2078.50  2127.55  2174.79  2180.37
                             2183.61  2189.41  2201.73  2203.92  2211.40
                             2215.83  2220.97  2438.26  2490.11  4330.84
                             4359.88  4370.65  4375.74  4384.18  4389.23
                             4392.43  4400.28  4428.38  4430.36  4437.44
                             4440.35  4452.76  4476.36  4488.04  4491.23
                             4494.75  4537.51  4646.31  4985.91  5114.42

 Zero-point correction=                           0.299551 (Hartree/Particle)
 Thermal correction to Energy=                    0.313395
 Thermal correction to Enthalpy=                  0.314339
 Thermal correction to Gibbs Free Energy=         0.258621
 Sum of electronic and zero-point Energies=           -448.191671
 Sum of electronic and thermal Energies=              -448.177827
 Sum of electronic and thermal Enthalpies=            -448.176883
 Sum of electronic and thermal Free Energies=         -448.232602

                     E (Thermal)             CV                S
                      KCal/Mol        Cal/Mol-Kelvin    Cal/Mol-Kelvin
 Total                  196.658             51.516            117.270
 Electronic               0.000              0.000              0.000
 Translational            0.889              2.981             41.028
 Rotational               0.889              2.981             30.978
 Vibrational            194.881             45.555             45.264
 Vibration     1          0.593              1.984              6.014
 Vibration     2          0.595              1.979              4.952
 Vibration     3          0.597              1.971              4.325
 Vibration     4          0.602              1.957              3.681
 Vibration     5          0.612              1.923              2.945
 Vibration     6          0.621              1.895              2.583
 Vibration     7          0.629              1.867              2.327
 Vibration     8          0.649              1.806              1.935
 Vibration     9          0.654              1.788              1.845
 Vibration    10          0.664              1.760              1.718
 Vibration    11          0.677              1.718              1.561
 Vibration    12          0.698              1.657              1.368
 Vibration    13          0.703              1.643              1.331
 Vibration    14          0.717              1.603              1.230
 Vibration    15          0.771              1.458              0.942
 Vibration    16          0.807              1.366              0.803
 Vibration    17          0.812              1.354              0.787
 Vibration    18          0.819              1.336              0.762
 Vibration    19          0.916              1.118              0.524
 Vibration    20          0.971              1.007              0.430

 Optimization completed.
    -- Stationary point found.
 Normal termination of Gaussian 16 at Tue Dec  8 20:16:50 2020.

 ----------------------------------------------------------------------
 # B3LYP/6-311++G(d,p) empiricaldispersion=gd3bj scf=xqc pop=npa geom=c
 heck
 ----------------------------------------------------------------------

 --------------------------------------
 CID_66039517_JID_1480_Energie_neutraal
 --------------------------------------
 Structure from the checkpoint file:  "JID_1480.chk"
 Charge =  0 Multiplicity = 1

 SCF Done:  E(RB3LYP) =  -448.625682805     A.U. after   13 cycles
 Normal termination of Gaussian 16 at Tue Dec  8 20:20:16 2020.

 ----------------------------------------------------------------------
 # B3LYP/6-311++G(d,p) empiricaldispersion=gd3bj scf=xqc pop=npa geom=c
 heck
 ----------------------------------------------------------------------

 ------------------------------------
 CID_66039517_JID_1480_Energie_kation
 ------------------------------------
 Structure from the checkpoint file:  "JID_1480.chk"
 Charge =  1 Multiplicity = 2

 SCF Done:  E(UB3LYP) =  -448.316091183     A.U. after   22 cycles
 Normal termination of Gaussian 16 at Tue Dec  8 20:30:20 2020.
 Gaussian 16:  ES64L-G16RevA.03 25-Dec-2016

 ----------------------------------------------------------------------
 # B3LYP/6-311++G(d,p) empiricaldispersion=gd3bj scf=xqc pop=npa geom=c
 heck
 ----------------------------------------------------------------------

 -----------------------------------
 CID_66039517_JID_1480_Energie_anion
 -----------------------------------
 Structure from the checkpoint file:  "JID_1480.chk"
 Charge = -1 Multiplicity = 2

                         Standard orientation:
 ---------------------------------------------------------------------
 Center     Atomic      Atomic             Coordinates (Angstroms)
 Number     Number       Type             X           Y           Z
 ---------------------------------------------------------------------
      1          6           0        3.764119   -0.940132   -0.623670
      2          6           0        3.071072   -0.111229    0.459667
      3          6           0        1.946846    0.800635   -0.054231
      4          6           0        0.857833    0.058096   -0.867875
      5          6           0        0.134297   -1.110928   -0.171845
      6          6           0       -1.019901   -0.748965    0.800202
      7          6           0       -2.382300   -0.651275    0.145588
      8          6           0       -3.351225   -1.518908    0.455250
      9          6           0       -2.622215    0.447509   -0.867181
     10          6           0       -2.494318    1.862562   -0.282152
     11          7           0        1.471911    1.605684    1.082647
     12          1           0        3.090177   -1.681120   -1.067390
     13          1           0        4.622285   -1.481350   -0.210779
     14          1           0        4.133602   -0.300020   -1.434231
     15          1           0        2.671896   -0.781390    1.234783
     16          1           0        3.800534    0.531386    0.965139
     17          1           0        2.408328    1.514037   -0.753117
     18          1           0        0.130327    0.803291   -1.211722
     19          1           0        1.332791   -0.326603   -1.779697
     20          1           0       -0.270534   -1.785188   -0.936650
     21          1           0        0.873909   -1.705817    0.377460
     22          1           0       -1.075012   -1.514993    1.581688
     23          1           0       -0.785942    0.191658    1.311495
     24          1           0       -4.332832   -1.469673   -0.010047
     25          1           0       -3.199439   -2.311033    1.184513
     26          1           0       -1.918291    0.341626   -1.703941
     27          1           0       -3.624579    0.325504   -1.293538
     28          1           0       -1.482270    2.058403    0.088379
     29          1           0       -2.720628    2.619386   -1.040991
     30          1           0       -3.186963    2.000148    0.555318
     31          1           0        0.704682    2.210604    0.792856
     32          1           0        1.099329    0.997172    1.809431
 ---------------------------------------------------------------------

 SCF Done:  E(UB3LYP) =  -448.608919582     A.U. after   33 cycles
 SCF Done:  E(UB3LYP) =  -448.608919582     a.u. after    1 cycles

 The electronic state is 2-A.
 Alpha  occ. eigenvalues --  -14.19194 -10.09542 -10.08160 -10.07064 -10.06989
 Alpha  occ. eigenvalues --  -10.06680 -10.06365 -10.06232 -10.06101 -10.05942
 Alpha  occ. eigenvalues --  -10.05754  -0.78899  -0.72467  -0.68125  -0.66020
 Alpha  occ. eigenvalues --   -0.63560  -0.59579  -0.54832  -0.52883  -0.51095
 Alpha  occ. eigenvalues --   -0.45476  -0.42367  -0.39514  -0.37399  -0.37197
 Alpha  occ. eigenvalues --   -0.35567  -0.35444  -0.32921  -0.31934  -0.31503
 Alpha  occ. eigenvalues --   -0.30887  -0.29185  -0.28053  -0.27388  -0.26544
 Alpha  occ. eigenvalues --   -0.25617  -0.25302  -0.24171  -0.23461  -0.22736
 Alpha  occ. eigenvalues --   -0.22244  -0.21129  -0.15289  -0.14079   0.04615
 Alpha virt. eigenvalues --    0.06442   0.06972   0.07580   0.08402   0.08820
 Alpha virt. eigenvalues --    0.09346   0.09544   0.10062   0.10823   0.11046
 Alpha virt. eigenvalues --    0.11379   0.11736   0.12284   0.13519   0.13943

  Beta  occ. eigenvalues --  -14.19177 -10.09533 -10.08161 -10.07041 -10.06971
  Beta  occ. eigenvalues --  -10.06662 -10.06348 -10.06194 -10.06083 -10.05909
  Beta  occ. eigenvalues --  -10.05735  -0.78866  -0.72445  -0.68088  -0.65983
  Beta  occ. eigenvalues --   -0.63521  -0.59536  -0.54769  -0.52800  -0.51031
  Beta  occ. eigenvalues --   -0.45421  -0.42317  -0.39480  -0.37363  -0.37172
  Beta  occ. eigenvalues --   -0.35537  -0.35408  -0.32881  -0.31902  -0.31464
  Beta  occ. eigenvalues --   -0.30854  -0.29149  -0.28020  -0.27329  -0.26503
  Beta  occ. eigenvalues --   -0.25562  -0.25262  -0.24137  -0.23430  -0.22708
  Beta  occ. eigenvalues --   -0.22218  -0.21092  -0.15268  -0.14055
  Beta virt. eigenvalues --    0.06725   0.07336   0.07660   0.07989   0.09042
  Beta virt. eigenvalues --    0.09252   0.09619   0.09915   0.10447   0.11135
  Beta virt. eigenvalues --    0.11499   0.11672   0.12100   0.12650   0.13850

 Mulliken charges and spin densities:
               1          2
     1  C    1.238934  -1.909696
     2  C   -1.400829   1.292405
     3  C    0.900852  -1.218997
     4  C   -0.328899   0.157809
     5  C    0.253301  -0.864035
     6  C    0.004168  -0.232640
     7  C   -0.576519   1.303893
     8  C    1.495891  -2.039577
     9  C   -0.981844   0.516226
    10  C    0.880326  -1.500676
    11  N   -0.254265  -0.018794
    12  H   -0.164335   0.317853
    13  H   -0.300628   0.435184
    14  H   -0.183043   0.320962
    15  H   -0.125224   0.245979
    16  H    0.016772   0.164782
    17  H   -0.220403   0.424533
    18  H    0.169469  -0.025927
    19  H   -0.288465   0.465174
    20  H    0.016068   0.163872
    21  H    0.092283   0.041495
    22  H   -0.426905   0.626970
    23  H    0.257699  -0.158838
    24  H   -0.080268   0.199033
    25  H   -0.010299   0.118956
    26  H   -0.112560   0.270979
    27  H   -0.349244   0.515727
    28  H   -0.089001   0.216755
    29  H   -0.497675   0.637951
    30  H   -0.044300   0.185452
    31  H    0.081677   0.159244
    32  H    0.027266   0.187949
 Sum of Mulliken charges =  -1.00000   1.00000

 Dipole moment (field-independent basis, Debye):
    X=             -0.3444    Y=             -0.8586    Z=              1.7619  Tot=              1.9900
 Quadrupole moment (field-independent basis, Debye-Ang):
   XX=           -150.9828   YY=           -118.5623   ZZ=           -109.1796
   XY=              6.2055   XZ=             -2.1757   YZ=              2.6061

 Summary of Natural Population Analysis:

                                       Natural Population
                Natural  -----------------------------------------------
    Atom  No    Charge         Core      Valence    Rydberg      Total
 -----------------------------------------------------------------------
      C    1   -0.28485      0.99966     2.28074    0.00444     3.28485
      C    2   -0.19428      0.99962     2.18512    0.00954     3.19428
      C    3   -0.00967      0.99959     1.99789    0.01219     3.00967
      C    4   -0.20036      0.99960     2.19107    0.00970     3.20036
      C    5   -0.19492      0.99961     2.18542    0.00989     3.19492
      C    6   -0.20618      0.99957     2.19644    0.01017     3.20618
      C    7    0.00958      0.99951     1.98004    0.01087     2.99042
      C    8   -0.20015      0.99948     2.19297    0.00771     3.20015
      C    9   -0.20662      0.99958     2.19725    0.00978     3.20662
      C   10   -0.28238      0.99966     2.27683    0.00589     3.28238
      N   11   -0.42108      0.99977     2.91167    0.00964     3.92108
      H   12    0.09745      0.00000     0.40117    0.00137     0.40255
      H   13    0.09884      0.00000     0.40004    0.00112     0.40116
      H   14    0.09643      0.00000     0.40209    0.00148     0.40357
      H   15    0.09168      0.00000     0.40702    0.00130     0.40832
      H   16    0.10175      0.00000     0.39705    0.00120     0.39825
      H   17    0.08793      0.00000     0.41040    0.00167     0.41207
      H   18    0.09743      0.00000     0.40062    0.00194     0.40257
      H   19    0.10196      0.00000     0.39659    0.00146     0.39804
      H   20    0.09994      0.00000     0.39875    0.00131     0.40006
      H   21    0.09909      0.00000     0.39944    0.00147     0.40091
      H   22    0.10103      0.00000     0.39766    0.00131     0.39897
      H   23    0.09833      0.00000     0.39965    0.00202     0.40167
      H   24    0.09185      0.00000     0.40694    0.00121     0.40815
      H   25    0.09137      0.00000     0.40742    0.00121     0.40863
      H   26    0.10153      0.00000     0.39676    0.00172     0.39847
      H   27    0.09976      0.00000     0.39877    0.00147     0.40024
      H   28    0.09207      0.00000     0.40630    0.00163     0.40793
      H   29    0.10206      0.00000     0.39648    0.00146     0.39794
      H   30    0.09733      0.00000     0.40154    0.00113     0.40267
      H   31    0.17325      0.00000     0.32450    0.00225     0.32675
      H   32    0.16985      0.00000     0.32781    0.00234     0.33015
 =======================================================================
   * Total *   -0.00000     10.99565    32.87245    0.13189    44.00000

 Normal termination of Gaussian 16 at Tue Dec  8 20:43:32 2020.
