 Gaussian 16, Revision A.03,

 -----------------------------------------------------------
 # opt freq B3LYP/6-31G(d) empiricaldispersion=gd3bj scf=xqc
 -----------------------------------------------------------

 -------------------------------
 CID_152162339_JID_1280_neutraal
 -------------------------------
 Symbolic Z-matrix:
 Charge =  0 Multiplicity = 1

 SCF Done:  E(RB3LYP) =  -537.744950880     A.U. after   15 cycles
 SCF Done:  E(RB3LYP) =  -537.745357817     A.U. after   14 cycles
 SCF Done:  E(RB3LYP) =  -537.746591741     A.U. after   14 cycles
 SCF Done:  E(RB3LYP) =  -537.748005012     A.U. after   13 cycles
 SCF Done:  E(RB3LYP) =  -537.748180516     A.U. after   13 cycles
 SCF Done:  E(RB3LYP) =  -537.748305222     A.U. after   13 cycles
 SCF Done:  E(RB3LYP) =  -537.748316741     A.U. after   11 cycles
 SCF Done:  E(RB3LYP) =  -537.748337417     A.U. after   12 cycles
 SCF Done:  E(RB3LYP) =  -537.748341933     A.U. after   10 cycles
 SCF Done:  E(RB3LYP) =  -537.748342779     A.U. after    8 cycles
 SCF Done:  E(RB3LYP) =  -537.748342684     A.U. after    8 cycles
 Optimization completed.
    -- Stationary point found.

 1\1\GINC-NODE307\FOpt\RB3LYP\6-31G(d)\C8H12O3\VSC10255\08-Dec-2020\0\\
 # opt freq B3LYP/6-31G(d) empiricaldispersion=gd3bj scf=xqc\\CID_15216
 2339_JID_1280_neutraal\\0,1\C,0.9344772257,0.039107404,0.0673227253\C,
 0.4965187538,-1.4278024107,0.0743862555\C,1.1086203596,-2.2591398224,1
 .2109643042\C,0.7740846844,-1.7370813512,2.631769093\C,-0.7359325701,-
 1.6918364507,2.9178992863\C,1.4751625604,-2.6073218079,3.6465480218\O,
 2.5372211193,-2.3531260347,4.179688901\C,0.8665260548,-3.9682268798,4.
 015643259\O,0.7652793594,-4.8903200363,3.2316785162\C,0.4218838517,-4.

 Normal termination of Gaussian 16 at Tue Dec  8 19:35:55 2020.

 --------------------------------------------------------------------
 #N Geom=AllCheck Guess=TCheck SCRF=Check GenChk RB3LYP/6-31G(d) Freq
 --------------------------------------------------------------------

 Structure from the checkpoint file:  "JID_1280.chk"
 -------------------------------
 CID_152162339_JID_1280_neutraal
 -------------------------------
 Charge =  0 Multiplicity = 1

 SCF Done:  E(RB3LYP) =  -537.748342684     A.U. after    1 cycles

  Exact polarizability: 103.369  -0.792  83.919   1.110   3.292  76.119
 Approx polarizability: 120.415  -6.238 144.689  -2.715  13.009 122.512

                      1                      2                      3
                      A                      A                      A
 Frequencies --     31.4256                46.2453                60.1458
 Red. masses --      5.7555                 4.0444                 3.5850
 Frc consts  --      0.0033                 0.0051                 0.0076
 IR Inten    --      0.4313                 0.6507                 0.6478

                      4                      5                      6
                      A                      A                      A
 Frequencies --    117.7641               120.2446               144.3593
 Red. masses --      3.6491                 2.5062                 3.6853
 Frc consts  --      0.0298                 0.0214                 0.0452
 IR Inten    --     15.3903                 2.4122                 1.0051

                      7                      8                      9
                      A                      A                      A
 Frequencies --    149.9367               166.5235               218.3120
 Red. masses --      6.2100                 3.8968                 1.5856
 Frc consts  --      0.0823                 0.0637                 0.0445
 IR Inten    --      5.7576                 2.0730                 1.4133

                     10                     11                     12
                      A                      A                      A
 Frequencies --    236.5371               281.9013               305.7173
 Red. masses --      1.0497                 1.8707                 4.6631
 Frc consts  --      0.0346                 0.0876                 0.2568
 IR Inten    --      0.0317                 1.2382                 4.6457

                     13                     14                     15
                      A                      A                      A
 Frequencies --    340.9391               394.5115               447.1895
 Red. masses --      2.8000                 3.1334                 2.5678
 Frc consts  --      0.1918                 0.2873                 0.3025
 IR Inten    --     14.3292                42.0227                 3.0746

                     16                     17                     18
                      A                      A                      A
 Frequencies --    508.4536               536.5765               624.3526
 Red. masses --      3.8712                 6.9883                 4.0311
 Frc consts  --      0.5897                 1.1855                 0.9258
 IR Inten    --     46.4081                 2.8920                 2.8012

                     19                     20                     21
                      A                      A                      A
 Frequencies --    657.3808               766.8648               793.5210
 Red. masses --      3.0851                 1.3728                 5.3501
 Frc consts  --      0.7855                 0.4757                 1.9849
 IR Inten    --      1.4013                 4.3357                15.5142

                     22                     23                     24
                      A                      A                      A
 Frequencies --    868.6956               881.2443               917.2599
 Red. masses --      1.5861                 2.3073                 1.6054
 Frc consts  --      0.7052                 1.0557                 0.7958
 IR Inten    --      3.1353                 0.4444                 1.9491

                     25                     26                     27
                      A                      A                      A
 Frequencies --    951.2252              1004.5915              1031.6837
 Red. masses --      1.9022                 1.9226                 1.3540
 Frc consts  --      1.0141                 1.1432                 0.8491
 IR Inten    --     38.0973                 3.4022                 1.0884

                     28                     29                     30
                      A                      A                      A
 Frequencies --   1048.0716              1085.1089              1127.5274
 Red. masses --      1.8657                 2.7181                 2.1293
 Frc consts  --      1.2074                 1.8857                 1.5949
 IR Inten    --      8.8157                 1.0190                 1.0176

                     31                     32                     33
                      A                      A                      A
 Frequencies --   1155.6145              1191.0039              1273.3194
 Red. masses --      2.7039                 2.0042                 1.4829
 Frc consts  --      2.1275                 1.6750                 1.4165
 IR Inten    --      8.3469                 2.1641                 6.0779

                     34                     35                     36
                      A                      A                      A
 Frequencies --   1290.0278              1302.0113              1339.0723
 Red. masses --      2.4565                 1.6025                 1.2440
 Frc consts  --      2.4086                 1.6006                 1.3143
 IR Inten    --      9.8682                11.3361                 4.1978

                     37                     38                     39
                      A                      A                      A
 Frequencies --   1367.6703              1371.9937              1400.8626
 Red. masses --      1.3369                 1.2062                 1.3209
 Frc consts  --      1.4734                 1.3377                 1.5273
 IR Inten    --      1.6088                 6.7388                 5.4356

                     40                     41                     42
                      A                      A                      A
 Frequencies --   1403.3627              1441.5979              1445.8315
 Red. masses --      1.3915                 1.2218                 1.2621
 Frc consts  --      1.6146                 1.4960                 1.5545
 IR Inten    --      0.8385                 5.1222                 6.6639

                     43                     44                     45
                      A                      A                      A
 Frequencies --   1515.0965              1522.9383              1529.1033
 Red. masses --      1.0659                 1.0686                 1.0547
 Frc consts  --      1.4417                 1.4603                 1.4529
 IR Inten    --      2.6565                 1.7708                 8.8566

                     46                     47                     48
                      A                      A                      A
 Frequencies --   1534.5257              1537.5743              1542.4835
 Red. masses --      1.0401                 1.0581                 1.0636
 Frc consts  --      1.4430                 1.4738                 1.4910
 IR Inten    --      2.0025                10.3760                10.5144

                     49                     50                     51
                      A                      A                      A
 Frequencies --   1795.6503              1799.8173              1822.4539
 Red. masses --     12.1366                12.4324                10.7935
 Frc consts  --     23.0564                23.7281                21.1214
 IR Inten    --     92.8886                98.5662                90.0071

                     52                     53                     54
                      A                      A                      A
 Frequencies --   2967.9529              3044.8406              3046.6648
 Red. masses --      1.0893                 1.0574                 1.0619
 Frc consts  --      5.6535                 5.7758                 5.8077
 IR Inten    --    100.7789                14.3225                19.1213

                     55                     56                     57
                      A                      A                      A
 Frequencies --   3048.2701              3055.6377              3073.3243
 Red. masses --      1.0420                 1.0390                 1.0850
 Frc consts  --      5.7045                 5.7156                 6.0378
 IR Inten    --     20.9013                10.3751                 3.1902

                     58                     59                     60
                      A                      A                      A
 Frequencies --   3075.6788              3099.9450              3113.6706
 Red. masses --      1.0991                 1.0997                 1.1025
 Frc consts  --      6.1256                 6.2266                 6.2975
 IR Inten    --     18.0117                22.1706                53.0843

                     61                     62                     63
                      A                      A                      A
 Frequencies --   3118.4476              3122.4875              3139.5915
 Red. masses --      1.1016                 1.1017                 1.1011
 Frc consts  --      6.3118                 6.3290                 6.3949
 IR Inten    --     38.7106                22.3535                17.9565

 - Thermochemistry -
 -------------------
 Temperature   298.150 Kelvin.  Pressure   1.00000 Atm.
 Atom     1 has atomic number  6 and mass  12.00000

 Molecular mass:   156.07864 amu.
 Principal axes and moments of inertia in atomic units:
                           1         2         3
     Eigenvalues --   860.955673118.769163193.72034
           X            0.99997   0.00811   0.00082
           Y           -0.00791   0.99035  -0.13835
           Z           -0.00194   0.13834   0.99038
 This molecule is an asymmetric top.
 Rotational symmetry number  1.
 Warning -- assumption of classical behavior for rotation
           may cause significant error
 Rotational temperatures (Kelvin)      0.10060     0.02777     0.02712
 Rotational constants (GHZ):           2.09621     0.57867     0.56509
 Zero-point vibrational energy     498560.7 (Joules/Mol)
                                  119.15886 (Kcal/Mol)
 Warning -- explicit consideration of  17 degrees of freedom as
           vibrations may cause significant error
 Vibrational temperatures:     45.21    66.54    86.54   169.44   173.01
          (Kelvin)            207.70   215.73   239.59   314.10   340.32
                              405.59   439.86   490.54   567.61   643.41
                              731.55   772.01   898.30   945.82  1103.35
                             1141.70  1249.86  1267.91  1319.73  1368.60
                             1445.38  1484.36  1507.94  1561.23  1622.26
                             1662.67  1713.59  1832.02  1856.06  1873.30
                             1926.63  1967.77  1973.99  2015.53  2019.13
                             2074.14  2080.23  2179.89  2191.17  2200.04
                             2207.84  2212.23  2219.29  2583.54  2589.54
                             2622.10  4270.22  4380.85  4383.47  4385.78
                             4396.38  4421.83  4425.22  4460.13  4479.88
                             4486.75  4492.56  4517.17

 Zero-point correction=                           0.189892 (Hartree/Particle)
 Thermal correction to Energy=                    0.202793
 Thermal correction to Enthalpy=                  0.203737
 Thermal correction to Gibbs Free Energy=         0.149429
 Sum of electronic and zero-point Energies=           -537.558451
 Sum of electronic and thermal Energies=              -537.545550
 Sum of electronic and thermal Enthalpies=            -537.544606
 Sum of electronic and thermal Free Energies=         -537.598913

                     E (Thermal)             CV                S
                      KCal/Mol        Cal/Mol-Kelvin    Cal/Mol-Kelvin
 Total                  127.255             44.253            114.300
 Electronic               0.000              0.000              0.000
 Translational            0.889              2.981             41.045
 Rotational               0.889              2.981             30.529
 Vibrational            125.477             38.291             42.727
 Vibration     1          0.594              1.983              5.737
 Vibration     2          0.595              1.979              4.972
 Vibration     3          0.597              1.973              4.452
 Vibration     4          0.608              1.935              3.137
 Vibration     5          0.609              1.932              3.096
 Vibration     6          0.616              1.909              2.745
 Vibration     7          0.618              1.903              2.673
 Vibration     8          0.624              1.884              2.474
 Vibration     9          0.646              1.813              1.973
 Vibration    10          0.655              1.785              1.829
 Vibration    11          0.681              1.707              1.522
 Vibration    12          0.696              1.663              1.385
 Vibration    13          0.720              1.594              1.208
 Vibration    14          0.761              1.482              0.983
 Vibration    15          0.806              1.367              0.804
 Vibration    16          0.864              1.231              0.637
 Vibration    17          0.892              1.169              0.573

                           ! Non-Optimized Parameters !

 1\1\GINC-NODE307\Freq\RB3LYP\6-31G(d)\C8H12O3\VSC10255\08-Dec-2020\0\\
 #N Geom=AllCheck Guess=TCheck SCRF=Check GenChk RB3LYP/6-31G(d) Freq\\
 CID_152162339_JID_1280_neutraal\\0,1\C,0.9344772257,0.039107404,0.0673
 227253\C,0.4965187538,-1.4278024107,0.0743862555\C,1.1086203596,-2.259
 1398224,1.2109643042\C,0.7740846844,-1.7370813512,2.631769093\C,-0.735
 9325701,-1.6918364507,2.9178992863\C,1.4751625604,-2.6073218079,3.6465
 480218\O,2.5372211193,-2.3531260347,4.179688901\C,0.8665260548,-3.9682
 268798,4.015643259\O,0.7652793594,-4.8903200363,3.2316785162\C,0.42188

 Normal termination of Gaussian 16 at Tue Dec  8 19:40:14 2020.

 ----------------------------------------------------------------------
 # B3LYP/6-311++G(d,p) empiricaldispersion=gd3bj scf=xqc pop=npa geom=c
 heck
 ----------------------------------------------------------------------

 ---------------------------------------
 CID_152162339_JID_1280_Energie_neutraal
 ---------------------------------------
 Structure from the checkpoint file:  "JID_1280.chk"
 Charge =  0 Multiplicity = 1

 SCF Done:  E(RB3LYP) =  -537.909516505     A.U. after   14 cycles
 Normal termination of Gaussian 16 at Tue Dec  8 19:41:40 2020.

 ----------------------------------------------------------------------
 # B3LYP/6-311++G(d,p) empiricaldispersion=gd3bj scf=xqc pop=npa geom=c
 heck
 ----------------------------------------------------------------------

 -------------------------------------
 CID_152162339_JID_1280_Energie_kation
 -------------------------------------
 Structure from the checkpoint file:  "JID_1280.chk"
 Charge =  1 Multiplicity = 2

 SCF Done:  E(UB3LYP) =  -537.572198598     A.U. after   23 cycles
 Normal termination of Gaussian 16 at Tue Dec  8 19:44:46 2020.
 Gaussian 16:  ES64L-G16RevA.03 25-Dec-2016

 ------------------------------------
 CID_152162339_JID_1280_Energie_anion
 ------------------------------------
 Structure from the checkpoint file:  "JID_1280.chk"
 Charge = -1 Multiplicity = 2

                         Standard orientation:
 ---------------------------------------------------------------------
 Center     Atomic      Atomic             Coordinates (Angstroms)
 Number     Number       Type             X           Y           Z
 ---------------------------------------------------------------------
      1          6           0        3.790346    0.556374    0.255980
      2          6           0        2.997278   -0.562297   -0.424681
      3          6           0        1.598595   -0.788430    0.167053
      4          6           0        0.672278    0.452849    0.101401
      5          6           0        0.439404    0.956731   -1.332455
      6          6           0       -0.643273    0.112465    0.758719
      7          8           0       -0.947925    0.376674    1.905106
      8          6           0       -1.687642   -0.694316   -0.026857
      9          8           0       -1.517688   -1.844018   -0.379571
     10          6           0       -3.015823    0.007221   -0.317199
     11          8           0       -3.108529    1.212353   -0.331351
     12          1           0        3.323693    1.536883    0.107755
     13          1           0        4.808232    0.614907   -0.144105
     14          1           0        3.864152    0.385424    1.336788
     15          1           0        2.918678   -0.359890   -1.500290
     16          1           0        3.551827   -1.505163   -0.336695
     17          1           0        1.110415   -1.621502   -0.351624
     18          1           0        1.695750   -1.084843    1.219544
     19          1           0        1.102177    1.253142    0.714058
     20          1           0        0.109414    0.143242   -1.989209
     21          1           0       -0.318667    1.746823   -1.356639
     22          1           0        1.363438    1.364988   -1.750489
     23          1           0       -3.842947   -0.677662   -0.594333
 ---------------------------------------------------------------------

 SCF Done:  E(UB3LYP) =  -537.956102386     A.U. after   22 cycles

 The electronic state is 2-A.
 Alpha  occ. eigenvalues --  -18.96379 -18.92161 -18.91880 -10.10010 -10.07049
 Alpha  occ. eigenvalues --  -10.07004 -10.05471 -10.05426 -10.05092 -10.04688
 Alpha  occ. eigenvalues --  -10.04236  -0.89873  -0.86524  -0.85373  -0.70434
 Alpha  occ. eigenvalues --   -0.65208  -0.57751  -0.53309  -0.50521  -0.46366
 Alpha  occ. eigenvalues --   -0.43315  -0.37249  -0.36097  -0.33030  -0.31854
 Alpha  occ. eigenvalues --   -0.31237  -0.30668  -0.29046  -0.28219  -0.27052
 Alpha  occ. eigenvalues --   -0.25883  -0.25121  -0.24924  -0.24063  -0.23059
 Alpha  occ. eigenvalues --   -0.22498  -0.21706  -0.20221  -0.19126  -0.13994
 Alpha  occ. eigenvalues --   -0.10172  -0.04709   0.03266
 Alpha virt. eigenvalues --    0.06950   0.09240   0.09543   0.10569   0.11623
 Alpha virt. eigenvalues --    0.12437   0.12709   0.13292   0.13868   0.14038
 Alpha virt. eigenvalues --    0.14464   0.16516   0.17115   0.17379   0.18589

  Beta  occ. eigenvalues --  -18.96233 -18.91497 -18.91094 -10.09972 -10.07048
  Beta  occ. eigenvalues --  -10.07002 -10.05474 -10.05421 -10.04875 -10.04352
  Beta  occ. eigenvalues --  -10.04227  -0.89532  -0.85325  -0.84070  -0.70410
  Beta  occ. eigenvalues --   -0.65167  -0.57732  -0.53138  -0.49432  -0.46015
  Beta  occ. eigenvalues --   -0.42773  -0.37141  -0.35978  -0.32836  -0.31765
  Beta  occ. eigenvalues --   -0.31020  -0.30459  -0.28722  -0.27735  -0.26535
  Beta  occ. eigenvalues --   -0.25866  -0.24869  -0.24270  -0.23729  -0.22395
  Beta  occ. eigenvalues --   -0.21651  -0.20229  -0.19895  -0.15597  -0.13255
  Beta  occ. eigenvalues --   -0.09537  -0.04071
  Beta virt. eigenvalues --    0.06918   0.09214   0.09523   0.10544   0.11529
  Beta virt. eigenvalues --    0.12429   0.12640   0.13192   0.13371   0.13857
  Beta virt. eigenvalues --    0.14089   0.14478   0.16536   0.17129   0.17394

 Mulliken charges and spin densities:
               1          2
     1  C   -0.589415  -0.007552
     2  C   -0.134145  -0.002286
     3  C   -0.346314   0.013158
     4  C    0.644253  -0.047075
     5  C   -0.847990   0.025828
     6  C   -0.418522   0.028905
     7  O   -0.237133   0.038046
     8  C    0.178583   0.294095
     9  O   -0.362704   0.253571
    10  C   -0.219694   0.205148
    11  O   -0.342239   0.206407
    12  H    0.142876   0.002125
    13  H    0.115323   0.002581
    14  H    0.132171  -0.000287
    15  H    0.129970  -0.000175
    16  H    0.135873   0.004307
    17  H    0.187653  -0.003317
    18  H    0.145899   0.000738
    19  H    0.184799  -0.003031
    20  H    0.192397  -0.007702
    21  H    0.174047  -0.006879
    22  H    0.096742   0.018715
    23  H    0.037567  -0.015321
 Sum of Mulliken charges =  -1.00000   1.00000

 Dipole moment (field-independent basis, Debye):
    X=              9.4200    Y=              0.5406    Z=             -1.5047  Tot=              9.5547
 Quadrupole moment (field-independent basis, Debye-Ang):
   XX=           -100.7946   YY=            -85.0100   ZZ=            -79.6904
   XY=              2.6165   XZ=              0.1364   YZ=             -2.7846

 Summary of Natural Population Analysis:

                                       Natural Population
                Natural  -----------------------------------------------
    Atom  No    Charge         Core      Valence    Rydberg      Total
 -----------------------------------------------------------------------
      C    1   -0.28815      0.99967     2.28412    0.00436     3.28815
      C    2   -0.18983      0.99964     2.18361    0.00657     3.18983
      C    3   -0.18696      0.99961     2.17977    0.00757     3.18696
      C    4   -0.15793      0.99956     2.14393    0.01444     3.15793
      C    5   -0.28923      0.99965     2.28473    0.00484     3.28923
      C    6    0.27747      0.99960     1.69825    0.02468     2.72253
      O    7   -0.27299      0.99987     3.26514    0.00798     4.27299
      C    8    0.23280      0.99964     1.74357    0.02399     2.76720
      O    9   -0.21389      0.99988     3.20618    0.00783     4.21389
      C   10    0.20061      0.99973     1.77739    0.02227     2.79939
      O   11   -0.22280      0.99988     3.21449    0.00843     4.22280
      H   12    0.09752      0.00000     0.40162    0.00087     0.40248
      H   13    0.09231      0.00000     0.40682    0.00087     0.40769
      H   14    0.09501      0.00000     0.40401    0.00098     0.40499
      H   15    0.09269      0.00000     0.40618    0.00113     0.40731
      H   16    0.09098      0.00000     0.40783    0.00118     0.40902
      H   17    0.11324      0.00000     0.38545    0.00132     0.38676
      H   18    0.09592      0.00000     0.40310    0.00097     0.40408
      H   19    0.09635      0.00000     0.40132    0.00233     0.40365
      H   20    0.10488      0.00000     0.39425    0.00088     0.39512
      H   21    0.11061      0.00000     0.38846    0.00093     0.38939
      H   22    0.08996      0.00000     0.40915    0.00089     0.41004
      H   23    0.03141      0.00000     0.46435    0.00425     0.46859
 =======================================================================
   * Total *    0.00000     10.99674    30.85371    0.14955    42.00000

 Normal termination of Gaussian 16 at Tue Dec  8 19:47:50 2020.
