 Gaussian 16, Revision A.03,

 -----------------------------------------------------------
 # opt freq B3LYP/6-31G(d) empiricaldispersion=gd3bj scf=xqc
 -----------------------------------------------------------

 -------------------------------
 CID_150324427_JID_3084_neutraal
 -------------------------------
 Symbolic Z-matrix:
 Charge =  0 Multiplicity = 1

 SCF Done:  E(RB3LYP) =  -550.700490391     A.U. after   15 cycles
 SCF Done:  E(RB3LYP) =  -550.702817190     A.U. after   15 cycles
 SCF Done:  E(RB3LYP) =  -550.704436861     A.U. after   13 cycles
 SCF Done:  E(RB3LYP) =  -550.704786239     A.U. after   13 cycles
 SCF Done:  E(RB3LYP) =  -550.704852500     A.U. after   15 cycles
 SCF Done:  E(RB3LYP) =  -550.704957142     A.U. after   12 cycles
 SCF Done:  E(RB3LYP) =  -550.704992610     A.U. after   10 cycles
 SCF Done:  E(RB3LYP) =  -550.705004862     A.U. after   11 cycles
 SCF Done:  E(RB3LYP) =  -550.705005548     A.U. after    8 cycles
 SCF Done:  E(RB3LYP) =  -550.705005943     A.U. after    9 cycles
 SCF Done:  E(RB3LYP) =  -550.705005988     A.U. after    8 cycles
 SCF Done:  E(RB3LYP) =  -550.705006001     A.U. after    7 cycles
 Optimization completed.
    -- Stationary point found.

 1\1\GINC-NODE225\FOpt\RB3LYP\6-31G(d)\C10H9N3\VSC10255\09-Dec-2020\0\\
 # opt freq B3LYP/6-31G(d) empiricaldispersion=gd3bj scf=xqc\\CID_15032
 4427_JID_3084_neutraal\\0,1\C,-1.6288529153,1.1486955485,0.1358780403\
 C,-2.4237705804,-0.1357901752,0.1519885231\C,-1.6041007718,-1.20530436
 56,0.1276093594\C,-0.209546945,-0.75298811,0.0898256966\C,-0.200310816
 ,0.6567648722,0.098727725\C,0.9966662502,1.3597231988,0.0775640071\C,2
 .1976209007,0.6422323371,0.0507315777\C,2.1892313153,-0.7553033154,0.0
 431480086\C,0.9900295806,-1.4765032041,0.0534496011\C,0.9910801439,-2.

 Normal termination of Gaussian 16 at Wed Dec  9 22:22:27 2020.

 --------------------------------------------------------------------
 #N Geom=AllCheck Guess=TCheck SCRF=Check GenChk RB3LYP/6-31G(d) Freq
 --------------------------------------------------------------------

 Structure from the checkpoint file:  "JID_3084.chk"
 -------------------------------
 CID_150324427_JID_3084_neutraal
 -------------------------------
 Charge =  0 Multiplicity = 1

 SCF Done:  E(RB3LYP) =  -550.705006001     A.U. after    1 cycles

  Exact polarizability: 128.565  10.789 132.671 -13.085   5.432  87.447
 Approx polarizability: 199.298  21.945 220.780 -28.690  22.147 178.964

                      1                      2                      3
                      A                      A                      A
 Frequencies --     23.1552                45.6562               124.9747
 Red. masses --      7.7754                 6.5634                 4.9788
 Frc consts  --      0.0025                 0.0081                 0.0458
 IR Inten    --      0.3374                 0.3498                 3.9647

                      4                      5                      6
                      A                      A                      A
 Frequencies --    157.5561               205.7731               227.8835
 Red. masses --      5.0143                 4.3338                 3.1798
 Frc consts  --      0.0733                 0.1081                 0.0973
 IR Inten    --      1.9111                 0.9739                 1.9491

                      7                      8                      9
                      A                      A                      A
 Frequencies --    261.2777               341.2121               403.6730
 Red. masses --      2.3610                 5.9352                 2.0867
 Frc consts  --      0.0950                 0.4071                 0.2003
 IR Inten    --      3.0661                 1.2798                 8.3635

                     10                     11                     12
                      A                      A                      A
 Frequencies --    444.7127               497.8018               556.8959
 Red. masses --      3.2808                 4.2913                 3.8161
 Frc consts  --      0.3823                 0.6265                 0.6973
 IR Inten    --      0.9856                 3.1348                 2.7550

                     13                     14                     15
                      A                      A                      A
 Frequencies --    572.4995               577.9464               590.5571
 Red. masses --      6.5923                 7.3148                 5.3499
 Frc consts  --      1.2730                 1.4396                 1.0993
 IR Inten    --      3.9219                13.8651                 0.5721

                     16                     17                     18
                      A                      A                      A
 Frequencies --    653.8690               703.7263               720.5059
 Red. masses --      6.5774                 2.2690                 2.0905
 Frc consts  --      1.6569                 0.6620                 0.6394
 IR Inten    --      3.4811                27.1151                 2.9456

                     19                     20                     21
                      A                      A                      A
 Frequencies --    785.1449               789.7963               829.9654
 Red. masses --      1.2991                 3.3749                 4.7677
 Frc consts  --      0.4718                 1.2403                 1.9350
 IR Inten    --     46.2395                 1.8478                 3.5534

                     22                     23                     24
                      A                      A                      A
 Frequencies --    877.2979               893.8746               913.8244
 Red. masses --      4.1472                 2.7287                 1.9292
 Frc consts  --      1.8806                 1.2846                 0.9492
 IR Inten    --      3.3876                15.6746                 8.5497

                     25                     26                     27
                      A                      A                      A
 Frequencies --    957.7728               959.5217               966.0963
 Red. masses --      1.4962                 1.4747                 2.0868
 Frc consts  --      0.8087                 0.8000                 1.1476
 IR Inten    --      4.8492                 0.7943                 9.4360

                     28                     29                     30
                      A                      A                      A
 Frequencies --    970.0624               977.1420              1012.1430
 Red. masses --      1.5208                 2.5321                 2.2794
 Frc consts  --      0.8432                 1.4245                 1.3758
 IR Inten    --      0.3274                 6.1761                 3.9667

                     31                     32                     33
                      A                      A                      A
 Frequencies --   1099.7680              1138.3665              1155.3478
 Red. masses --      1.9948                 1.2063                 1.1335
 Frc consts  --      1.4215                 0.9210                 0.8914
 IR Inten    --      2.0148                 2.1339                 1.3534

                     34                     35                     36
                      A                      A                      A
 Frequencies --   1194.7492              1210.5849              1242.2718
 Red. masses --      1.4164                 1.8643                 1.4484
 Frc consts  --      1.1912                 1.6097                 1.3169
 IR Inten    --      2.4864                 0.5426                 4.8258

                     37                     38                     39
                      A                      A                      A
 Frequencies --   1243.6912              1280.5053              1305.8345
 Red. masses --      1.6748                 2.2592                 3.1855
 Frc consts  --      1.5263                 2.1825                 3.2004
 IR Inten    --      6.1001                23.3111                55.3100

                     40                     41                     42
                      A                      A                      A
 Frequencies --   1319.1607              1366.9283              1397.5783
 Red. masses --      2.2021                 2.4953                 1.5924
 Frc consts  --      2.2578                 2.7471                 1.8326
 IR Inten    --     65.0423                 7.7401                13.6732

                     43                     44                     45
                      A                      A                      A
 Frequencies --   1409.7327              1464.6500              1484.8655
 Red. masses --      2.7475                 1.2275                 2.4382
 Frc consts  --      3.2170                 1.5514                 3.1673
 IR Inten    --      1.2957                10.9778                 9.4909

                     46                     47                     48
                      A                      A                      A
 Frequencies --   1522.9198              1526.9159              1620.5077
 Red. masses --      1.7054                 1.4621                 5.7451
 Frc consts  --      2.3304                 2.0084                 8.8890
 IR Inten    --      5.0865                 2.4610                 0.4484

                     49                     50                     51
                      A                      A                      A
 Frequencies --   1659.9325              1662.3148              2261.7578
 Red. masses --      6.9072                 6.3340                13.6841
 Frc consts  --     11.2133                10.3123                41.2437
 IR Inten    --      4.5280                 0.0564               426.5917

                     52                     53                     54
                      A                      A                      A
 Frequencies --   3035.4921              3050.2703              3061.2541
 Red. masses --      1.0604                 1.0676                 1.1006
 Frc consts  --      5.7568                 5.8526                 6.0770
 IR Inten    --     14.3718                43.4297                10.6118

                     55                     56                     57
                      A                      A                      A
 Frequencies --   3119.1893              3178.8520              3187.1091
 Red. masses --      1.0976                 1.0869                 1.0902
 Frc consts  --      6.2918                 6.4710                 6.5246
 IR Inten    --     11.1567                 5.2548                17.9852

                     58                     59                     60
                      A                      A                      A
 Frequencies --   3207.5501              3225.6745              3246.9555
 Red. masses --      1.0957                 1.0871                 1.1031
 Frc consts  --      6.6420                 6.6643                 6.8519
 IR Inten    --     26.3453                 2.1373                12.6595

 - Thermochemistry -
 -------------------
 Temperature   298.150 Kelvin.  Pressure   1.00000 Atm.
 Atom     1 has atomic number  6 and mass  12.00000

 Molecular mass:   171.07965 amu.
 Principal axes and moments of inertia in atomic units:
                           1         2         3
     Eigenvalues --  1498.702152582.000733312.92517
           X            0.99919   0.02813  -0.02888
           Y           -0.02800   0.99960   0.00490
           Z            0.02901  -0.00409   0.99957
 This molecule is an asymmetric top.
 Rotational symmetry number  1.
 Warning -- assumption of classical behavior for rotation
           may cause significant error
 Rotational temperatures (Kelvin)      0.05779     0.03355     0.02614
 Rotational constants (GHZ):           1.20420     0.69897     0.54476
 Zero-point vibrational energy     454120.7 (Joules/Mol)
                                  108.53745 (Kcal/Mol)
 Warning -- explicit consideration of  15 degrees of freedom as
           vibrations may cause significant error
 Vibrational temperatures:     33.32    65.69   179.81   226.69   296.06
          (Kelvin)            327.87   375.92   490.93   580.80   639.84
                              716.23   801.25   823.70   831.54   849.68
                              940.77  1012.51  1036.65  1129.65  1136.34
                             1194.14  1262.24  1286.09  1314.79  1378.02
                             1380.54  1390.00  1395.70  1405.89  1456.25
                             1582.32  1637.86  1662.29  1718.98  1741.76
                             1787.35  1789.39  1842.36  1878.80  1897.98
                             1966.70  2010.80  2028.29  2107.30  2136.39
                             2191.14  2196.89  2331.55  2388.27  2391.70
                             3254.17  4367.40  4388.66  4404.46  4487.82
                             4573.66  4585.54  4614.95  4641.03  4671.64

 Zero-point correction=                           0.172965 (Hartree/Particle)
 Thermal correction to Energy=                    0.183469
 Thermal correction to Enthalpy=                  0.184413
 Thermal correction to Gibbs Free Energy=         0.135200
 Sum of electronic and zero-point Energies=           -550.532041
 Sum of electronic and thermal Energies=              -550.521537
 Sum of electronic and thermal Enthalpies=            -550.520593
 Sum of electronic and thermal Free Energies=         -550.569806

                     E (Thermal)             CV                S
                      KCal/Mol        Cal/Mol-Kelvin    Cal/Mol-Kelvin
 Total                  115.128             40.332            103.578
 Electronic               0.000              0.000              0.000
 Translational            0.889              2.981             41.319
 Rotational               0.889              2.981             30.928
 Vibrational            113.351             34.370             31.331
 Vibration     1          0.593              1.985              6.343
 Vibration     2          0.595              1.979              4.997
 Vibration     3          0.610              1.928              3.022
 Vibration     4          0.621              1.894              2.579
 Vibration     5          0.640              1.832              2.081
 Vibration     6          0.651              1.798              1.896
 Vibration     7          0.669              1.744              1.653
 Vibration     8          0.721              1.593              1.206
 Vibration     9          0.769              1.462              0.949
 Vibration    10          0.804              1.373              0.812
 Vibration    11          0.853              1.255              0.664
 Vibration    12          0.912              1.125              0.530
 Vibration    13          0.929              1.091              0.499
 Vibration    14          0.934              1.079              0.489
 Vibration    15          0.948              1.052              0.466

 Optimization completed.
    -- Stationary point found.

 1\1\GINC-NODE225\Freq\RB3LYP\6-31G(d)\C10H9N3\VSC10255\09-Dec-2020\0\\
 #N Geom=AllCheck Guess=TCheck SCRF=Check GenChk RB3LYP/6-31G(d) Freq\\
 CID_150324427_JID_3084_neutraal\\0,1\C,-1.6288529153,1.1486955485,0.13
 58780403\C,-2.4237705804,-0.1357901752,0.1519885231\C,-1.6041007718,-1
 .2053043656,0.1276093594\C,-0.209546945,-0.75298811,0.0898256966\C,-0.
 200310816,0.6567648722,0.098727725\C,0.9966662502,1.3597231988,0.07756
 40071\C,2.1976209007,0.6422323371,0.0507315777\C,2.1892313153,-0.75530
 33154,0.0431480086\C,0.9900295806,-1.4765032041,0.0534496011\C,0.99108

 Normal termination of Gaussian 16 at Wed Dec  9 22:27:33 2020.

 ----------------------------------------------------------------------
 # B3LYP/6-311++G(d,p) empiricaldispersion=gd3bj scf=xqc pop=npa geom=c
 heck
 ----------------------------------------------------------------------

 ---------------------------------------
 CID_150324427_JID_3084_Energie_neutraal
 ---------------------------------------
 Structure from the checkpoint file:  "JID_3084.chk"
 Charge =  0 Multiplicity = 1

 SCF Done:  E(RB3LYP) =  -550.846853053     A.U. after   15 cycles
 Normal termination of Gaussian 16 at Wed Dec  9 22:29:32 2020.

 ----------------------------------------------------------------------
 # B3LYP/6-311++G(d,p) empiricaldispersion=gd3bj scf=xqc pop=npa geom=c
 heck
 ----------------------------------------------------------------------

 -------------------------------------
 CID_150324427_JID_3084_Energie_kation
 -------------------------------------
 Structure from the checkpoint file:  "JID_3084.chk"
 Charge =  1 Multiplicity = 2

 SCF Done:  E(UB3LYP) =  -550.549882660     A.U. after   29 cycles
 Normal termination of Gaussian 16 at Wed Dec  9 22:35:00 2020.
 Gaussian 16:  ES64L-G16RevA.03 25-Dec-2016

 ------------------------------------
 CID_150324427_JID_3084_Energie_anion
 ------------------------------------
 Structure from the checkpoint file:  "JID_3084.chk"
 Charge = -1 Multiplicity = 2

                         Standard orientation:
 ---------------------------------------------------------------------
 Center     Atomic      Atomic             Coordinates (Angstroms)
 Number     Number       Type             X           Y           Z
 ---------------------------------------------------------------------
      1          6           0       -2.689550   -0.998619    0.439553
      2          6           0       -1.860844   -2.161267   -0.053957
      3          6           0       -0.663421   -1.737432   -0.504350
      4          6           0       -0.574866   -0.280326   -0.363640
      5          6           0       -1.778321    0.184108    0.205187
      6          6           0       -1.968244    1.535256    0.461473
      7          6           0       -0.939672    2.430426    0.147601
      8          6           0        0.254087    1.970563   -0.415160
      9          6           0        0.454829    0.612911   -0.688659
     10          6           0        1.747825    0.125669   -1.292926
     11          7           0        2.492590   -0.839276   -0.433271
     12          7           0        2.639571   -0.484211    0.741250
     13          7           0        2.828415   -0.267412    1.846230
     14          1           0       -2.959297   -1.109146    1.499704
     15          1           0       -3.637869   -0.906735   -0.109377
     16          1           0       -2.205851   -3.188628   -0.030004
     17          1           0        0.132576   -2.360338   -0.895217
     18          1           0       -2.894648    1.895667    0.901311
     19          1           0       -1.065467    3.490737    0.345926
     20          1           0        1.044194    2.679925   -0.649415
     21          1           0        1.572625   -0.428431   -2.218542
     22          1           0        2.398761    0.975503   -1.534574
 ---------------------------------------------------------------------

 SCF Done:  E(UB3LYP) =  -550.835744884     A.U. after   33 cycles
 SCF Done:  E(UB3LYP) =  -550.836194180     a.u. after    6 cycles

 The electronic state is 2-A.
 Alpha  occ. eigenvalues --  -14.32283 -14.22708 -14.21516 -10.08574 -10.05338
 Alpha  occ. eigenvalues --  -10.04515 -10.04393 -10.04386 -10.04299 -10.03603
 Alpha  occ. eigenvalues --  -10.03549 -10.03314 -10.03131  -0.99142  -0.83434
 Alpha  occ. eigenvalues --   -0.74731  -0.68979  -0.65209  -0.59197  -0.58229
 Alpha  occ. eigenvalues --   -0.55778  -0.47404  -0.45310  -0.42639  -0.40238
 Alpha  occ. eigenvalues --   -0.38127  -0.36783  -0.35863  -0.34155  -0.31808
 Alpha  occ. eigenvalues --   -0.31639  -0.31087  -0.29914  -0.28566  -0.27530
 Alpha  occ. eigenvalues --   -0.25454  -0.23280  -0.23035  -0.21961  -0.20928
 Alpha  occ. eigenvalues --   -0.16905  -0.16674  -0.12309  -0.11405  -0.09325
 Alpha  occ. eigenvalues --    0.05812
 Alpha virt. eigenvalues --    0.08056   0.08100   0.08610   0.09494   0.10209
 Alpha virt. eigenvalues --    0.10485   0.10972   0.12132   0.12666   0.12835
 Alpha virt. eigenvalues --    0.13331   0.14265   0.15528   0.15829   0.16374

  Beta  occ. eigenvalues --  -14.32038 -14.22407 -14.21562 -10.08483 -10.05353
  Beta  occ. eigenvalues --  -10.04461 -10.04408 -10.04356 -10.04274 -10.03435
  Beta  occ. eigenvalues --  -10.03413 -10.03301 -10.02864  -0.98682  -0.83212
  Beta  occ. eigenvalues --   -0.74516  -0.68754  -0.64961  -0.58996  -0.57911
  Beta  occ. eigenvalues --   -0.55631  -0.47111  -0.45144  -0.42354  -0.40062
  Beta  occ. eigenvalues --   -0.37438  -0.36518  -0.35571  -0.33998  -0.31462
  Beta  occ. eigenvalues --   -0.31323  -0.30753  -0.29597  -0.28370  -0.27233
  Beta  occ. eigenvalues --   -0.25333  -0.23113  -0.22596  -0.21825  -0.20815
  Beta  occ. eigenvalues --   -0.16196  -0.16078  -0.11996  -0.11235  -0.08247
  Beta virt. eigenvalues --    0.08013   0.08686   0.08921   0.10058   0.10202
  Beta virt. eigenvalues --    0.10453   0.10664   0.11832   0.12289   0.12821
  Beta virt. eigenvalues --    0.12972   0.13505   0.14479   0.15726   0.16011

 Mulliken charges and spin densities:
               1          2
     1  C   -0.101340  -0.790773
     2  C   -0.126785   0.271758
     3  C   -0.616882   0.034158
     4  C    0.551018   0.085040
     5  C    0.057133   0.388261
     6  C   -0.139153  -0.149474
     7  C   -0.079233  -0.147226
     8  C   -0.498077   0.059467
     9  C   -0.198841   0.944105
    10  C    0.764095  -1.533300
    11  N   -0.383126   0.177885
    12  N    0.408144   0.021549
    13  N   -0.293880   0.112422
    14  H    0.060120   0.082819
    15  H    0.013118   0.124601
    16  H   -0.163883   0.290824
    17  H    0.018524   0.107673
    18  H    0.006147   0.106151
    19  H    0.050951   0.056483
    20  H   -0.079199   0.184537
    21  H    0.066281   0.085736
    22  H   -0.315132   0.487303
 Sum of Mulliken charges =  -1.00000   1.00000

 Dipole moment (field-independent basis, Debye):
    X=             -1.9884    Y=              0.9821    Z=             -0.4266  Tot=              2.2583
 Quadrupole moment (field-independent basis, Debye-Ang):
   XX=           -113.2877   YY=           -100.4757   ZZ=            -98.8504
   XY=             -2.5661   XZ=             -4.4256   YZ=              0.9039

 Summary of Natural Population Analysis:

                                       Natural Population
                Natural  -----------------------------------------------
    Atom  No    Charge         Core      Valence    Rydberg      Total
 -----------------------------------------------------------------------
      C    1   -0.21856      0.99960     2.21171    0.00724     3.21856
      C    2   -0.03424      0.99956     2.02479    0.00988     3.03424
      C    3   -0.11457      0.99951     2.10620    0.00886     3.11457
      C    4   -0.00446      0.99944     1.99572    0.00931     3.00446
      C    5    0.00087      0.99949     1.99128    0.00837     2.99913
      C    6   -0.10400      0.99951     2.09594    0.00855     3.10400
      C    7   -0.08125      0.99958     2.07278    0.00889     3.08125
      C    8   -0.10936      0.99953     2.09958    0.01025     3.10936
      C    9   -0.02174      0.99946     2.01237    0.00991     3.02174
      C   10   -0.09020      0.99956     2.07760    0.01304     3.09020
      N   11   -0.20895      0.99972     2.69476    0.01447     3.70895
      N   12    0.13688      0.99970     2.34796    0.01546     3.36312
      N   13   -0.02650      0.99982     2.51295    0.01373     3.52650
      H   14    0.10955      0.00000     0.38848    0.00197     0.39045
      H   15    0.10798      0.00000     0.39022    0.00179     0.39202
      H   16    0.08961      0.00000     0.40952    0.00087     0.41039
      H   17    0.10281      0.00000     0.39603    0.00115     0.39719
      H   18    0.09217      0.00000     0.40654    0.00129     0.40783
      H   19    0.08989      0.00000     0.40889    0.00122     0.41011
      H   20    0.09508      0.00000     0.40382    0.00109     0.40492
      H   21    0.09773      0.00000     0.40086    0.00142     0.40227
      H   22    0.09125      0.00000     0.40717    0.00158     0.40875
 =======================================================================
   * Total *    0.00000     12.99447    31.85517    0.15035    45.00000

 Normal termination of Gaussian 16 at Wed Dec  9 23:15:17 2020.
