 Gaussian 16, Revision A.03,

 -----------------------------------------------------------
 # opt freq B3LYP/6-31G(d) empiricaldispersion=gd3bj scf=xqc
 -----------------------------------------------------------

 -------------------------------
 CID_104528666_JID_9909_neutraal
 -------------------------------
 Symbolic Z-matrix:
 Charge =  0 Multiplicity = 1

 SCF Done:  E(RB3LYP) =  -824.994503923     A.U. after   15 cycles
 SCF Done:  E(RB3LYP) =  -825.002566923     A.U. after   13 cycles
 SCF Done:  E(RB3LYP) =  -825.004719634     A.U. after   14 cycles
 SCF Done:  E(RB3LYP) =  -825.004242415     A.U. after   13 cycles
 SCF Done:  E(RB3LYP) =  -825.005729206     A.U. after   12 cycles
 SCF Done:  E(RB3LYP) =  -825.006170874     A.U. after   13 cycles
 SCF Done:  E(RB3LYP) =  -825.006559546     A.U. after   13 cycles
 SCF Done:  E(RB3LYP) =  -825.006797873     A.U. after   13 cycles
 SCF Done:  E(RB3LYP) =  -825.006905099     A.U. after   12 cycles
 SCF Done:  E(RB3LYP) =  -825.006944549     A.U. after   10 cycles
 SCF Done:  E(RB3LYP) =  -825.006960173     A.U. after    7 cycles
 SCF Done:  E(RB3LYP) =  -825.006960193     A.U. after    7 cycles
 SCF Done:  E(RB3LYP) =  -825.006960202     A.U. after    7 cycles
 SCF Done:  E(RB3LYP) =  -825.006960205     A.U. after    7 cycles
 SCF Done:  E(RB3LYP) =  -825.006960205     A.U. after    6 cycles
 Optimization completed.
    -- Stationary point found.
 Normal termination of Gaussian 16 at Sat Dec 12 10:18:28 2020.

 --------------------------------------------------------------------
 #N Geom=AllCheck Guess=TCheck SCRF=Check GenChk RB3LYP/6-31G(d) Freq
 --------------------------------------------------------------------

 Structure from the checkpoint file:  "JID_9909.chk"
 -------------------------------
 CID_104528666_JID_9909_neutraal
 -------------------------------
 Charge =  0 Multiplicity = 1

 SCF Done:  E(RB3LYP) =  -825.006960205     A.U. after    1 cycles

  Exact polarizability: 250.192 -37.569 159.125 -14.149 -18.561 153.719
 Approx polarizability: 325.811 -70.121 243.929 -16.398 -50.946 268.269

                      1                      2                      3
                      A                      A                      A
 Frequencies --     16.9006                27.6919                38.1333
 Red. masses --      4.2584                 4.1369                 4.0142
 Frc consts  --      0.0007                 0.0019                 0.0034
 IR Inten    --      1.4043                 0.9138                 1.8202

                      4                      5                      6
                      A                      A                      A
 Frequencies --     47.4602                95.8926               121.5195
 Red. masses --      3.4262                 5.5668                 2.9095
 Frc consts  --      0.0045                 0.0302                 0.0253
 IR Inten    --      1.2961                 0.0891                 0.0816

                      7                      8                      9
                      A                      A                      A
 Frequencies --    146.2720               161.3779               198.7724
 Red. masses --      3.9215                 2.4677                 3.6907
 Frc consts  --      0.0494                 0.0379                 0.0859
 IR Inten    --      3.9826                 0.6173                 1.4342

                     10                     11                     12
                      A                      A                      A
 Frequencies --    208.0639               249.0800               259.0686
 Red. masses --      3.0626                 1.6859                 1.8399
 Frc consts  --      0.0781                 0.0616                 0.0728
 IR Inten    --      3.5861                 4.4253                 1.4126

                     13                     14                     15
                      A                      A                      A
 Frequencies --    277.5099               281.4542               296.7178
 Red. masses --      1.4726                 1.9605                 2.3367
 Frc consts  --      0.0668                 0.0915                 0.1212
 IR Inten    --     10.0761                 2.9494                 3.7515

                     16                     17                     18
                      A                      A                      A
 Frequencies --    299.5069               348.3584               361.1727
 Red. masses --      2.3589                 2.9545                 2.5616
 Frc consts  --      0.1247                 0.2112                 0.1969
 IR Inten    --      1.2365                 4.8471                 4.4649

                     19                     20                     21
                      A                      A                      A
 Frequencies --    371.3075               391.0946               406.4814
 Red. masses --      2.2296                 1.6751                 2.1055
 Frc consts  --      0.1811                 0.1510                 0.2050
 IR Inten    --      4.6421                 9.9905                 3.6758

                     22                     23                     24
                      A                      A                      A
 Frequencies --    434.7102               438.0744               449.6914
 Red. masses --      2.7944                 2.6814                 1.9965
 Frc consts  --      0.3111                 0.3032                 0.2379
 IR Inten    --      0.4998                23.4678                 0.4603

                     25                     26                     27
                      A                      A                      A
 Frequencies --    456.8392               502.9654               519.8384
 Red. masses --      3.0978                 1.6376                 3.4868
 Frc consts  --      0.3809                 0.2441                 0.5551
 IR Inten    --      8.1450                93.9094                12.5127

                     28                     29                     30
                      A                      A                      A
 Frequencies --    557.7553               569.7148               583.5824
 Red. masses --      4.4226                 2.2490                 2.3949
 Frc consts  --      0.8106                 0.4301                 0.4806
 IR Inten    --     13.8789                 2.3117               115.4358

                     31                     32                     33
                      A                      A                      A
 Frequencies --    593.7012               612.0391               626.3900
 Red. masses --      4.3941                 2.0670                 1.9292
 Frc consts  --      0.9125                 0.4562                 0.4460
 IR Inten    --      3.9490                40.8343                92.9430

                     34                     35                     36
                      A                      A                      A
 Frequencies --    674.1059               693.2385               724.2981
 Red. masses --      2.6958                 3.7265                 2.6179
 Frc consts  --      0.7218                 1.0552                 0.8092
 IR Inten    --     87.3288                10.8066                 3.5193

                     37                     38                     39
                      A                      A                      A
 Frequencies --    762.3973               798.6615               800.9905
 Red. masses --      4.1872                 1.6277                 2.1578
 Frc consts  --      1.4340                 0.6117                 0.8157
 IR Inten    --      2.9790                 4.1788                 8.3998

                     40                     41                     42
                      A                      A                      A
 Frequencies --    814.6228               875.8757               883.7041
 Red. masses --      1.8700                 2.1091                 1.6627
 Frc consts  --      0.7311                 0.9533                 0.7650
 IR Inten    --     70.5630                 2.2105                 7.4001

                     43                     44                     45
                      A                      A                      A
 Frequencies --    900.3904               924.2834               972.9783
 Red. masses --      1.8965                 2.1490                 3.1114
 Frc consts  --      0.9058                 1.0817                 1.7355
 IR Inten    --      4.8042                 0.1959                 4.3148

                     46                     47                     48
                      A                      A                      A
 Frequencies --    978.1585               988.1062               990.8881
 Red. masses --      2.2777                 1.4062                 1.9464
 Frc consts  --      1.2840                 0.8089                 1.1260
 IR Inten    --     48.5089                 2.2263                 1.2824

                     49                     50                     51
                      A                      A                      A
 Frequencies --   1004.6244              1046.6674              1054.7255
 Red. masses --      1.6012                 1.8660                 1.8138
 Frc consts  --      0.9521                 1.2044                 1.1888
 IR Inten    --      1.4904                16.7412                 3.5288

                     52                     53                     54
                      A                      A                      A
 Frequencies --   1067.1117              1087.1957              1099.4448
 Red. masses --      2.7942                 2.0782                 2.0885
 Frc consts  --      1.8747                 1.4473                 1.4874
 IR Inten    --      1.9284                18.8835                13.0245

                     55                     56                     57
                      A                      A                      A
 Frequencies --   1105.4689              1130.5282              1140.3939
 Red. masses --      2.0535                 1.7373                 2.6768
 Frc consts  --      1.4785                 1.3082                 2.0511
 IR Inten    --      8.7360                 7.2731                 3.2930

                     58                     59                     60
                      A                      A                      A
 Frequencies --   1148.3930              1180.2154              1186.0416
 Red. masses --      1.6187                 1.8466                 1.3878
 Frc consts  --      1.2577                 1.5155                 1.1502
 IR Inten    --     11.9665                 8.5559                47.7644

                     61                     62                     63
                      A                      A                      A
 Frequencies --   1190.4414              1206.2493              1236.7350
 Red. masses --      1.2315                 2.2632                 1.5483
 Frc consts  --      1.0283                 1.9402                 1.3952
 IR Inten    --     35.6938                31.5301                20.0975

                     64                     65                     66
                      A                      A                      A
 Frequencies --   1255.6449              1260.8860              1302.7931
 Red. masses --      1.6964                 1.5228                 1.8649
 Frc consts  --      1.5759                 1.4264                 1.8649
 IR Inten    --     27.2483                36.1402               101.5021

                     67                     68                     69
                      A                      A                      A
 Frequencies --   1305.0718              1312.4797              1327.3079
 Red. masses --      2.2829                 1.7292                 1.4399
 Frc consts  --      2.2909                 1.7550                 1.4946
 IR Inten    --    141.6115               249.9807                24.5536

                     70                     71                     72
                      A                      A                      A
 Frequencies --   1333.8907              1348.3082              1368.6649
 Red. masses --      1.3245                 1.3584                 1.4337
 Frc consts  --      1.3885                 1.4550                 1.5824
 IR Inten    --     18.3117                11.8008                 8.6249

                     73                     74                     75
                      A                      A                      A
 Frequencies --   1377.6699              1383.7576              1392.7423
 Red. masses --      1.9747                 2.3993                 1.5449
 Frc consts  --      2.2082                 2.7068                 1.7656
 IR Inten    --     28.3315                19.0173                 8.9218

                     76                     77                     78
                      A                      A                      A
 Frequencies --   1401.6154              1409.4362              1421.8015
 Red. masses --      1.4276                 1.3288                 1.4408
 Frc consts  --      1.6524                 1.5552                 1.7161
 IR Inten    --      3.1167                61.4805                 4.3791

                     79                     80                     81
                      A                      A                      A
 Frequencies --   1423.9074              1443.1562              1475.1658
 Red. masses --      1.4925                 1.4955                 2.6588
 Frc consts  --      1.7829                 1.8352                 3.4089
 IR Inten    --      9.5438                13.6392                80.9099

                     82                     83                     84
                      A                      A                      A
 Frequencies --   1485.5520              1509.5802              1510.0883
 Red. masses --      1.1957                 1.0673                 1.0878
 Frc consts  --      1.5547                 1.4330                 1.4616
 IR Inten    --      0.0784                16.5313                 3.6846

                     85                     86                     87
                      A                      A                      A
 Frequencies --   1515.1124              1517.8119              1518.4426
 Red. masses --      1.0663                 1.0799                 1.0653
 Frc consts  --      1.4422                 1.4658                 1.4472
 IR Inten    --     10.9216                 1.2059                 6.1497

                     88                     89                     90
                      A                      A                      A
 Frequencies --   1519.3332              1528.0379              1536.9636
 Red. masses --      1.0874                 1.1054                 1.0558
 Frc consts  --      1.4789                 1.5206                 1.4694
 IR Inten    --      7.5876                 4.7347                 5.1756

                     91                     92                     93
                      A                      A                      A
 Frequencies --   1539.6533              1554.0188              1571.3084
 Red. masses --      1.1029                 2.3206                 2.8458
 Frc consts  --      1.5404                 3.3018                 4.1397
 IR Inten    --      7.2351                49.8964                50.6491

                     94                     95                     96
                      A                      A                      A
 Frequencies --   1621.8861              1667.9702              1703.6498
 Red. masses --      3.6130                 5.2737                 1.1612
 Frc consts  --      5.5996                 8.6446                 1.9857
 IR Inten    --     32.0651               700.3839                97.9868

                     97                     98                     99
                      A                      A                      A
 Frequencies --   1743.5661              2892.3552              2901.5900
 Red. masses --      9.6254                 1.0738                 1.0718
 Frc consts  --     17.2403                 5.2925                 5.3165
 IR Inten    --    183.1379                42.0585                71.0781

                    100                    101                    102
                      A                      A                      A
 Frequencies --   2941.5723              3012.7636              3021.9083
 Red. masses --      1.0618                 1.0758                 1.0709
 Frc consts  --      5.4129                 5.7531                 5.7617
 IR Inten    --     95.8024                 4.7034                44.8224

                    103                    104                    105
                      A                      A                      A
 Frequencies --   3029.0538              3046.5404              3052.2582
 Red. masses --      1.0492                 1.0645                 1.0691
 Frc consts  --      5.6719                 5.8209                 5.8682
 IR Inten    --     11.8975                22.5584                44.0145

                    106                    107                    108
                      A                      A                      A
 Frequencies --   3068.3756              3074.5206              3078.4304
 Red. masses --      1.0942                 1.0811                 1.0751
 Frc consts  --      6.0694                 6.0210                 6.0027
 IR Inten    --     68.7617                37.3007                66.9971

                    109                    110                    111
                      A                      A                      A
 Frequencies --   3091.9085              3102.8312              3114.2272
 Red. masses --      1.1054                 1.0872                 1.0858
 Frc consts  --      6.2259                 6.1668                 6.2044
 IR Inten    --     43.6059                21.3600                10.6420

                    112                    113                    114
                      A                      A                      A
 Frequencies --   3117.0590              3122.2185              3149.7130
 Red. masses --      1.0957                 1.1038                 1.0890
 Frc consts  --      6.2723                 6.3398                 6.3653
 IR Inten    --     19.6701                38.1987                24.4069

                    115                    116                    117
                      A                      A                      A
 Frequencies --   3166.9189              3219.7643              3233.9800
 Red. masses --      1.1031                 1.0865                 1.0933
 Frc consts  --      6.5185                 6.6361                 6.7367
 IR Inten    --      9.9832                 2.6367                15.9825

                    118                    119                    120
                      A                      A                      A
 Frequencies --   3566.2492              3585.8511              3675.0219
 Red. masses --      1.0509                 1.0752                 1.0945
 Frc consts  --      7.8744                 8.1455                 8.7094
 IR Inten    --     10.0831                14.8254                15.0636

 - Thermochemistry -
 -------------------
 Temperature   298.150 Kelvin.  Pressure   1.00000 Atm.
 Atom     1 has atomic number  6 and mass  12.00000

 Molecular mass:   261.18411 amu.
 Principal axes and moments of inertia in atomic units:
                           1         2         3
     Eigenvalues --  2576.41750********************
           X            0.99993   0.00407  -0.01071
           Y           -0.00390   0.99987   0.01570
           Z            0.01077  -0.01566   0.99982
 This molecule is an asymmetric top.
 Rotational symmetry number  1.
 Warning -- assumption of classical behavior for rotation
           may cause significant error
 Rotational temperatures (Kelvin)      0.03362     0.00816     0.00749
 Rotational constants (GHZ):           0.70048     0.17008     0.15596
 Zero-point vibrational energy     971777.2 (Joules/Mol)
                                  232.26032 (Kcal/Mol)
 Warning -- explicit consideration of  32 degrees of freedom as
           vibrations may cause significant error
 Vibrational temperatures:     24.32    39.84    54.87    68.28   137.97
          (Kelvin)            174.84   210.45   232.19   285.99   299.36
                              358.37   372.74   399.27   404.95   426.91
                              430.92   501.21   519.65   534.23   562.70
                              584.84   625.45   630.29   647.01   657.29
                              723.66   747.93   802.49   819.69   839.64
                              854.20   880.59   901.24   969.89   997.42
                             1042.10  1096.92  1149.10  1152.45  1172.06
                             1260.19  1271.45  1295.46  1329.84  1399.90
                             1407.35  1421.66  1425.67  1445.43  1505.92
                             1517.51  1535.34  1564.23  1581.86  1590.52
                             1626.58  1640.77  1652.28  1698.07  1706.45
                             1712.78  1735.52  1779.39  1806.59  1814.13
                             1874.43  1877.71  1888.37  1909.70  1919.17
                             1939.91  1969.20  1982.16  1990.92  2003.85
                             2016.61  2027.86  2045.66  2048.69  2076.38
                             2122.43  2137.38  2171.95  2172.68  2179.91
                             2183.79  2184.70  2185.98  2198.51  2211.35
                             2215.22  2235.89  2260.76  2333.53  2399.84
                             2451.17  2508.60  4161.45  4174.74  4232.27
                             4334.69  4347.85  4358.13  4383.29  4391.52
                             4414.71  4423.55  4429.17  4448.57  4464.28
                             4480.68  4484.75  4492.18  4531.73  4556.49
                             4632.52  4652.98  5131.04  5159.24  5287.54

 Zero-point correction=                           0.370130 (Hartree/Particle)
 Thermal correction to Energy=                    0.388756
 Thermal correction to Enthalpy=                  0.389700
 Thermal correction to Gibbs Free Energy=         0.322180
 Sum of electronic and zero-point Energies=           -824.636830
 Sum of electronic and thermal Energies=              -824.618204
 Sum of electronic and thermal Enthalpies=            -824.617260
 Sum of electronic and thermal Free Energies=         -824.684780

                     E (Thermal)             CV                S
                      KCal/Mol        Cal/Mol-Kelvin    Cal/Mol-Kelvin
 Total                  243.948             73.280            142.109
 Electronic               0.000              0.000              0.000
 Translational            0.889              2.981             42.580
 Rotational               0.889              2.981             34.114
 Vibrational            242.171             67.318             65.415
 Vibration     1          0.593              1.986              6.969
 Vibration     2          0.593              1.984              5.988
 Vibration     3          0.594              1.982              5.354
 Vibration     4          0.595              1.979              4.921
 Vibration     5          0.603              1.952              3.536
 Vibration     6          0.609              1.931              3.076
 Vibration     7          0.617              1.907              2.720
 Vibration     8          0.622              1.890              2.534
 Vibration     9          0.637              1.842              2.144
 Vibration    10          0.641              1.828              2.061
 Vibration    11          0.662              1.764              1.737
 Vibration    12          0.668              1.747              1.668
 Vibration    13          0.678              1.715              1.549
 Vibration    14          0.681              1.708              1.525
 Vibration    15          0.690              1.680              1.435
 Vibration    16          0.692              1.675              1.420
 Vibration    17          0.726              1.579              1.174
 Vibration    18          0.735              1.552              1.117
 Vibration    19          0.743              1.531              1.074
 Vibration    20          0.759              1.489              0.996
 Vibration    21          0.771              1.456              0.939
 Vibration    22          0.795              1.395              0.843
 Vibration    23          0.798              1.387              0.833
 Vibration    24          0.809              1.362              0.797
 Vibration    25          0.815              1.346              0.775
 Vibration    26          0.858              1.243              0.651
 Vibration    27          0.875              1.206              0.610
 Vibration    28          0.913              1.123              0.528
 Vibration    29          0.926              1.097              0.505
 Vibration    30          0.940              1.067              0.479
 Vibration    31          0.951              1.045              0.461
 Vibration    32          0.971              1.006              0.429

 Optimization completed.
    -- Stationary point found.
 Normal termination of Gaussian 16 at Sat Dec 12 10:37:59 2020.

 ----------------------------------------------------------------------
 # B3LYP/6-311++G(d,p) empiricaldispersion=gd3bj scf=xqc pop=npa geom=c
 heck
 ----------------------------------------------------------------------

 ---------------------------------------
 CID_104528666_JID_9909_Energie_neutraal
 ---------------------------------------
 Structure from the checkpoint file:  "JID_9909.chk"
 Charge =  0 Multiplicity = 1

 SCF Done:  E(RB3LYP) =  -825.240377280     A.U. after   16 cycles
 Normal termination of Gaussian 16 at Sat Dec 12 10:48:18 2020.

 ----------------------------------------------------------------------
 # B3LYP/6-311++G(d,p) empiricaldispersion=gd3bj scf=xqc pop=npa geom=c
 heck
 ----------------------------------------------------------------------

 -------------------------------------
 CID_104528666_JID_9909_Energie_kation
 -------------------------------------
 Structure from the checkpoint file:  "JID_9909.chk"
 Charge =  1 Multiplicity = 2

 SCF Done:  E(UB3LYP) =  -824.976004704     A.U. after   26 cycles
 Normal termination of Gaussian 16 at Sat Dec 12 11:11:56 2020.
 Gaussian 16:  ES64L-G16RevA.03 25-Dec-2016

 ----------------------------------------------------------------------
 # B3LYP/6-311++G(d,p) empiricaldispersion=gd3bj scf=xqc pop=npa geom=c
 heck
 ----------------------------------------------------------------------

 ------------------------------------
 CID_104528666_JID_9909_Energie_anion
 ------------------------------------
 Structure from the checkpoint file:  "JID_9909.chk"
 Charge = -1 Multiplicity = 2

                         Standard orientation:
 ---------------------------------------------------------------------
 Center     Atomic      Atomic             Coordinates (Angstroms)
 Number     Number       Type             X           Y           Z
 ---------------------------------------------------------------------
      1          6           0       -5.230630    1.183068    0.465685
      2          6           0       -4.145680    0.985049   -0.585553
      3          8           0       -4.242860    1.609569   -1.638780
      4          6           0       -2.986440    0.090006   -0.342559
      5          6           0       -2.769134   -0.764514    0.774914
      6          6           0       -1.570210   -1.481615    0.865140
      7          6           0       -0.568230   -1.406654   -0.112889
      8          6           0       -0.797329   -0.583447   -1.238885
      9          6           0       -1.975630    0.126539   -1.324955
     10          7           0        0.570967   -2.172918    0.034719
     11          6           0        1.834138   -1.938787   -0.647888
     12          6           0        2.769236   -0.930331    0.039438
     13          6           0        4.124083   -0.867457   -0.679122
     14          6           0        5.037975    0.170430   -0.020043
     15          6           0        4.334385    1.523953    0.082746
     16          7           0        3.069692    1.398369    0.801845
     17          6           0        2.162689    0.474576    0.127364
     18          6           0        2.442435    2.693959    1.007124
     19          7           0       -3.672975   -0.893602    1.832333
     20          1           0       -5.822937    2.051877    0.173039
     21          1           0       -4.818269    1.326718    1.468818
     22          1           0       -5.906608    0.315869    0.493871
     23          1           0       -1.414363   -2.128817    1.727196
     24          1           0       -0.059777   -0.499010   -2.027099
     25          1           0       -2.159971    0.770673   -2.177729
     26          1           0        0.669019   -2.599530    0.947092
     27          1           0        2.351680   -2.903098   -0.725659
     28          1           0        1.626461   -1.623782   -1.674298
     29          1           0        2.943106   -1.273202    1.070593
     30          1           0        3.956276   -0.588458   -1.730492
     31          1           0        4.601352   -1.855876   -0.686440
     32          1           0        5.969502    0.280390   -0.588034
     33          1           0        5.305533   -0.164472    0.989895
     34          1           0        4.176740    1.936096   -0.937094
     35          1           0        4.966814    2.239038    0.621599
     36          1           0        1.223049    0.447181    0.687030
     37          1           0        1.912640    0.827780   -0.895874
     38          1           0        2.179737    3.204133    0.059519
     39          1           0        1.523384    2.570689    1.589615
     40          1           0        3.119919    3.347216    1.567717
     41          1           0       -4.650975   -0.831086    1.591560
     42          1           0       -3.493158   -1.698489    2.420037
 ---------------------------------------------------------------------

 SCF Done:  E(UB3LYP) =  -825.234912821     A.U. after   33 cycles
 SCF Done:  E(UB3LYP) =  -825.234912825     a.u. after    2 cycles

 The electronic state is 2-A.
 Alpha  occ. eigenvalues --  -18.96874 -14.22342 -14.22038 -14.21661 -10.12499
 Alpha  occ. eigenvalues --  -10.11343 -10.10961 -10.10692 -10.10487 -10.10030
 Alpha  occ. eigenvalues --  -10.09552 -10.08023 -10.07903 -10.07802 -10.06610
 Alpha  occ. eigenvalues --  -10.05562 -10.05367 -10.05299 -10.05281  -0.90577
 Alpha  occ. eigenvalues --   -0.84443  -0.83749  -0.82144  -0.72912  -0.71347
 Alpha  occ. eigenvalues --   -0.67617  -0.64771  -0.62931  -0.62013  -0.60690
 Alpha  occ. eigenvalues --   -0.58481  -0.53182  -0.51961  -0.51372  -0.49051
 Alpha  occ. eigenvalues --   -0.46801  -0.44997  -0.43007  -0.41616  -0.40302
 Alpha  occ. eigenvalues --   -0.38482  -0.37855  -0.36524  -0.36519  -0.36397
 Alpha  occ. eigenvalues --   -0.35751  -0.33607  -0.33022  -0.32373  -0.31952
 Alpha  occ. eigenvalues --   -0.31689  -0.31184  -0.30350  -0.30064  -0.29683
 Alpha  occ. eigenvalues --   -0.28718  -0.28403  -0.27238  -0.25758  -0.25417
 Alpha  occ. eigenvalues --   -0.24672  -0.24181  -0.23992  -0.23419  -0.22736
 Alpha  occ. eigenvalues --   -0.22237  -0.17622  -0.13352  -0.12892  -0.11479
 Alpha  occ. eigenvalues --   -0.09725   0.03916
 Alpha virt. eigenvalues --    0.05511   0.05817   0.06522   0.07162   0.07688
 Alpha virt. eigenvalues --    0.08033   0.09059   0.09395   0.09732   0.10070
 Alpha virt. eigenvalues --    0.10434   0.10807   0.10848   0.11412   0.12142

  Beta  occ. eigenvalues --  -18.96693 -14.22296 -14.22006 -14.21656 -10.12327
  Beta  occ. eigenvalues --  -10.11289 -10.10952 -10.10549 -10.10480 -10.10025
  Beta  occ. eigenvalues --  -10.09551 -10.08010 -10.07890 -10.07787 -10.06619
  Beta  occ. eigenvalues --  -10.05447 -10.05381 -10.05327 -10.05302  -0.90227
  Beta  occ. eigenvalues --   -0.84404  -0.83664  -0.82079  -0.72823  -0.71288
  Beta  occ. eigenvalues --   -0.67574  -0.64595  -0.62827  -0.61942  -0.60668
  Beta  occ. eigenvalues --   -0.58432  -0.53147  -0.51869  -0.51208  -0.48945
  Beta  occ. eigenvalues --   -0.46760  -0.44832  -0.42861  -0.41543  -0.40263
  Beta  occ. eigenvalues --   -0.38439  -0.37808  -0.36496  -0.36476  -0.36317
  Beta  occ. eigenvalues --   -0.35657  -0.33334  -0.32939  -0.32274  -0.31856
  Beta  occ. eigenvalues --   -0.31634  -0.31130  -0.30309  -0.30009  -0.29659
  Beta  occ. eigenvalues --   -0.28590  -0.28215  -0.27187  -0.25641  -0.25360
  Beta  occ. eigenvalues --   -0.24479  -0.23941  -0.23507  -0.23347  -0.22634
  Beta  occ. eigenvalues --   -0.22107  -0.17197  -0.13328  -0.12734  -0.11329
  Beta  occ. eigenvalues --   -0.09374
  Beta virt. eigenvalues --    0.05916   0.06414   0.07065   0.07388   0.07465
  Beta virt. eigenvalues --    0.07799   0.08400   0.09400   0.09585   0.09770
  Beta virt. eigenvalues --    0.10141   0.10575   0.10847   0.10946   0.11534

 Mulliken charges and spin densities:
               1          2
     1  C   -0.385751  -0.148926
     2  C   -0.166172  -0.182074
     3  O   -0.339546   0.067762
     4  C    2.422873  -0.428121
     5  C   -2.146033   0.281874
     6  C   -0.765691   0.031956
     7  C    0.254716  -0.537430
     8  C    0.191314   0.077468
     9  C    0.139094   0.277946
    10  N    0.013289   0.071883
    11  C    0.268151  -1.121044
    12  C    0.074001   0.638887
    13  C   -0.403348   0.082258
    14  C    0.033944  -0.558950
    15  C    0.151061  -0.368238
    16  N    0.143762   0.045565
    17  C   -0.753711  -0.213091
    18  C   -0.111930  -0.144788
    19  N   -0.219110  -0.003779
    20  H    0.151941   0.008392
    21  H    0.135897   0.037550
    22  H    0.123887   0.012483
    23  H   -0.552470   0.688696
    24  H    0.130136  -0.000087
    25  H    0.168056   0.025103
    26  H    0.048684   0.197766
    27  H   -0.190080   0.371544
    28  H    0.149967  -0.005172
    29  H   -0.224914   0.420805
    30  H    0.114806   0.009395
    31  H   -0.232016   0.377854
    32  H   -0.274009   0.441252
    33  H    0.108335   0.033051
    34  H    0.119870  -0.027091
    35  H   -0.070093   0.229299
    36  H    0.535008  -0.293372
    37  H    0.032737   0.099540
    38  H    0.086778   0.018850
    39  H    0.019994   0.095781
    40  H    0.081101   0.046646
    41  H    0.172468   0.073283
    42  H   -0.036997   0.269274
 Sum of Mulliken charges =  -1.00000   1.00000

 Dipole moment (field-independent basis, Debye):
    X=              0.8655    Y=              1.3552    Z=             -0.2114  Tot=              1.6218
 Quadrupole moment (field-independent basis, Debye-Ang):
   XX=           -205.8122   YY=           -156.6880   ZZ=           -150.7795
   XY=             14.2717   XZ=            -12.6880   YZ=              9.6153

 Summary of Natural Population Analysis:

                                       Natural Population
                Natural  -----------------------------------------------
    Atom  No    Charge         Core      Valence    Rydberg      Total
 -----------------------------------------------------------------------
      C    1   -0.33391      0.99964     2.32905    0.00522     3.33391
      C    2    0.29088      0.99964     1.68936    0.02012     2.70912
      O    3   -0.29570      0.99988     3.28955    0.00627     4.29570
      C    4   -0.12449      0.99943     2.11492    0.01014     3.12449
      C    5    0.11842      0.99948     1.87134    0.01076     2.88158
      C    6   -0.16455      0.99950     2.15509    0.00996     3.16455
      C    7    0.13039      0.99950     1.85870    0.01141     2.86961
      C    8   -0.16257      0.99952     2.15573    0.00732     3.16257
      C    9   -0.03252      0.99955     2.02398    0.00898     3.03252
      N   10   -0.30306      0.99967     2.79274    0.01064     3.80306
      C   11   -0.08060      0.99959     2.06899    0.01202     3.08060
      C   12   -0.12124      0.99958     2.11014    0.01152     3.12124
      C   13   -0.18843      0.99961     2.17964    0.00918     3.18843
      C   14   -0.19310      0.99962     2.18450    0.00897     3.19310
      C   15   -0.08287      0.99962     2.07146    0.01179     3.08287
      N   16   -0.27666      0.99971     2.76654    0.01041     3.77666
      C   17   -0.08644      0.99959     2.07533    0.01152     3.08644
      C   18   -0.17386      0.99966     2.16772    0.00648     3.17386
      N   19   -0.39615      0.99971     2.88695    0.00949     3.89615
      H   20    0.10762      0.00000     0.39084    0.00154     0.39238
      H   21    0.10833      0.00000     0.39025    0.00141     0.39167
      H   22    0.09763      0.00000     0.40098    0.00139     0.40237
      H   23    0.09422      0.00000     0.40384    0.00194     0.40578
      H   24    0.09742      0.00000     0.40117    0.00141     0.40258
      H   25    0.10961      0.00000     0.38922    0.00117     0.39039
      H   26    0.18513      0.00000     0.31183    0.00304     0.31487
      H   27    0.09803      0.00000     0.40088    0.00109     0.40197
      H   28    0.09485      0.00000     0.40392    0.00123     0.40515
      H   29    0.09763      0.00000     0.39965    0.00272     0.40237
      H   30    0.09186      0.00000     0.40692    0.00123     0.40814
      H   31    0.10219      0.00000     0.39652    0.00129     0.39781
      H   32    0.09817      0.00000     0.40088    0.00096     0.40183
      H   33    0.09829      0.00000     0.40014    0.00157     0.40171
      H   34    0.07601      0.00000     0.42256    0.00143     0.42399
      H   35    0.09511      0.00000     0.40374    0.00115     0.40489
      H   36    0.10659      0.00000     0.39186    0.00155     0.39341
      H   37    0.07898      0.00000     0.41956    0.00146     0.42102
      H   38    0.07931      0.00000     0.41922    0.00147     0.42069
      H   39    0.09797      0.00000     0.40106    0.00097     0.40203
      H   40    0.09201      0.00000     0.40703    0.00096     0.40799
      H   41    0.18561      0.00000     0.31259    0.00180     0.31439
      H   42    0.18387      0.00000     0.31416    0.00197     0.31613
 =======================================================================
   * Total *   -0.00000     18.99249    51.78056    0.22695    71.00000

 Normal termination of Gaussian 16 at Sat Dec 12 12:08:00 2020.
