 Gaussian 16, Revision A.03,

 -----------------------------------------------------------
 # opt freq B3LYP/6-31G(d) empiricaldispersion=gd3bj scf=xqc
 -----------------------------------------------------------

 -------------------------------
 CID_60686743_JID_10730_neutraal
 -------------------------------
 Symbolic Z-matrix:
 Charge =  0 Multiplicity = 1

 SCF Done:  E(RB3LYP) =  -974.630073749     A.U. after   16 cycles
 SCF Done:  E(RB3LYP) =  -974.635717593     A.U. after   13 cycles
 SCF Done:  E(RB3LYP) =  -974.634819442     A.U. after   13 cycles
 SCF Done:  E(RB3LYP) =  -974.633753990     A.U. after   13 cycles
 SCF Done:  E(RB3LYP) =  -974.631505009     A.U. after   13 cycles
 SCF Done:  E(RB3LYP) =  -974.636584535     A.U. after   11 cycles
 SCF Done:  E(RB3LYP) =  -974.640228054     A.U. after   12 cycles
 SCF Done:  E(RB3LYP) =  -974.640911308     A.U. after   12 cycles
 SCF Done:  E(RB3LYP) =  -974.639727267     A.U. after   13 cycles
 SCF Done:  E(RB3LYP) =  -974.641186149     A.U. after   12 cycles
 SCF Done:  E(RB3LYP) =  -974.641646032     A.U. after    7 cycles
 SCF Done:  E(RB3LYP) =  -974.641646168     A.U. after    8 cycles
 SCF Done:  E(RB3LYP) =  -974.641646374     A.U. after    8 cycles
 SCF Done:  E(RB3LYP) =  -974.641646727     A.U. after    9 cycles
 SCF Done:  E(RB3LYP) =  -974.641647068     A.U. after    8 cycles
 SCF Done:  E(RB3LYP) =  -974.641647487     A.U. after    9 cycles
 Optimization completed.
    -- Stationary point found.
 Normal termination of Gaussian 16 at Mon Dec 14 17:59:29 2020.

 --------------------------------------------------------------------
 #N Geom=AllCheck Guess=TCheck SCRF=Check GenChk RB3LYP/6-31G(d) Freq
 --------------------------------------------------------------------

 Structure from the checkpoint file:  "JID_10730.chk"
 -------------------------------
 CID_60686743_JID_10730_neutraal
 -------------------------------
 Charge =  0 Multiplicity = 1

 SCF Done:  E(RB3LYP) =  -974.641647487     A.U. after    1 cycles

  Exact polarizability: 190.623   5.524 218.835 -15.728  -0.963 109.345
 Approx polarizability: 281.980  27.686 378.485 -33.599  -3.447 163.167

                      1                      2                      3
                      A                      A                      A
 Frequencies --     23.8656                37.7833                48.6323
 Red. masses --      5.8506                 6.5428                 6.0389
 Frc consts  --      0.0020                 0.0055                 0.0084
 IR Inten    --     10.2804                 4.3973                 2.2326

                      4                      5                      6
                      A                      A                      A
 Frequencies --     67.3158                97.3178               108.4395
 Red. masses --      4.2965                 7.7300                 5.0803
 Frc consts  --      0.0115                 0.0431                 0.0352
 IR Inten    --      2.3245                 0.1079                 0.9711

                      7                      8                      9
                      A                      A                      A
 Frequencies --    131.2671               165.8781               169.7246
 Red. masses --      5.3513                 3.0617                 4.3901
 Frc consts  --      0.0543                 0.0496                 0.0745
 IR Inten    --      0.0530                 2.3212                 4.3945

                     10                     11                     12
                      A                      A                      A
 Frequencies --    189.1468               213.9177               246.6269
 Red. masses --      3.6315                 4.0370                 4.6108
 Frc consts  --      0.0765                 0.1088                 0.1652
 IR Inten    --      3.4611                 6.5478                 0.6177

                     13                     14                     15
                      A                      A                      A
 Frequencies --    255.5355               266.0822               298.2237
 Red. masses --      6.0379                 2.5892                 4.5768
 Frc consts  --      0.2323                 0.1080                 0.2398
 IR Inten    --      0.4693                 0.4074                 1.1794

                     16                     17                     18
                      A                      A                      A
 Frequencies --    317.7707               322.2866               362.8266
 Red. masses --      3.0241                 2.8141                 2.9891
 Frc consts  --      0.1799                 0.1722                 0.2318
 IR Inten    --      0.4477                12.4000                 1.5968

                     19                     20                     21
                      A                      A                      A
 Frequencies --    382.2668               397.5044               403.5054
 Red. masses --      1.3440                 1.1543                 5.0266
 Frc consts  --      0.1157                 0.1075                 0.4822
 IR Inten    --     30.6944               135.8042                26.0521

                     22                     23                     24
                      A                      A                      A
 Frequencies --    413.0648               450.6995               473.8207
 Red. masses --      2.3752                 6.5039                 3.2555
 Frc consts  --      0.2388                 0.7784                 0.4306
 IR Inten    --     25.8077                 1.4614                 8.0570

                     25                     26                     27
                      A                      A                      A
 Frequencies --    486.8641               527.1619               544.0519
 Red. masses --      5.2944                 2.6379                 4.0503
 Frc consts  --      0.7394                 0.4319                 0.7063
 IR Inten    --      5.6828                 1.0840                 4.7756

                     28                     29                     30
                      A                      A                      A
 Frequencies --    567.0938               590.3165               639.7296
 Red. masses --      4.3452                 2.8602                 4.2241
 Frc consts  --      0.8233                 0.5872                 1.0185
 IR Inten    --      1.6807                11.9583                11.3102

                     31                     32                     33
                      A                      A                      A
 Frequencies --    661.1836               673.4926               697.1233
 Red. masses --      4.2410                 1.2185                 4.2754
 Frc consts  --      1.0924                 0.3256                 1.2242
 IR Inten    --      2.0572               165.0442                 2.0698

                     34                     35                     36
                      A                      A                      A
 Frequencies --    723.9790               728.6208               744.9305
 Red. masses --      4.8996                 5.2420                 4.1475
 Frc consts  --      1.5131                 1.6396                 1.3560
 IR Inten    --      3.1557                 6.9188                 1.7605

                     37                     38                     39
                      A                      A                      A
 Frequencies --    784.4024               814.7284               822.7535
 Red. masses --      2.4999                 2.5943                 2.5264
 Frc consts  --      0.9063                 1.0146                 1.0076
 IR Inten    --     21.7979                12.0659                 9.1265

                     40                     41                     42
                      A                      A                      A
 Frequencies --    864.2494               876.1462               880.5177
 Red. masses --      1.3964                 1.9630                 2.4644
 Frc consts  --      0.6145                 0.8878                 1.1257
 IR Inten    --     25.3588                10.7491                10.8260

                     43                     44                     45
                      A                      A                      A
 Frequencies --    883.2637               892.3051               925.9465
 Red. masses --      1.6351                 4.2920                 1.9170
 Frc consts  --      0.7516                 2.0135                 0.9684
 IR Inten    --     43.1506                 8.4666                14.8463

                     46                     47                     48
                      A                      A                      A
 Frequencies --    972.3219              1003.9318              1007.9561
 Red. masses --      1.2438                 2.3090                 2.6589
 Frc consts  --      0.6928                 1.3711                 1.5916
 IR Inten    --      4.8842                18.9429                12.7224

                     49                     50                     51
                      A                      A                      A
 Frequencies --   1026.0733              1066.4216              1074.8175
 Red. masses --      2.1910                 3.0013                 1.8303
 Frc consts  --      1.3591                 2.0110                 1.2458
 IR Inten    --     41.6505                56.4650                39.0534

                     52                     53                     54
                      A                      A                      A
 Frequencies --   1097.1448              1105.3945              1122.3914
 Red. masses --      3.3999                 3.0762                 3.2784
 Frc consts  --      2.4113                 2.2146                 2.4333
 IR Inten    --      3.4716                42.8265                67.3256

                     55                     56                     57
                      A                      A                      A
 Frequencies --   1161.1655              1166.7174              1180.9052
 Red. masses --      1.9136                 2.4634                 1.5013
 Frc consts  --      1.5201                 1.9757                 1.2335
 IR Inten    --     32.6405               144.4509                52.8223

                     58                     59                     60
                      A                      A                      A
 Frequencies --   1204.4550              1207.8222              1245.8123
 Red. masses --      1.8020                 1.8641                 1.4292
 Frc consts  --      1.5402                 1.6022                 1.3069
 IR Inten    --     18.8542                39.1702                 3.4273

                     61                     62                     63
                      A                      A                      A
 Frequencies --   1253.2756              1254.8797              1270.5317
 Red. masses --      1.3627                 1.7013                 1.1866
 Frc consts  --      1.2611                 1.5785                 1.1286
 IR Inten    --      5.9685                34.1683                19.4365

                     64                     65                     66
                      A                      A                      A
 Frequencies --   1290.3424              1293.2633              1309.5784
 Red. masses --      1.5978                 1.3658                 1.4395
 Frc consts  --      1.5674                 1.3459                 1.4545
 IR Inten    --     11.5295                15.2416                18.3219

                     67                     68                     69
                      A                      A                      A
 Frequencies --   1324.4008              1357.1692              1380.1224
 Red. masses --      1.5308                 3.3537                 1.2689
 Frc consts  --      1.5820                 3.6395                 1.4241
 IR Inten    --     38.0338               204.7261                 5.2004

                     70                     71                     72
                      A                      A                      A
 Frequencies --   1391.1007              1397.4900              1412.3095
 Red. masses --      1.2758                 4.6590                 1.4589
 Frc consts  --      1.4546                 5.3610                 1.7145
 IR Inten    --      2.4423                37.1563                 6.4980

                     73                     74                     75
                      A                      A                      A
 Frequencies --   1421.3801              1433.4858              1438.7255
 Red. masses --      1.4072                 2.3909                 1.4695
 Frc consts  --      1.6750                 2.8947                 1.7921
 IR Inten    --     17.6736                37.2965                20.7212

                     76                     77                     78
                      A                      A                      A
 Frequencies --   1447.2028              1469.0997              1491.2263
 Red. masses --      1.3085                 1.2775                 3.5381
 Frc consts  --      1.6147                 1.6245                 4.6356
 IR Inten    --     13.5353                64.0801                26.5820

                     79                     80                     81
                      A                      A                      A
 Frequencies --   1517.0264              1522.4234              1530.9845
 Red. masses --      1.0920                 1.0850                 1.0952
 Frc consts  --      1.4806                 1.4817                 1.5125
 IR Inten    --      5.3159                 5.2951                 3.3312

                     82                     83                     84
                      A                      A                      A
 Frequencies --   1549.1637              1550.5900              1557.1238
 Red. masses --      1.0932                 1.1114                 3.2854
 Frc consts  --      1.5458                 1.5745                 4.6934
 IR Inten    --      1.4298                 0.9176                10.7135

                     85                     86                     87
                      A                      A                      A
 Frequencies --   1615.6860              1676.7058              1680.4721
 Red. masses --      6.4722                 7.8616                 6.3952
 Frc consts  --      9.9544                13.0218                10.6405
 IR Inten    --    184.8641                47.4378               286.3581

                     88                     89                     90
                      A                      A                      A
 Frequencies --   1843.5990              2950.1131              2955.7669
 Red. masses --     12.1063                 1.0734                 1.0728
 Frc consts  --     24.2435                 5.5039                 5.5220
 IR Inten    --    614.0105                38.8654                77.8489

                     91                     92                     93
                      A                      A                      A
 Frequencies --   2968.5548              2982.4630              3029.6004
 Red. masses --      1.0728                 1.0735                 1.0713
 Frc consts  --      5.5700                 5.6259                 5.7933
 IR Inten    --     68.1974                91.6724                74.2936

                     94                     95                     96
                      A                      A                      A
 Frequencies --   3057.6557              3062.8813              3083.8991
 Red. masses --      1.0891                 1.0870                 1.0870
 Frc consts  --      5.9991                 6.0084                 6.0909
 IR Inten    --     84.9477                13.4356                 2.9740

                     97                     98                     99
                      A                      A                      A
 Frequencies --   3100.2987              3112.7283              3188.5219
 Red. masses --      1.0915                 1.0939                 1.0908
 Frc consts  --      6.1814                 6.2449                 6.5339
 IR Inten    --     19.1667                55.2550                 9.8508

                    100                    101                    102
                      A                      A                      A
 Frequencies --   3227.5899              3242.8982              3270.0548
 Red. masses --      1.0916                 1.0922                 1.0907
 Frc consts  --      6.6999                 6.7673                 6.8717
 IR Inten    --      0.7675                 0.2365                 8.6919

                    103                    104                    105
                      A                      A                      A
 Frequencies --   3564.8084              3712.3721              3748.1216
 Red. masses --      1.0681                 1.0661                 1.0660
 Frc consts  --      7.9968                 8.6565                 8.8233
 IR Inten    --    286.9968                72.7591                75.7424

 - Thermochemistry -
 -------------------
 Temperature   298.150 Kelvin.  Pressure   1.00000 Atm.
 Atom     1 has atomic number  6 and mass  12.00000

 Molecular mass:   279.11067 amu.
 Principal axes and moments of inertia in atomic units:
                           1         2         3
     Eigenvalues --  4219.691716532.864929017.72095
           X            0.99923  -0.03905  -0.00218
           Y            0.03904   0.99924  -0.00209
           Z            0.00225   0.00200   1.00000
 This molecule is an asymmetric top.
 Rotational symmetry number  1.
 Warning -- assumption of classical behavior for rotation
           may cause significant error
 Rotational temperatures (Kelvin)      0.02053     0.01326     0.00960
 Rotational constants (GHZ):           0.42770     0.27626     0.20013
 Zero-point vibrational energy     794041.5 (Joules/Mol)
                                  189.78048 (Kcal/Mol)
 Warning -- explicit consideration of  29 degrees of freedom as
           vibrations may cause significant error
 Vibrational temperatures:     34.34    54.36    69.97    96.85   140.02
          (Kelvin)            156.02   188.86   238.66   244.20   272.14
                              307.78   354.84   367.66   382.83   429.08
                              457.20   463.70   522.03   550.00   571.92
                              580.55   594.31   648.46   681.72   700.49
                              758.47   782.77   815.92   849.33   920.43
                              951.30   969.01  1003.00  1041.64  1048.32
                             1071.79  1128.58  1172.21  1183.76  1243.46
                             1260.58  1266.87  1270.82  1283.83  1332.23
                             1398.95  1444.43  1450.22  1476.29  1534.34
                             1546.42  1578.55  1590.42  1614.87  1670.66
                             1678.65  1699.06  1732.94  1737.79  1792.45
                             1803.18  1805.49  1828.01  1856.51  1860.72
                             1884.19  1905.52  1952.66  1985.69  2001.48
                             2010.68  2032.00  2045.05  2062.47  2070.01
                             2082.20  2113.71  2145.54  2182.66  2190.43
                             2202.75  2228.90  2230.95  2240.35  2324.61
                             2412.41  2417.82  2652.53  4244.55  4252.69
                             4271.09  4291.10  4358.92  4399.28  4406.80
                             4437.04  4460.64  4478.52  4587.57  4643.78
                             4665.81  4704.88  5128.96  5341.28  5392.71

 Zero-point correction=                           0.302434 (Hartree/Particle)
 Thermal correction to Energy=                    0.320804
 Thermal correction to Enthalpy=                  0.321748
 Thermal correction to Gibbs Free Energy=         0.255302
 Sum of electronic and zero-point Energies=           -974.339213
 Sum of electronic and thermal Energies=              -974.320844
 Sum of electronic and thermal Enthalpies=            -974.319900
 Sum of electronic and thermal Free Energies=         -974.386345

                     E (Thermal)             CV                S
                      KCal/Mol        Cal/Mol-Kelvin    Cal/Mol-Kelvin
 Total                  201.307             71.033            139.846
 Electronic               0.000              0.000              0.000
 Translational            0.889              2.981             42.778
 Rotational               0.889              2.981             33.874
 Vibrational            199.530             65.071             63.194
 Vibration     1          0.593              1.985              6.283
 Vibration     2          0.594              1.982              5.372
 Vibration     3          0.595              1.978              4.872
 Vibration     4          0.598              1.970              4.230
 Vibration     5          0.603              1.951              3.507
 Vibration     6          0.606              1.942              3.297
 Vibration     7          0.612              1.922              2.927
 Vibration     8          0.624              1.884              2.482
 Vibration     9          0.625              1.880              2.439
 Vibration    10          0.633              1.855              2.236
 Vibration    11          0.644              1.820              2.010
 Vibration    12          0.661              1.768              1.755
 Vibration    13          0.666              1.753              1.692
 Vibration    14          0.672              1.735              1.622
 Vibration    15          0.691              1.677              1.427
 Vibration    16          0.704              1.640              1.322
 Vibration    17          0.707              1.631              1.298
 Vibration    18          0.737              1.549              1.110
 Vibration    19          0.752              1.508              1.030
 Vibration    20          0.764              1.475              0.972
 Vibration    21          0.769              1.463              0.950
 Vibration    22          0.777              1.442              0.916
 Vibration    23          0.809              1.359              0.794
 Vibration    24          0.831              1.308              0.727
 Vibration    25          0.843              1.279              0.692
 Vibration    26          0.882              1.190              0.594
 Vibration    27          0.899              1.153              0.557
 Vibration    28          0.923              1.102              0.510
 Vibration    29          0.948              1.052              0.467

 Optimization completed.
    -- Stationary point found.
 Normal termination of Gaussian 16 at Mon Dec 14 18:19:26 2020.

 ----------------------------------------------------------------------
 # B3LYP/6-311++G(d,p) empiricaldispersion=gd3bj scf=xqc pop=npa geom=c
 heck
 ----------------------------------------------------------------------

 ---------------------------------------
 CID_60686743_JID_10730_Energie_neutraal
 ---------------------------------------
 Structure from the checkpoint file:  "JID_10730.chk"
 Charge =  0 Multiplicity = 1

 SCF Done:  E(RB3LYP) =  -974.936614999     A.U. after   16 cycles
 Normal termination of Gaussian 16 at Mon Dec 14 18:27:56 2020.

 ----------------------------------------------------------------------
 # B3LYP/6-311++G(d,p) empiricaldispersion=gd3bj scf=xqc pop=npa geom=c
 heck
 ----------------------------------------------------------------------

 -------------------------------------
 CID_60686743_JID_10730_Energie_kation
 -------------------------------------
 Structure from the checkpoint file:  "JID_10730.chk"
 Charge =  1 Multiplicity = 2

 SCF Done:  E(UB3LYP) =  -974.640834054     A.U. after   25 cycles
 Normal termination of Gaussian 16 at Mon Dec 14 18:45:00 2020.
 Gaussian 16:  ES64L-G16RevA.03 25-Dec-2016

 ----------------------------------------------------------------------
 # B3LYP/6-311++G(d,p) empiricaldispersion=gd3bj scf=xqc pop=npa geom=c
 heck
 ----------------------------------------------------------------------

 ------------------------------------
 CID_60686743_JID_10730_Energie_anion
 ------------------------------------
 Structure from the checkpoint file:  "JID_10730.chk"
 Charge = -1 Multiplicity = 2

                         Standard orientation:
 ---------------------------------------------------------------------
 Center     Atomic      Atomic             Coordinates (Angstroms)
 Number     Number       Type             X           Y           Z
 ---------------------------------------------------------------------
      1          6           0       -0.756419    2.427276   -0.450173
      2          6           0       -0.177055    1.183956   -0.644865
      3          6           0       -0.909170   -0.004022   -0.442216
      4          6           0       -2.262164    0.126267   -0.054983
      5          6           0       -2.859508    1.367429    0.140314
      6          6           0       -2.102489    2.520813   -0.054788
      7          8           0       -2.718760    3.713895    0.153541
      8          8           0       -3.058578   -0.960516    0.150257
      9          6           0       -2.598628   -2.267898   -0.014691
     10          8           0       -3.379036   -3.169029    0.180087
     11          6           0       -1.202018   -2.405672   -0.394693
     12          6           0       -0.382112   -1.345137   -0.604838
     13          6           0        1.059137   -1.575557   -1.000843
     14          7           0        2.003476   -0.929658   -0.100656
     15          6           0        3.351517   -0.816630   -0.658233
     16          6           0        3.486819    0.475035   -1.462967
     17          8           0        3.251693    1.628365   -0.679571
     18          6           0        1.921614   -1.336404    1.292417
     19          6           0        2.409990   -0.221780    2.227217
     20          8           0        1.919360    1.062948    1.852888
     21          1           0       -0.166320    3.327074   -0.605213
     22          1           0        0.863755    1.136907   -0.933036
     23          1           0       -3.898778    1.430271    0.439253
     24          1           0       -2.089777    4.431889   -0.020002
     25          1           0       -0.849910   -3.426042   -0.495832
     26          1           0        1.234121   -2.663470   -1.090146
     27          1           0        1.216331   -1.149810   -1.999903
     28          1           0        4.072057   -0.789726    0.165279
     29          1           0        3.611679   -1.689670   -1.281501
     30          1           0        4.499693    0.542826   -1.881239
     31          1           0        2.790475    0.443029   -2.319176
     32          1           0        2.741422    1.378727    0.119094
     33          1           0        0.868898   -1.542200    1.514922
     34          1           0        2.475914   -2.267443    1.516340
     35          1           0        2.125205   -0.469711    3.260164
     36          1           0        3.500055   -0.130316    2.203739
     37          1           0        0.986334    0.973905    1.594279
 ---------------------------------------------------------------------

 SCF Done:  E(UB3LYP) =  -974.960867077     A.U. after   22 cycles

 The electronic state is 2-A.
 Alpha  occ. eigenvalues --  -19.04462 -19.03705 -19.02723 -19.00930 -18.93938
 Alpha  occ. eigenvalues --  -14.20658 -10.13335 -10.13209 -10.11945 -10.10978
 Alpha  occ. eigenvalues --  -10.10672 -10.10651 -10.10314 -10.08673 -10.04767
 Alpha  occ. eigenvalues --  -10.04670 -10.04028 -10.03992 -10.03155 -10.01293
 Alpha  occ. eigenvalues --   -0.96166  -0.95669  -0.93893  -0.91394  -0.87341
 Alpha  occ. eigenvalues --   -0.82931  -0.73012  -0.68447  -0.66400  -0.63265
 Alpha  occ. eigenvalues --   -0.62737  -0.60668  -0.57323  -0.54402  -0.52337
 Alpha  occ. eigenvalues --   -0.49981  -0.49221  -0.46973  -0.44871  -0.41985
 Alpha  occ. eigenvalues --   -0.40456  -0.39544  -0.38996  -0.38194  -0.37881
 Alpha  occ. eigenvalues --   -0.36715  -0.35579  -0.35379  -0.32823  -0.32394
 Alpha  occ. eigenvalues --   -0.32352  -0.31540  -0.31445  -0.30013  -0.29739
 Alpha  occ. eigenvalues --   -0.28995  -0.28012  -0.27605  -0.27047  -0.26378
 Alpha  occ. eigenvalues --   -0.24829  -0.24471  -0.23542  -0.23352  -0.23066
 Alpha  occ. eigenvalues --   -0.20170  -0.19993  -0.19346  -0.17345  -0.15849
 Alpha  occ. eigenvalues --   -0.12558  -0.12230  -0.11587  -0.09006   0.03348
 Alpha virt. eigenvalues --    0.06725   0.07513   0.07709   0.08958   0.09488
 Alpha virt. eigenvalues --    0.10771   0.10852   0.11169   0.11319   0.11378
 Alpha virt. eigenvalues --    0.11958   0.12721   0.12938   0.13642   0.14534

  Beta  occ. eigenvalues --  -19.04397 -19.03698 -19.02587 -19.00929 -18.93659
  Beta  occ. eigenvalues --  -14.20624 -10.13219 -10.13209 -10.11938 -10.10919
  Beta  occ. eigenvalues --  -10.10666 -10.10418 -10.10312 -10.08705 -10.04835
  Beta  occ. eigenvalues --  -10.04733 -10.04036 -10.03729 -10.02685 -10.01054
  Beta  occ. eigenvalues --   -0.95893  -0.95500  -0.93879  -0.91390  -0.86893
  Beta  occ. eigenvalues --   -0.82866  -0.72742  -0.67875  -0.66387  -0.63144
  Beta  occ. eigenvalues --   -0.62523  -0.60293  -0.57111  -0.54382  -0.52203
  Beta  occ. eigenvalues --   -0.49545  -0.48940  -0.46816  -0.44510  -0.41913
  Beta  occ. eigenvalues --   -0.40423  -0.39443  -0.38882  -0.38032  -0.37756
  Beta  occ. eigenvalues --   -0.36672  -0.35459  -0.35359  -0.32518  -0.32305
  Beta  occ. eigenvalues --   -0.31963  -0.31312  -0.31245  -0.29855  -0.29009
  Beta  occ. eigenvalues --   -0.28829  -0.27873  -0.27513  -0.26942  -0.26153
  Beta  occ. eigenvalues --   -0.24810  -0.24282  -0.23341  -0.23017  -0.22490
  Beta  occ. eigenvalues --   -0.19903  -0.19302  -0.18928  -0.17296  -0.14326
  Beta  occ. eigenvalues --   -0.12259  -0.11884  -0.11027  -0.07576
  Beta virt. eigenvalues --    0.06685   0.07506   0.07608   0.08896   0.09264
  Beta virt. eigenvalues --    0.09660   0.10768   0.10847   0.11314   0.11458
  Beta virt. eigenvalues --    0.11767   0.11927   0.12779   0.13238   0.14278

 Mulliken charges and spin densities:
               1          2
     1  C   -0.065044  -0.089683
     2  C   -0.405938   0.226592
     3  C    0.274338  -0.048728
     4  C   -0.549642   0.046769
     5  C   -0.286999  -0.015387
     6  C   -0.554602   0.144651
     7  O   -0.249755   0.013388
     8  O   -0.179504   0.032549
     9  C    0.109232   0.083282
    10  O   -0.392750   0.090707
    11  C   -0.330966   0.270355
    12  C    1.147104   0.249607
    13  C   -0.486624  -0.074390
    14  N    0.181603  -0.001896
    15  C   -0.255606   0.045358
    16  C   -0.236435  -0.063280
    17  O   -0.337240   0.001470
    18  C   -0.320752   0.014352
    19  C   -0.480359   0.001947
    20  O   -0.258658   0.002868
    21  H    0.134247   0.004527
    22  H    0.010748  -0.022948
    23  H    0.179803  -0.001243
    24  H    0.243585  -0.000701
    25  H    0.124025  -0.014791
    26  H    0.151220  -0.002260
    27  H    0.063521   0.065591
    28  H    0.141749  -0.002209
    29  H    0.076908   0.015505
    30  H    0.112264   0.017201
    31  H    0.142523   0.016490
    32  H    0.359267  -0.001136
    33  H    0.240147  -0.004474
    34  H    0.101344   0.001472
    35  H    0.140615   0.001928
    36  H    0.165467  -0.000245
    37  H    0.291164  -0.003235
 Sum of Mulliken charges =  -1.00000   1.00000

 Dipole moment (field-independent basis, Debye):
    X=              8.3823    Y=              2.8034    Z=              0.5779  Tot=              8.8576
 Quadrupole moment (field-independent basis, Debye-Ang):
   XX=           -173.6002   YY=           -155.1439   ZZ=           -127.6560
   XY=            -28.2789   XZ=              2.5663   YZ=             -1.2903

 Summary of Natural Population Analysis:

                                       Natural Population
                Natural  -----------------------------------------------
    Atom  No    Charge         Core      Valence    Rydberg      Total
 -----------------------------------------------------------------------
      C    1   -0.17532      0.99953     2.16634    0.00945     3.17532
      C    2   -0.04710      0.99955     2.03806    0.00948     3.04710
      C    3   -0.10934      0.99949     2.09432    0.01553     3.10934
      C    4    0.19469      0.99937     1.79358    0.01236     2.80531
      C    5   -0.16382      0.99949     2.15502    0.00931     3.16382
      C    6    0.19872      0.99941     1.78965    0.01222     2.80128
      O    7   -0.33875      0.99987     3.33264    0.00623     4.33875
      O    8   -0.25972      0.99983     3.24997    0.00991     4.25972
      C    9    0.39757      0.99960     1.57990    0.02292     2.60243
      O   10   -0.28843      0.99987     3.28177    0.00679     4.28843
      C   11   -0.14422      0.99950     2.12628    0.01843     3.14422
      C   12    0.13267      0.99947     1.85806    0.00979     2.86733
      C   13   -0.10403      0.99963     2.08818    0.01623     3.10403
      N   14   -0.29513      0.99970     2.78044    0.01499     3.79513
      C   15   -0.09374      0.99962     2.08632    0.00779     3.09374
      C   16   -0.01343      0.99960     2.00065    0.01318     3.01343
      O   17   -0.38487      0.99990     3.37818    0.00679     4.38487
      C   18   -0.09858      0.99961     2.09063    0.00834     3.09858
      C   19   -0.01425      0.99961     2.00352    0.01112     3.01425
      O   20   -0.37417      0.99990     3.36730    0.00698     4.37417
      H   21    0.09354      0.00000     0.40518    0.00128     0.40646
      H   22    0.10475      0.00000     0.39282    0.00244     0.39525
      H   23    0.10928      0.00000     0.38961    0.00112     0.39072
      H   24    0.22794      0.00000     0.26965    0.00240     0.27206
      H   25    0.09479      0.00000     0.40402    0.00119     0.40521
      H   26    0.08286      0.00000     0.41591    0.00123     0.41714
      H   27    0.10068      0.00000     0.39727    0.00205     0.39932
      H   28    0.09159      0.00000     0.40711    0.00130     0.40841
      H   29    0.08566      0.00000     0.41193    0.00241     0.41434
      H   30    0.07682      0.00000     0.42177    0.00141     0.42318
      H   31    0.07556      0.00000     0.42243    0.00201     0.42444
      H   32    0.24622      0.00000     0.25079    0.00299     0.25378
      H   33    0.11112      0.00000     0.38738    0.00150     0.38888
      H   34    0.08168      0.00000     0.41713    0.00119     0.41832
      H   35    0.07740      0.00000     0.42128    0.00132     0.42260
      H   36    0.07979      0.00000     0.41883    0.00138     0.42021
      H   37    0.24341      0.00000     0.25405    0.00254     0.25659
 =======================================================================
   * Total *    0.00186     19.99257    53.74796    0.25762    73.99814

 Normal termination of Gaussian 16 at Mon Dec 14 18:59:53 2020.
