 Gaussian 16, Revision A.03,

 -----------------------------------------------------------
 # opt freq B3LYP/6-31G(d) empiricaldispersion=gd3bj scf=xqc
 -----------------------------------------------------------

 ------------------------------
 CID_64751524_JID_8417_neutraal
 ------------------------------
 Symbolic Z-matrix:
 Charge =  0 Multiplicity = 1

 SCF Done:  E(RB3LYP) =  -754.804934659     A.U. after   14 cycles
 SCF Done:  E(RB3LYP) =  -754.808351602     A.U. after   12 cycles
 SCF Done:  E(RB3LYP) =  -754.808694852     A.U. after   11 cycles
 SCF Done:  E(RB3LYP) =  -754.808952161     A.U. after   11 cycles
 SCF Done:  E(RB3LYP) =  -754.808986537     A.U. after    9 cycles
 SCF Done:  E(RB3LYP) =  -754.809009254     A.U. after   10 cycles
 SCF Done:  E(RB3LYP) =  -754.809014835     A.U. after    8 cycles
 SCF Done:  E(RB3LYP) =  -754.809017829     A.U. after    9 cycles
 SCF Done:  E(RB3LYP) =  -754.809019241     A.U. after    7 cycles
 SCF Done:  E(RB3LYP) =  -754.809019799     A.U. after    7 cycles
 SCF Done:  E(RB3LYP) =  -754.809020078     A.U. after    7 cycles
 SCF Done:  E(RB3LYP) =  -754.809020210     A.U. after    7 cycles
 SCF Done:  E(RB3LYP) =  -754.809020256     A.U. after    6 cycles
 SCF Done:  E(RB3LYP) =  -754.809020271     A.U. after    6 cycles
 Optimization completed.
    -- Stationary point found.
 Normal termination of Gaussian 16 at Fri Dec 11 20:41:26 2020.

 --------------------------------------------------------------------
 #N Geom=AllCheck Guess=TCheck SCRF=Check GenChk RB3LYP/6-31G(d) Freq
 --------------------------------------------------------------------

 Structure from the checkpoint file:  "JID_8417.chk"
 ------------------------------
 CID_64751524_JID_8417_neutraal
 ------------------------------
 Charge =  0 Multiplicity = 1

 SCF Done:  E(RB3LYP) =  -754.809020271     A.U. after    1 cycles

  Exact polarizability: 224.054   0.024 164.205  -5.874  16.061 138.687
 Approx polarizability: 302.244   0.138 248.474  -6.590  39.001 209.541

                      1                      2                      3
                      A                      A                      A
 Frequencies --     22.4828                37.5951                44.0998
 Red. masses --      3.5914                 3.7030                 3.4247
 Frc consts  --      0.0011                 0.0031                 0.0039
 IR Inten    --      0.3075                 0.2367                 0.1908

                      4                      5                      6
                      A                      A                      A
 Frequencies --     76.4450               104.2972               122.6081
 Red. masses --      3.2723                 2.9485                 3.4078
 Frc consts  --      0.0113                 0.0189                 0.0302
 IR Inten    --      0.6252                 1.7450                 0.4479

                      7                      8                      9
                      A                      A                      A
 Frequencies --    133.4007               164.1818               177.3167
 Red. masses --      2.6458                 1.4988                 2.0461
 Frc consts  --      0.0277                 0.0238                 0.0379
 IR Inten    --      0.5133                 1.6696                 0.8884

                     10                     11                     12
                      A                      A                      A
 Frequencies --    208.2405               231.8178               247.2816
 Red. masses --      1.4535                 2.1952                 2.5832
 Frc consts  --      0.0371                 0.0695                 0.0931
 IR Inten    --      5.8500                 5.0910                 3.8000

                     13                     14                     15
                      A                      A                      A
 Frequencies --    252.1285               273.9108               282.2399
 Red. masses --      3.1890                 2.5171                 1.3203
 Frc consts  --      0.1194                 0.1113                 0.0620
 IR Inten    --      1.8703                 7.7608                 2.7474

                     16                     17                     18
                      A                      A                      A
 Frequencies --    312.2632               319.3512               349.3055
 Red. masses --      2.5512                 3.6470                 2.1465
 Frc consts  --      0.1466                 0.2191                 0.1543
 IR Inten    --      1.6406                 8.8369                 9.9825

                     19                     20                     21
                      A                      A                      A
 Frequencies --    384.2805               391.2024               407.1306
 Red. masses --      1.9713                 2.2325                 1.8257
 Frc consts  --      0.1715                 0.2013                 0.1783
 IR Inten    --      0.1748                 2.9664                16.1298

                     22                     23                     24
                      A                      A                      A
 Frequencies --    426.6349               447.3989               454.5706
 Red. masses --      1.5465                 2.6184                 2.9113
 Frc consts  --      0.1659                 0.3088                 0.3544
 IR Inten    --     60.2578                54.4838                11.7858

                     25                     26                     27
                      A                      A                      A
 Frequencies --    485.9393               540.0430               557.6996
 Red. masses --      2.7200                 3.7849                 3.8237
 Frc consts  --      0.3784                 0.6504                 0.7007
 IR Inten    --     15.2526                 5.4361                 0.8110

                     28                     29                     30
                      A                      A                      A
 Frequencies --    594.5616               636.4706               656.6275
 Red. masses --      3.4058                 4.1386                 4.8466
 Frc consts  --      0.7094                 0.9878                 1.2312
 IR Inten    --      2.3267                19.5754                11.3748

                     31                     32                     33
                      A                      A                      A
 Frequencies --    710.1357               725.8758               768.9579
 Red. masses --      2.4376                 3.6063                 2.6295
 Frc consts  --      0.7242                 1.1195                 0.9161
 IR Inten    --      6.5352                 0.3843                 8.9983

                     34                     35                     36
                      A                      A                      A
 Frequencies --    784.0669               798.3215               821.0413
 Red. masses --      2.5689                 1.6862                 2.7811
 Frc consts  --      0.9305                 0.6332                 1.1046
 IR Inten    --      0.2909                33.5848                 1.5436

                     37                     38                     39
                      A                      A                      A
 Frequencies --    835.7782               861.7910               879.8190
 Red. masses --      2.2169                 1.4487                 1.3994
 Frc consts  --      0.9124                 0.6339                 0.6382
 IR Inten    --      1.5645                14.0193                 2.1334

                     40                     41                     42
                      A                      A                      A
 Frequencies --    887.2001               909.9184               946.3812
 Red. masses --      1.6373                 1.7454                 3.1998
 Frc consts  --      0.7593                 0.8514                 1.6885
 IR Inten    --      3.2899                 2.6880                28.8440

                     43                     44                     45
                      A                      A                      A
 Frequencies --    955.8708               962.4298               964.6107
 Red. masses --      2.4458                 1.9073                 1.2595
 Frc consts  --      1.3166                 1.0409                 0.6905
 IR Inten    --      1.4318                 0.8945                 0.6626

                     46                     47                     48
                      A                      A                      A
 Frequencies --    981.2245              1004.0703              1014.2754
 Red. masses --      2.4973                 2.1253                 5.3596
 Frc consts  --      1.4166                 1.2624                 3.2486
 IR Inten    --      4.4704                 0.5610                 6.6507

                     49                     50                     51
                      A                      A                      A
 Frequencies --   1022.2610              1045.1025              1062.7608
 Red. masses --      1.9269                 1.9182                 1.7032
 Frc consts  --      1.1864                 1.2344                 1.1334
 IR Inten    --      2.2586                 2.6575                 3.6191

                     52                     53                     54
                      A                      A                      A
 Frequencies --   1064.9389              1095.0550              1117.0618
 Red. masses --      1.6869                 1.8063                 1.9157
 Frc consts  --      1.1272                 1.2762                 1.4085
 IR Inten    --      1.4173                 2.4380                 2.2158

                     55                     56                     57
                      A                      A                      A
 Frequencies --   1128.6501              1147.3610              1149.2170
 Red. masses --      1.6169                 3.7622                 1.4554
 Frc consts  --      1.2135                 2.9180                 1.1325
 IR Inten    --      3.3716               116.7794                 2.2995

                     58                     59                     60
                      A                      A                      A
 Frequencies --   1166.6899              1173.7497              1192.2895
 Red. masses --      1.0964                 1.4627                 1.2822
 Frc consts  --      0.8793                 1.1873                 1.0739
 IR Inten    --      2.6780                 6.4823                 3.9919

                     61                     62                     63
                      A                      A                      A
 Frequencies --   1201.3364              1202.5971              1211.6858
 Red. masses --      2.1267                 1.1732                 1.9152
 Frc consts  --      1.8084                 0.9997                 1.6567
 IR Inten    --      7.8094                 3.2476                21.5643

                     64                     65                     66
                      A                      A                      A
 Frequencies --   1229.6182              1291.2019              1310.3151
 Red. masses --      1.6719                 1.6516                 1.5887
 Frc consts  --      1.4894                 1.6224                 1.6071
 IR Inten    --     35.2505                 4.7152                23.8339

                     67                     68                     69
                      A                      A                      A
 Frequencies --   1318.0023              1322.5166              1327.7545
 Red. masses --      1.2923                 1.1567                 1.4792
 Frc consts  --      1.3226                 1.1920                 1.5365
 IR Inten    --      6.4584                 0.6769                32.7085

                     70                     71                     72
                      A                      A                      A
 Frequencies --   1348.7810              1355.8919              1359.1883
 Red. masses --      1.5502                 1.7899                 1.8525
 Frc consts  --      1.6616                 1.9387                 2.0164
 IR Inten    --     17.2244                57.7970                 2.4017

                     73                     74                     75
                      A                      A                      A
 Frequencies --   1380.8897              1389.1297              1405.8390
 Red. masses --      2.9784                 1.3304                 1.3169
 Frc consts  --      3.3462                 1.5126                 1.5334
 IR Inten    --     31.8607                 2.1854                 3.9028

                     76                     77                     78
                      A                      A                      A
 Frequencies --   1408.3345              1408.6297              1414.8129
 Red. masses --      1.3803                 1.3130                 1.3809
 Frc consts  --      1.6130                 1.5350                 1.6286
 IR Inten    --      5.2289                 3.9195                13.6410

                     79                     80                     81
                      A                      A                      A
 Frequencies --   1422.6727              1424.5099              1442.0295
 Red. masses --      1.4259                 1.4406                 1.2925
 Frc consts  --      1.7004                 1.7223                 1.5836
 IR Inten    --     21.1585                25.1083                 8.3117

                     82                     83                     84
                      A                      A                      A
 Frequencies --   1444.9721              1481.9938              1498.4859
 Red. masses --      1.2538                 2.2548                 1.1653
 Frc consts  --      1.5424                 2.9177                 1.5417
 IR Inten    --     19.2965                83.7515                 1.5547

                     85                     86                     87
                      A                      A                      A
 Frequencies --   1505.3251              1508.5295              1514.1449
 Red. masses --      1.1213                 1.0919                 1.0593
 Frc consts  --      1.4971                 1.4640                 1.4309
 IR Inten    --      3.4296                 2.8876                 2.9403

                     88                     89                     90
                      A                      A                      A
 Frequencies --   1517.5054              1518.4144              1522.5825
 Red. masses --      1.0806                 1.0952                 1.0795
 Frc consts  --      1.4661                 1.4878                 1.4745
 IR Inten    --      9.3053                 1.8934                 6.1278

                     91                     92                     93
                      A                      A                      A
 Frequencies --   1528.2283              1533.8589              1541.0077
 Red. masses --      1.3166                 1.3164                 1.1003
 Frc consts  --      1.8117                 1.8247                 1.5394
 IR Inten    --      5.2103                18.7466                 3.8376

                     94                     95                     96
                      A                      A                      A
 Frequencies --   1541.6984              1555.9881              1565.7761
 Red. masses --      1.0582                 1.0917                 1.8798
 Frc consts  --      1.4819                 1.5573                 2.7154
 IR Inten    --      0.8241                40.9377                81.0826

                     97                     98                     99
                      A                      A                      A
 Frequencies --   1649.1610              1670.9522              2969.5147
 Red. masses --      5.0506                 5.6540                 1.0829
 Frc consts  --      8.0932                 9.3011                 5.6263
 IR Inten    --     29.8556               161.0360                33.3194

                    100                    101                    102
                      A                      A                      A
 Frequencies --   2984.1238              2998.3180              3005.2632
 Red. masses --      1.0675                 1.0465                 1.0780
 Frc consts  --      5.6010                 5.5429                 5.7362
 IR Inten    --     45.9368                65.3485                 5.6178

                    103                    104                    105
                      A                      A                      A
 Frequencies --   3011.4429              3026.1227              3031.9528
 Red. masses --      1.0812                 1.0674                 1.0656
 Frc consts  --      5.7771                 5.7591                 5.7715
 IR Inten    --     21.2335                59.9655                34.0077

                    106                    107                    108
                      A                      A                      A
 Frequencies --   3038.6832              3046.1008              3050.1743
 Red. masses --      1.0656                 1.0444                 1.0488
 Frc consts  --      5.7973                 5.7095                 5.7489
 IR Inten    --     89.5648                55.3546                11.8542

                    109                    110                    111
                      A                      A                      A
 Frequencies --   3061.7077              3063.1096              3071.8988
 Red. masses --      1.0949                 1.0991                 1.1006
 Frc consts  --      6.0471                 6.0760                 6.1190
 IR Inten    --     42.7578                37.2726                45.6059

                    112                    113                    114
                      A                      A                      A
 Frequencies --   3077.0403              3094.8423              3100.7822
 Red. masses --      1.0924                 1.0952                 1.1000
 Frc consts  --      6.0942                 6.1807                 6.2313
 IR Inten    --     29.3135                24.8596                24.9004

                    115                    116                    117
                      A                      A                      A
 Frequencies --   3103.0425              3138.9525              3155.9628
 Red. masses --      1.1008                 1.0989                 1.0964
 Frc consts  --      6.2452                 6.3795                 6.4342
 IR Inten    --     72.9763                41.4979                26.1573

                    118                    119                    120
                      A                      A                      A
 Frequencies --   3168.8905              3173.9648              3190.5608
 Red. masses --      1.0870                 1.0931                 1.0916
 Frc consts  --      6.4313                 6.4878                 6.5473
 IR Inten    --     14.5393                21.7954                25.0808

                    121                    122                    123
                      A                      A                      A
 Frequencies --   3211.6095              3214.9972              3604.4887
 Red. masses --      1.0883                 1.0933                 1.0758
 Frc consts  --      6.6137                 6.6581                 8.2353
 IR Inten    --     15.7227                 7.0516                14.3246

 - Thermochemistry -
 -------------------
 Temperature   298.150 Kelvin.  Pressure   1.00000 Atm.
 Atom     1 has atomic number  6 and mass  12.00000

 Molecular mass:   247.19361 amu.
 Principal axes and moments of inertia in atomic units:
                           1         2         3
     Eigenvalues --  2234.673918773.567929556.30740
           X            0.99998   0.00633  -0.00079
           Y           -0.00633   0.99998  -0.00117
           Z            0.00079   0.00117   1.00000
 This molecule is an asymmetric top.
 Rotational symmetry number  1.
 Warning -- assumption of classical behavior for rotation
           may cause significant error
 Rotational temperatures (Kelvin)      0.03876     0.00987     0.00906
 Rotational constants (GHZ):           0.80761     0.20570     0.18885
 Zero-point vibrational energy    1019136.6 (Joules/Mol)
                                  243.57950 (Kcal/Mol)
 Warning -- explicit consideration of  28 degrees of freedom as
           vibrations may cause significant error
 Vibrational temperatures:     32.35    54.09    63.45   109.99   150.06
          (Kelvin)            176.41   191.93   236.22   255.12   299.61
                              333.53   355.78   362.76   394.10   406.08
                              449.28   459.48   502.57   552.89   562.85
                              585.77   613.83   643.71   654.03   699.16
                              777.00   802.41   855.44   915.74   944.74
                             1021.73  1044.37  1106.36  1128.10  1148.61
                             1181.30  1202.50  1239.93  1265.86  1276.48
                             1309.17  1361.63  1375.28  1384.72  1387.86
                             1411.76  1444.63  1459.32  1470.81  1503.67
                             1529.08  1532.21  1575.54  1607.20  1623.88
                             1650.80  1653.47  1678.61  1688.76  1715.44
                             1728.46  1730.27  1743.35  1769.15  1857.75
                             1885.25  1896.31  1902.81  1910.34  1940.60
                             1950.83  1955.57  1986.79  1998.65  2022.69
                             2026.28  2026.70  2035.60  2046.91  2049.55
                             2074.76  2078.99  2132.26  2155.99  2165.83
                             2170.44  2178.52  2183.35  2184.66  2190.66
                             2198.78  2206.88  2217.17  2218.16  2238.72
                             2252.80  2372.77  2404.13  4272.47  4293.49
                             4313.91  4323.90  4332.79  4353.92  4362.30
                             4371.99  4382.66  4388.52  4405.11  4407.13
                             4419.78  4427.17  4452.79  4461.33  4464.59
                             4516.25  4540.73  4559.33  4566.63  4590.51
                             4620.79  4625.66  5186.06

 Zero-point correction=                           0.388169 (Hartree/Particle)
 Thermal correction to Energy=                    0.406280
 Thermal correction to Enthalpy=                  0.407225
 Thermal correction to Gibbs Free Energy=         0.341618
 Sum of electronic and zero-point Energies=           -754.420852
 Sum of electronic and thermal Energies=              -754.402740
 Sum of electronic and thermal Enthalpies=            -754.401796
 Sum of electronic and thermal Free Energies=         -754.467402

                     E (Thermal)             CV                S
                      KCal/Mol        Cal/Mol-Kelvin    Cal/Mol-Kelvin
 Total                  254.945             70.872            138.081
 Electronic               0.000              0.000              0.000
 Translational            0.889              2.981             42.416
 Rotational               0.889              2.981             33.593
 Vibrational            253.167             64.911             62.072
 Vibration     1          0.593              1.985              6.402
 Vibration     2          0.594              1.982              5.382
 Vibration     3          0.595              1.980              5.066
 Vibration     4          0.599              1.965              3.980
 Vibration     5          0.605              1.946              3.372
 Vibration     6          0.610              1.930              3.059
 Vibration     7          0.613              1.920              2.896
 Vibration     8          0.623              1.886              2.501
 Vibration     9          0.628              1.870              2.356
 Vibration    10          0.642              1.828              2.059
 Vibration    11          0.653              1.792              1.865
 Vibration    12          0.661              1.767              1.750
 Vibration    13          0.664              1.759              1.716
 Vibration    14          0.676              1.721              1.571
 Vibration    15          0.681              1.707              1.520
 Vibration    16          0.701              1.650              1.350
 Vibration    17          0.705              1.637              1.313
 Vibration    18          0.727              1.577              1.169
 Vibration    19          0.753              1.504              1.022
 Vibration    20          0.759              1.489              0.996
 Vibration    21          0.772              1.455              0.937
 Vibration    22          0.788              1.412              0.870
 Vibration    23          0.807              1.367              0.804
 Vibration    24          0.813              1.351              0.782
 Vibration    25          0.842              1.281              0.694
 Vibration    26          0.895              1.162              0.565
 Vibration    27          0.913              1.123              0.528
 Vibration    28          0.952              1.043              0.459

 Optimization completed.
    -- Stationary point found.
 Normal termination of Gaussian 16 at Fri Dec 11 21:02:17 2020.

 ----------------------------------------------------------------------
 # B3LYP/6-311++G(d,p) empiricaldispersion=gd3bj scf=xqc pop=npa geom=c
 heck
 ----------------------------------------------------------------------

 --------------------------------------
 CID_64751524_JID_8417_Energie_neutraal
 --------------------------------------
 Structure from the checkpoint file:  "JID_8417.chk"
 Charge =  0 Multiplicity = 1

 SCF Done:  E(RB3LYP) =  -755.015070876     A.U. after   14 cycles
 Normal termination of Gaussian 16 at Fri Dec 11 21:10:37 2020.

 ----------------------------------------------------------------------
 # B3LYP/6-311++G(d,p) empiricaldispersion=gd3bj scf=xqc pop=npa geom=c
 heck
 ----------------------------------------------------------------------

 ------------------------------------
 CID_64751524_JID_8417_Energie_kation
 ------------------------------------
 Structure from the checkpoint file:  "JID_8417.chk"
 Charge =  1 Multiplicity = 2

 SCF Done:  E(UB3LYP) =  -754.751812578     A.U. after   22 cycles
 Normal termination of Gaussian 16 at Fri Dec 11 21:29:34 2020.
 Gaussian 16:  ES64L-G16RevA.03 25-Dec-2016

 ----------------------------------------------------------------------
 # B3LYP/6-311++G(d,p) empiricaldispersion=gd3bj scf=xqc pop=npa geom=c
 heck
 ----------------------------------------------------------------------

 -----------------------------------
 CID_64751524_JID_8417_Energie_anion
 -----------------------------------
 Structure from the checkpoint file:  "JID_8417.chk"
 Charge = -1 Multiplicity = 2

                         Standard orientation:
 ---------------------------------------------------------------------
 Center     Atomic      Atomic             Coordinates (Angstroms)
 Number     Number       Type             X           Y           Z
 ---------------------------------------------------------------------
      1          6           0        3.933537    1.369311    0.629729
      2          6           0        3.979280    0.254136   -0.426596
      3          6           0        3.951411   -1.168881    0.167902
      4          6           0        2.564256   -1.696848    0.593531
      5          6           0        1.538987   -1.494486   -0.540223
      6          6           0        1.493206   -0.070171   -1.134273
      7          6           0        2.907413    0.384195   -1.529165
      8          7           0        0.879394    0.901030   -0.230497
      9          6           0       -0.498430    1.044954   -0.102687
     10          6           0       -1.003748    2.144468    0.618107
     11          6           0       -2.372508    2.306782    0.793259
     12          6           0       -3.276998    1.387822    0.258478
     13          6           0       -2.791129    0.293763   -0.460885
     14          6           0       -1.416035    0.121835   -0.634883
     15          6           0       -3.760248   -0.694598   -1.080544
     16          8           0       -4.863317   -1.013102   -0.249180
     17          6           0       -4.489466   -1.750690    0.899189
     18          6           0        2.064292   -1.173123    1.949273
     19          1           0        4.007812    2.355538    0.153491
     20          1           0        4.779102    1.273286    1.320553
     21          1           0        3.021182    1.349852    1.227984
     22          1           0        4.949173    0.363639   -0.932442
     23          1           0        4.340818   -1.852252   -0.600287
     24          1           0        4.647690   -1.230629    1.014528
     25          1           0        2.681318   -2.783368    0.714301
     26          1           0        0.543661   -1.784311   -0.187608
     27          1           0        1.788286   -2.173719   -1.367857
     28          1           0        0.896623   -0.116351   -2.060447
     29          1           0        2.870400    1.415313   -1.907356
     30          1           0        3.214608   -0.241895   -2.376525
     31          1           0        1.380619    1.775175   -0.157779
     32          1           0       -0.307410    2.862022    1.046840
     33          1           0       -2.737966    3.162131    1.355681
     34          1           0       -4.346258    1.502473    0.403024
     35          1           0       -1.064456   -0.738526   -1.193224
     36          1           0       -4.204732   -0.269478   -1.988070
     37          1           0       -3.221291   -1.611689   -1.373015
     38          1           0       -4.001090   -2.699387    0.623034
     39          1           0       -3.807545   -1.183218    1.547064
     40          1           0       -5.408720   -1.970049    1.448083
     41          1           0        1.179723   -1.738915    2.265538
     42          1           0        2.833544   -1.295479    2.721294
     43          1           0        1.772768   -0.123370    1.908840
 ---------------------------------------------------------------------

 SCF Done:  E(UB3LYP) =  -755.005005850     A.U. after   33 cycles
 SCF Done:  E(UB3LYP) =  -755.005005850     a.u. after    1 cycles

 The electronic state is 2-A.
 Alpha  occ. eigenvalues --  -19.04640 -14.22558 -10.13691 -10.12902 -10.12504
 Alpha  occ. eigenvalues --  -10.10916 -10.09186 -10.08751 -10.07936 -10.07737
 Alpha  occ. eigenvalues --  -10.07377 -10.07311 -10.07076 -10.06841 -10.06293
 Alpha  occ. eigenvalues --  -10.05971 -10.05792 -10.05235  -0.95813  -0.84541
 Alpha  occ. eigenvalues --   -0.76218  -0.73137  -0.68331  -0.67351  -0.66066
 Alpha  occ. eigenvalues --   -0.63702  -0.62093  -0.58556  -0.57911  -0.56394
 Alpha  occ. eigenvalues --   -0.53016  -0.50447  -0.49363  -0.48262  -0.43775
 Alpha  occ. eigenvalues --   -0.42878  -0.40312  -0.40054  -0.39890  -0.39404
 Alpha  occ. eigenvalues --   -0.37309  -0.37195  -0.34987  -0.34706  -0.34326
 Alpha  occ. eigenvalues --   -0.33427  -0.32009  -0.31839  -0.31394  -0.30713
 Alpha  occ. eigenvalues --   -0.30504  -0.30183  -0.28823  -0.28056  -0.26955
 Alpha  occ. eigenvalues --   -0.26300  -0.25405  -0.25010  -0.24398  -0.23881
 Alpha  occ. eigenvalues --   -0.23630  -0.21880  -0.21286  -0.19515  -0.18798
 Alpha  occ. eigenvalues --   -0.18521  -0.16338  -0.11090   0.03985
 Alpha virt. eigenvalues --    0.06021   0.06412   0.06759   0.07349   0.07561
 Alpha virt. eigenvalues --    0.07930   0.08394   0.08829   0.09082   0.09418
 Alpha virt. eigenvalues --    0.09563   0.10135   0.10429   0.10879   0.11489

  Beta  occ. eigenvalues --  -19.04637 -14.22549 -10.13682 -10.12888 -10.12503
  Beta  occ. eigenvalues --  -10.10910 -10.09187 -10.08747 -10.07929 -10.07726
  Beta  occ. eigenvalues --  -10.07372 -10.07301 -10.07069 -10.06814 -10.06271
  Beta  occ. eigenvalues --  -10.05949 -10.05763 -10.05220  -0.95806  -0.84526
  Beta  occ. eigenvalues --   -0.76205  -0.73104  -0.68317  -0.67316  -0.66042
  Beta  occ. eigenvalues --   -0.63680  -0.62070  -0.58504  -0.57863  -0.56370
  Beta  occ. eigenvalues --   -0.52988  -0.50423  -0.49331  -0.48219  -0.43747
  Beta  occ. eigenvalues --   -0.42847  -0.40291  -0.40033  -0.39842  -0.39374
  Beta  occ. eigenvalues --   -0.37286  -0.37171  -0.34961  -0.34674  -0.34306
  Beta  occ. eigenvalues --   -0.33395  -0.31986  -0.31811  -0.31364  -0.30695
  Beta  occ. eigenvalues --   -0.30479  -0.30154  -0.28803  -0.28042  -0.26933
  Beta  occ. eigenvalues --   -0.26275  -0.25373  -0.24980  -0.24368  -0.23860
  Beta  occ. eigenvalues --   -0.23598  -0.21850  -0.21249  -0.19473  -0.18768
  Beta  occ. eigenvalues --   -0.18509  -0.16325  -0.11074
  Beta virt. eigenvalues --    0.05874   0.06561   0.06789   0.06843   0.07766
  Beta virt. eigenvalues --    0.07971   0.08304   0.08506   0.08989   0.09378
  Beta virt. eigenvalues --    0.09791   0.10051   0.10368   0.10645   0.11010

 Mulliken charges and spin densities:
               1          2
     1  C    0.791909  -1.494496
     2  C   -0.393316   0.864799
     3  C    0.549538  -1.282995
     4  C   -0.230089   0.657421
     5  C    0.726847  -1.155373
     6  C   -0.290878   0.612700
     7  C   -0.156874  -0.807323
     8  N    0.271485  -0.186966
     9  C    0.120885  -0.251976
    10  C   -0.174452   0.113664
    11  C   -0.407662   0.051744
    12  C   -0.141997  -0.318916
    13  C    0.190062   0.231710
    14  C   -0.345875   0.038223
    15  C    0.089813  -0.507363
    16  O   -0.129908   0.016419
    17  C   -0.070983  -0.273724
    18  C   -0.106261  -0.628300
    19  H   -0.256527   0.396445
    20  H   -0.113730   0.249832
    21  H    0.064129   0.067650
    22  H   -0.371964   0.594225
    23  H   -0.122875   0.273909
    24  H   -0.207120   0.362820
    25  H   -0.135320   0.349988
    26  H    0.224099  -0.103616
    27  H   -0.417720   0.598758
    28  H   -0.121128   0.347967
    29  H   -0.365373   0.547674
    30  H   -0.168564   0.336195
    31  H    0.389776  -0.108011
    32  H   -0.213566   0.323762
    33  H    0.040079   0.120698
    34  H    0.160898   0.000062
    35  H    0.014371   0.104296
    36  H    0.080748   0.098843
    37  H    0.036285   0.129190
    38  H   -0.067756   0.192591
    39  H    0.108238   0.031320
    40  H    0.077728   0.069513
    41  H   -0.085012   0.216153
    42  H    0.058036   0.078604
    43  H    0.100025   0.041884
 Sum of Mulliken charges =  -1.00000   1.00000

 Dipole moment (field-independent basis, Debye):
    X=             -6.7335    Y=              1.5487    Z=              2.1413  Tot=              7.2335
 Quadrupole moment (field-independent basis, Debye-Ang):
   XX=           -211.2580   YY=           -158.7667   ZZ=           -150.8909
   XY=             -0.7322   XZ=              4.9912   YZ=             -0.3542

 Summary of Natural Population Analysis:

                                       Natural Population
                Natural  -----------------------------------------------
    Atom  No    Charge         Core      Valence    Rydberg      Total
 -----------------------------------------------------------------------
      C    1   -0.28793      0.99964     2.28204    0.00625     3.28793
      C    2   -0.11356      0.99959     2.10204    0.01193     3.11356
      C    3   -0.18545      0.99959     2.17560    0.01026     3.18545
      C    4   -0.11227      0.99960     2.10149    0.01119     3.11227
      C    5   -0.19092      0.99959     2.18106    0.01027     3.19092
      C    6   -0.01041      0.99957     1.99649    0.01435     3.01041
      C    7   -0.18860      0.99959     2.17852    0.01049     3.18860
      N    8   -0.31797      0.99966     2.80757    0.01074     3.81797
      C    9    0.10109      0.99949     1.88925    0.01016     2.89891
      C   10   -0.12262      0.99953     2.11472    0.00837     3.12262
      C   11   -0.09201      0.99957     2.08290    0.00954     3.09201
      C   12   -0.12891      0.99951     2.12016    0.00925     3.12891
      C   13   -0.02575      0.99951     2.01783    0.00841     3.02575
      C   14   -0.13283      0.99948     2.12530    0.00806     3.13283
      C   15   -0.01471      0.99954     2.00121    0.01396     3.01471
      O   16   -0.29718      0.99989     3.28812    0.00916     4.29718
      C   17   -0.10131      0.99962     2.09330    0.00839     3.10131
      C   18   -0.28482      0.99964     2.27937    0.00581     3.28482
      H   19    0.09782      0.00000     0.40097    0.00121     0.40218
      H   20    0.09991      0.00000     0.39911    0.00099     0.40009
      H   21    0.09643      0.00000     0.40194    0.00163     0.40357
      H   22    0.09817      0.00000     0.39972    0.00211     0.40183
      H   23    0.10094      0.00000     0.39747    0.00159     0.39906
      H   24    0.09829      0.00000     0.40061    0.00110     0.40171
      H   25    0.09601      0.00000     0.40236    0.00162     0.40399
      H   26    0.10097      0.00000     0.39739    0.00165     0.39903
      H   27    0.10227      0.00000     0.39598    0.00175     0.39773
      H   28    0.09199      0.00000     0.40587    0.00214     0.40801
      H   29    0.09995      0.00000     0.39863    0.00142     0.40005
      H   30    0.10696      0.00000     0.39140    0.00164     0.39304
      H   31    0.18846      0.00000     0.30856    0.00297     0.31154
      H   32    0.09987      0.00000     0.39910    0.00103     0.40013
      H   33    0.09796      0.00000     0.40130    0.00074     0.40204
      H   34    0.10279      0.00000     0.39558    0.00163     0.39721
      H   35    0.10442      0.00000     0.39353    0.00205     0.39558
      H   36    0.09473      0.00000     0.40408    0.00119     0.40527
      H   37    0.08269      0.00000     0.41586    0.00146     0.41731
      H   38    0.07858      0.00000     0.41969    0.00173     0.42142
      H   39    0.08572      0.00000     0.41268    0.00160     0.41428
      H   40    0.08706      0.00000     0.41185    0.00109     0.41294
      H   41    0.09727      0.00000     0.40184    0.00089     0.40273
      H   42    0.09514      0.00000     0.40407    0.00079     0.40486
      H   43    0.10177      0.00000     0.39702    0.00121     0.39823
 =======================================================================
   * Total *   -0.00000     17.99261    49.79358    0.21381    68.00000

 Normal termination of Gaussian 16 at Fri Dec 11 21:56:59 2020.
